Title
114268
    1ECLIP HB6S    1   3.980   4.668  11.811
    1ECLIP  OB6    2   4.117   4.565  11.929
    1ECLIP  CB6    3   4.086   4.677  11.842
    1ECLIP HB6R    4   4.097   4.774  11.897
    1ECLIP  CB5    5   4.170   4.695  11.717
    1ECLIP  OB5    6   4.173   4.566  11.658
    1ECLIP  HB5    7   4.273   4.725  11.746
    1ECLIP  CB1    8   4.258   4.562  11.543
    1ECLIP  HB1    9   4.360   4.596  11.571
    1ECLIP  OA6   10   4.269   4.432  11.491
    1ECLIP  CA6   11   4.150   4.355  11.510
    1ECLIP HA6R   12   4.058   4.418  11.504
    1ECLIP HA6S   13   4.151   4.308  11.610
    1ECLIP  CB4   14   4.111   4.799  11.618
    1ECLIP  HB4   15   4.006   4.772  11.593
    1ECLIP  OB4   16   4.117   4.926  11.686
    1ECLIP   PB   17   4.000   5.042  11.705
    1ECLIP OPB4   18   4.022   5.112  11.839
    1ECLIP OPB3   19   3.864   4.972  11.712
    1ECLIP OPB2   20   4.010   5.138  11.588
    1ECLIP  CB3   21   4.197   4.795  11.491
    1ECLIP  OB3   22   4.140   4.878  11.389
    1ECLIP  HB3   23   4.299   4.828  11.520
    1ECLIP  C71   24   4.223   4.928  11.299
    1ECLIP  O71   25   4.345   4.922  11.305
    1ECLIP  C72   26   4.155   4.945  11.164
    1ECLIP H72R   27   4.190   4.862  11.099
    1ECLIP H72S   28   4.191   5.040  11.120
    1ECLIP  CB2   29   4.203   4.652  11.435
    1ECLIP  HB2   30   4.098   4.621  11.415
    1ECLIP  NB2   31   4.281   4.635  11.311
    1ECLIP HNB2   32   4.379   4.654  11.320
    1ECLIP  CA4   33   4.278   4.196  11.356
    1ECLIP  HA4   34   4.338   4.281  11.316
    1ECLIP  OA4   35   4.347   4.138  11.467
    1ECLIP HOA4   36   4.342   4.195  11.544
    1ECLIP  CA5   37   4.144   4.250  11.402
    1ECLIP  HA5   38   4.079   4.168  11.438
    1ECLIP  OA5   39   4.082   4.314  11.291
    1ECLIP  CA1   40   4.051   4.226  11.183
    1ECLIP  HA1   41   4.004   4.287  11.103
    1ECLIP  OA1   42   3.964   4.121  11.221
    1ECLIP OPA2   43   3.800   4.105  11.413
    1ECLIP OPA3   44   3.779   4.302  11.257
    1ECLIP OPA4   45   3.718   4.068  11.190
    1ECLIP   PA   46   3.813   4.157  11.270
    1ECLIP  CA3   47   4.255   4.097  11.243
    1ECLIP  HA3   48   4.187   4.019  11.284
    1ECLIP  OA3   49   4.372   4.025  11.198
    1ECLIP  C31   50   4.477   4.092  11.144
    1ECLIP  O31   51   4.527   4.052  11.039
    1ECLIP  C32   52   4.582   4.108  11.257
    1ECLIP H32R   53   4.667   4.045  11.224
    1ECLIP H32S   54   4.544   4.064  11.352
    1ECLIP  CA2   55   4.179   4.166  11.129
    1ECLIP  HA2   56   4.241   4.249  11.089
    1ECLIP  NA2   57   4.142   4.075  11.022
    1ECLIP HNA2   58   4.100   3.991  11.057
    1ECLIP  C73   59   4.002   4.946  11.167
    1ECLIP H73R   60   3.968   5.005  11.254
    1ECLIP  O73   61   3.959   4.810  11.176
    1ECLIP  C81   62   3.840   4.791  11.234
    1ECLIP  O81   63   3.764   4.882  11.266
    1ECLIP  C82   64   3.788   4.655  11.188
    1ECLIP H82R   65   3.686   4.641  11.230
    1ECLIP H82S   66   3.854   4.576  11.229
    1ECLIP  C83   67   3.784   4.647  11.035
    1ECLIP H83R   68   3.889   4.648  10.999
    1ECLIP H83S   69   3.732   4.735  10.992
    1ECLIP  C84   70   3.719   4.519  10.981
    1ECLIP H84R   71   3.609   4.524  10.993
    1ECLIP H84S   72   3.756   4.432  11.039
    1ECLIP  C85   73   3.757   4.500  10.833
    1ECLIP H85R   74   3.867   4.482  10.830
    1ECLIP H85S   75   3.736   4.595  10.780
    1ECLIP  C86   76   3.686   4.385  10.762
    1ECLIP H86R   77   3.579   4.411  10.749
    1ECLIP H86S   78   3.691   4.294  10.827
    1ECLIP  C87   79   3.750   4.352  10.626
    1ECLIP H87R   80   3.685   4.279  10.572
    1ECLIP H87S   81   3.848   4.304  10.644
    1ECLIP  C88   82   3.772   4.477  10.539
    1ECLIP H88R   83   3.844   4.543  10.592
    1ECLIP H88S   84   3.677   4.533  10.528
    1ECLIP  C89   85   3.833   4.447  10.401
    1ECLIP H89R   86   3.915   4.374  10.410
    1ECLIP H89S   87   3.876   4.543  10.365
    1ECLIP C810   88   3.731   4.399  10.298
    1ECLIPH810R   89   3.635   4.452  10.312
    1ECLIPH810S   90   3.711   4.291  10.316
    1ECLIP C811   91   3.780   4.420  10.153
    1ECLIPH811R   92   3.707   4.370  10.086
    1ECLIPH811S   93   3.878   4.368  10.141
    1ECLIP C812   94   3.795   4.567  10.111
    1ECLIPH812R   95   3.823   4.571  10.003
    1ECLIPH812S   96   3.878   4.615  10.167
    1ECLIP C813   97   3.670   4.653  10.134
    1ECLIPH813R   98   3.581   4.599  10.097
    1ECLIPH813S   99   3.656   4.666  10.244
    1ECLIP C814  100   3.678   4.790  10.068
    1ECLIPH814R  101   3.694   4.780   9.958
    1ECLIPH814S  102   3.762   4.849  10.111
    1ECLIPH814T  103   3.584   4.847  10.085
    1ECLIP  C74  104   3.943   5.009  11.037
    1ECLIP H74R  105   3.965   5.117  11.036
    1ECLIP H74S  106   3.832   4.998  11.046
    1ECLIP  C75  107   3.985   4.950  10.900
    1ECLIP H75R  108   3.903   4.975  10.829
    1ECLIP H75S  109   3.987   4.839  10.908
    1ECLIP  C76  110   4.116   5.003  10.839
    1ECLIP H76R  111   4.203   4.964  10.895
    1ECLIP H76S  112   4.117   5.114  10.846
    1ECLIP  C77  113   4.129   4.964  10.691
    1ECLIP H77R  114   4.043   5.006  10.636
    1ECLIP H77S  115   4.121   4.853  10.683
    1ECLIP  C78  116   4.260   5.009  10.623
    1ECLIP H78R  117   4.263   5.120  10.623
    1ECLIP H78S  118   4.347   4.974  10.684
    1ECLIP  C79  119   4.278   4.957  10.478
    1ECLIP H79R  120   4.318   4.854  10.482
    1ECLIP H79S  121   4.355   5.020  10.428
    1ECLIP C710  122   4.148   4.957  10.395
    1ECLIPH710R  123   4.085   4.872  10.430
    1ECLIPH710S  124   4.092   5.050  10.415
    1ECLIP C711  125   4.168   4.944  10.242
    1ECLIPH711R  126   4.216   5.037  10.206
    1ECLIPH711S  127   4.239   4.861  10.221
    1ECLIP C712  128   4.036   4.917  10.167
    1ECLIPH712R  129   3.954   4.915  10.242
    1ECLIPH712S  130   4.039   4.815  10.125
    1ECLIP C713  131   3.995   5.019  10.058
    1ECLIPH713R  132   3.906   4.979  10.004
    1ECLIPH713S  133   3.960   5.110  10.110
    1ECLIP C714  134   4.101   5.059   9.954
    1ECLIPH714R  135   4.084   5.163   9.919
    1ECLIPH714S  136   4.204   5.052   9.995
    1ECLIPH714T  137   4.093   4.996   9.863
    1ECLIP  C51  138   4.231   4.601  11.190
    1ECLIP  O51  139   4.114   4.576  11.172
    1ECLIP  C52  140   4.329   4.598  11.074
    1ECLIP H52R  141   4.363   4.701  11.053
    1ECLIP H52S  142   4.416   4.537  11.105
    1ECLIP  C53  143   4.265   4.536  10.947
    1ECLIP H53R  144   4.206   4.445  10.973
    1ECLIP  O53  145   4.367   4.507  10.851
    1ECLIP  C61  146   4.407   4.381  10.848
    1ECLIP  O61  147   4.417   4.310  10.946
    1ECLIP  C62  148   4.492   4.362  10.723
    1ECLIP H62R  149   4.594   4.335  10.757
    1ECLIP H62S  150   4.495   4.457  10.667
    1ECLIP  C63  151   4.434   4.251  10.633
    1ECLIP H63R  152   4.328   4.270  10.609
    1ECLIP H63S  153   4.439   4.155  10.689
    1ECLIP  C64  154   4.515   4.238  10.504
    1ECLIP H64R  155   4.500   4.136  10.461
    1ECLIP H64S  156   4.622   4.250  10.532
    1ECLIP  C65  157   4.482   4.343  10.398
    1ECLIP H65R  158   4.487   4.442  10.447
    1ECLIP H65S  159   4.378   4.327  10.363
    1ECLIP  C66  160   4.577   4.347  10.278
    1ECLIP H66R  161   4.678   4.376  10.313
    1ECLIP H66S  162   4.546   4.424  10.205
    1ECLIP  C67  163   4.586   4.214  10.203
    1ECLIP H67R  164   4.620   4.139  10.277
    1ECLIP H67S  165   4.660   4.223  10.121
    1ECLIP  C68  166   4.453   4.161  10.150
    1ECLIP H68R  167   4.394   4.248  10.112
    1ECLIP H68S  168   4.395   4.117  10.234
    1ECLIP  C69  169   4.470   4.058  10.038
    1ECLIP H69R  170   4.522   3.969  10.077
    1ECLIP H69S  171   4.535   4.102   9.959
    1ECLIP C610  172   4.335   4.019   9.977
    1ECLIPH610R  173   4.266   4.106   9.981
    1ECLIPH610S  174   4.291   3.938  10.039
    1ECLIP C611  175   4.341   3.972   9.831
    1ECLIPH611R  176   4.424   3.899   9.819
    1ECLIPH611S  177   4.246   3.919   9.809
    1ECLIP C612  178   4.359   4.086   9.730
    1ECLIPH612R  179   4.274   4.157   9.737
    1ECLIPH612S  180   4.453   4.141   9.751
    1ECLIPH612T  181   4.364   4.047   9.627
    1ECLIP  C54  182   4.172   4.635  10.874
    1ECLIP H54R  183   4.227   4.730  10.856
    1ECLIP H54S  184   4.089   4.657  10.944
    1ECLIP  C55  185   4.111   4.584  10.741
    1ECLIP H55R  186   4.021   4.646  10.721
    1ECLIP H55S  187   4.078   4.479  10.754
    1ECLIP  C56  188   4.204   4.595  10.619
    1ECLIP H56R  189   4.285   4.520  10.627
    1ECLIP H56S  190   4.253   4.695  10.618
    1ECLIP  C57  191   4.131   4.571  10.486
    1ECLIP H57R  192   4.045   4.641  10.478
    1ECLIP H57S  193   4.092   4.467  10.490
    1ECLIP  C58  194   4.221   4.586  10.363
    1ECLIP H58R  195   4.246   4.693  10.347
    1ECLIP H58S  196   4.317   4.535  10.387
    1ECLIP  C59  197   4.164   4.524  10.235
    1ECLIP H59R  198   4.077   4.584  10.202
    1ECLIP H59S  199   4.127   4.422  10.260
    1ECLIP C510  200   4.265   4.513  10.120
    1ECLIPH510R  201   4.358   4.467  10.160
    1ECLIPH510S  202   4.291   4.616  10.085
    1ECLIP C511  203   4.216   4.426  10.004
    1ECLIPH511R  204   4.211   4.321  10.038
    1ECLIPH511S  205   4.113   4.457   9.978
    1ECLIP C512  206   4.302   4.434   9.876
    1ECLIPH512R  207   4.254   4.371   9.797
    1ECLIPH512S  208   4.302   4.539   9.840
    1ECLIP C513  209   4.450   4.397   9.887
    1ECLIPH513R  210   4.458   4.290   9.915
    1ECLIPH513S  211   4.498   4.457   9.967
    1ECLIP C514  212   4.523   4.418   9.755
    1ECLIPH514R  213   4.528   4.527   9.730
    1ECLIPH514S  214   4.627   4.378   9.761
    1ECLIPH514T  215   4.470   4.366   9.672
    1ECLIP  C33  216   4.639   4.250  11.281
    1ECLIP H33R  217   4.749   4.243  11.297
    1ECLIP  O33  218   4.584   4.302  11.400
    1ECLIP HO33  219   4.509   4.254  11.437
    1ECLIP  C34  220   4.609   4.348  11.168
    1ECLIP H34R  221   4.500   4.367  11.168
    1ECLIP H34S  222   4.632   4.297  11.072
    1ECLIP  C35  223   4.685   4.483  11.166
    1ECLIP H35R  224   4.789   4.470  11.202
    1ECLIP H35S  225   4.634   4.551  11.238
    1ECLIP  C36  226   4.685   4.543  11.024
    1ECLIP H36R  227   4.596   4.501  10.973
    1ECLIP H36S  228   4.774   4.508  10.967
    1ECLIP  C37  229   4.671   4.695  11.015
    1ECLIP H37R  230   4.770   4.743  11.029
    1ECLIP H37S  231   4.604   4.731  11.097
    1ECLIP  C38  232   4.608   4.742  10.881
    1ECLIP H38R  233   4.501   4.712  10.877
    1ECLIP H38S  234   4.611   4.853  10.877
    1ECLIP  C39  235   4.678   4.684  10.756
    1ECLIP H39R  236   4.651   4.577  10.744
    1ECLIP H39S  237   4.787   4.688  10.778
    1ECLIP C310  238   4.648   4.762  10.627
    1ECLIPH310R  239   4.741   4.814  10.597
    1ECLIPH310S  240   4.570   4.839  10.646
    1ECLIP C311  241   4.604   4.679  10.505
    1ECLIPH311R  242   4.672   4.592  10.493
    1ECLIPH311S  243   4.502   4.641  10.523
    1ECLIP C312  244   4.606   4.762  10.375
    1ECLIPH312R  245   4.536   4.847  10.386
    1ECLIPH312S  246   4.708   4.804  10.360
    1ECLIP C313  247   4.571   4.682  10.249
    1ECLIPH313R  248   4.652   4.607  10.233
    1ECLIPH313S  249   4.476   4.628  10.268
    1ECLIP C314  250   4.555   4.765  10.121
    1ECLIPH314R  251   4.652   4.810  10.090
    1ECLIPH314S  252   4.518   4.702  10.038
    1ECLIPH314T  253   4.481   4.847  10.137
    1ECLIP  C11  254   4.116   4.110  10.896
    1ECLIP  O11  255   4.162   4.210  10.841
    1ECLIP  C12  256   4.017   4.021  10.824
    1ECLIP H12R  257   3.916   4.047  10.862
    1ECLIP H12S  258   4.038   3.915  10.849
    1ECLIP  C13  259   4.022   4.041  10.672
    1ECLIP H13R  260   4.005   4.148  10.647
    1ECLIP  O13  261   3.918   3.964  10.616
    1ECLIP HO13  262   3.830   3.988  10.647
    1ECLIP  C14  263   4.156   3.995  10.609
    1ECLIP H14R  264   4.176   3.893  10.646
    1ECLIP H14S  265   4.237   4.062  10.646
    1ECLIP  C15  266   4.159   3.992  10.455
    1ECLIP H15R  267   4.087   3.914  10.422
    1ECLIP H15S  268   4.260   3.961  10.421
    1ECLIP  C16  269   4.122   4.126  10.387
    1ECLIP H16R  270   4.201   4.200  10.410
    1ECLIP H16S  271   4.027   4.165  10.429
    1ECLIP  C17  272   4.105   4.112  10.235
    1ECLIP H17R  273   4.190   4.051  10.197
    1ECLIP H17S  274   4.109   4.213  10.190
    1ECLIP  C18  275   3.972   4.045  10.194
    1ECLIP H18R  276   3.960   3.951  10.251
    1ECLIP H18S  277   3.888   4.112  10.223
    1ECLIP  C19  278   3.963   4.011  10.044
    1ECLIP H19R  279   3.870   3.954  10.027
    1ECLIP H19S  280   4.049   3.946  10.017
    1ECLIP C110  281   3.963   4.134   9.952
    1ECLIPH110R  282   3.880   4.202   9.983
    1ECLIPH110S  283   4.058   4.190   9.965
    1ECLIP C111  284   3.946   4.098   9.804
    1ECLIPH111R  285   4.025   4.024   9.776
    1ECLIPH111S  286   3.847   4.050   9.790
    1ECLIP C112  287   3.958   4.220   9.712
    1ECLIPH112R  288   3.887   4.299   9.746
    1ECLIPH112S  289   4.060   4.262   9.720
    1ECLIP C113  290   3.928   4.186   9.565
    1ECLIPH113R  291   3.986   4.095   9.538
    1ECLIPH113S  292   3.820   4.160   9.556
    1ECLIP C114  293   3.963   4.299   9.469
    1ECLIPH114R  294   3.909   4.392   9.498
    1ECLIPH114S  295   4.072   4.320   9.471
    1ECLIPH114T  296   3.933   4.272   9.365
    2AKDO    C1  297   4.343   4.625  11.984
    2AKDO   O11  298   4.399   4.731  12.023
    2AKDO   O12  299   4.399   4.524  11.931
    2AKDO    C2  300   4.199   4.599  12.041
    2AKDO    C6  301   4.010   4.684  12.162
    2AKDO    H6  302   3.951   4.642  12.078
    2AKDO    O6  303   4.143   4.712  12.112
    2AKDO    C3  304   4.202   4.482  12.142
    2AKDO   H31  305   4.272   4.511  12.224
    2AKDO   H32  306   4.243   4.393  12.089
    2AKDO    C4  307   4.070   4.448  12.202
    2AKDO    H4  308   4.001   4.413  12.122
    2AKDO    O4  309   4.086   4.346  12.303
    2AKDO    C5  310   4.010   4.573  12.269
    2AKDO    H5  311   3.903   4.547  12.284
    2AKDO    O5  312   4.067   4.606  12.399
    2AKDO    C7  313   3.944   4.819  12.189
    2AKDO    H7  314   3.998   4.872  12.271
    2AKDO    O7  315   3.806   4.805  12.221
    2AKDO   HO7  316   3.775   4.890  12.190
    2AKDO    C8  317   3.950   4.903  12.061
    2AKDO   H81  318   4.057   4.925  12.038
    2AKDO   H82  319   3.909   4.845  11.976
    2AKDO    O8  320   3.882   5.029  12.065
    2AKDO   HO8  321   3.923   5.072  11.990
    3AKDO    C1  322   4.039   4.141  12.164
    3AKDO   O11  323   4.097   4.047  12.103
    3AKDO   O12  324   3.914   4.138  12.187
    3AKDO    C2  325   4.126   4.213  12.273
    3AKDO    C6  326   4.359   4.245  12.332
    3AKDO    H6  327   4.341   4.353  12.350
    3AKDO    O6  328   4.264   4.196  12.235
    3AKDO    C3  329   4.108   4.143  12.408
    3AKDO   H31  330   4.125   4.034  12.392
    3AKDO   H32  331   4.003   4.156  12.441
    3AKDO    C4  332   4.202   4.193  12.513
    3AKDO    H4  333   4.188   4.302  12.528
    3AKDO    O4  334   4.171   4.127  12.636
    3AKDO   HO4  335   4.118   4.186  12.690
    3AKDO    C5  336   4.344   4.170  12.465
    3AKDO    H5  337   4.415   4.213  12.539
    3AKDO    O5  338   4.374   4.031  12.448
    3AKDO   HO5  339   4.352   4.014  12.356
    3AKDO    C7  340   4.496   4.231  12.266
    3AKDO    H7  341   4.516   4.123  12.247
    3AKDO    O7  342   4.597   4.284  12.353
    3AKDO   HO7  343   4.633   4.356  12.300
    3AKDO    C8  344   4.502   4.302  12.132
    3AKDO   H81  345   4.425   4.260  12.063
    3AKDO   H82  346   4.479   4.410  12.145
    3AKDO    O8  347   4.630   4.288  12.070
    3AKDO   HO8  348   4.632   4.356  12.002
    4AHEP    C1  349   3.971   4.654  12.493
    4AHEP    H1  350   3.928   4.747  12.450
    4AHEP    C5  351   3.900   4.444  12.582
    4AHEP    H5  352   3.988   4.402  12.529
    4AHEP    O5  353   3.861   4.563  12.512
    4AHEP    C2  354   4.025   4.694  12.631
    4AHEP    H2  355   4.117   4.754  12.613
    4AHEP    O2  356   3.937   4.777  12.707
    4AHEP   HO2  357   3.947   4.743  12.796
    4AHEP    C3  358   4.065   4.573  12.715
    4AHEP    H3  359   4.152   4.523  12.667
    4AHEP    O3  360   4.096   4.618  12.850
    4AHEP    C4  361   3.945   4.480  12.725
    4AHEP    H4  362   3.862   4.534  12.775
    4AHEP    O4  363   3.983   4.362  12.796
    4AHEP    P4  364   3.895   4.301  12.922
    4AHEP  OP42  365   3.985   4.197  12.988
    4AHEP  OP43  366   3.768   4.239  12.867
    4AHEP  OP44  367   3.857   4.414  13.017
    4AHEP    C6  368   3.792   4.335  12.571
    4AHEP    H6  369   3.836   4.239  12.605
    4AHEP    O6  370   3.681   4.364  12.658
    4AHEP   HO6  371   3.709   4.320  12.738
    4AHEP    C7  372   3.742   4.316  12.428
    4AHEP   H71  373   3.671   4.231  12.424
    4AHEP   H72  374   3.829   4.289  12.364
    4AHEP    O7  375   3.680   4.432  12.373
    4AHEP   HO7  376   3.725   4.504  12.418
    5AHEP    C1  377   4.208   4.562  12.913
    5AHEP    H1  378   4.234   4.466  12.863
    5AHEP    C5  379   4.301   4.777  12.974
    5AHEP    H5  380   4.213   4.825  12.928
    5AHEP    O5  381   4.323   4.649  12.909
    5AHEP    C2  382   4.181   4.532  13.060
    5AHEP    H2  383   4.085   4.476  13.065
    5AHEP    O2  384   4.280   4.444  13.115
    5AHEP   HO2  385   4.249   4.355  13.094
    5AHEP    C3  386   4.157   4.661  13.138
    5AHEP    H3  387   4.066   4.709  13.098
    5AHEP    O3  388   4.144   4.636  13.279
    5AHEP    C4  389   4.274   4.755  13.124
    5AHEP    H4  390   4.364   4.715  13.176
    5AHEP    O4  391   4.232   4.881  13.174
    5AHEP    P4  392   4.265   4.950  13.320
    5AHEP  OP42  393   4.146   5.039  13.354
    5AHEP  OP43  394   4.390   5.035  13.303
    5AHEP  OP44  395   4.281   4.842  13.425
    5AHEP    C6  396   4.424   4.867  12.946
    5AHEP    H6  397   4.411   4.960  13.005
    5AHEP    O6  398   4.544   4.801  12.991
    5AHEP   HO6  399   4.525   4.782  13.083
    5AHEP    C7  400   4.435   4.904  12.797
    5AHEP   H71  401   4.466   5.011  12.796
    5AHEP   H72  402   4.335   4.903  12.749
    5AHEP    O7  403   4.532   4.834  12.717
    6AHEP    C1  404   4.481   4.714  12.665
    6AHEP    H1  405   4.375   4.701  12.697
    6AHEP    C5  406   4.595   4.714  12.455
    6AHEP    H5  407   4.653   4.802  12.490
    6AHEP    O5  408   4.468   4.714  12.522
    6AHEP    C2  409   4.561   4.596  12.715
    6AHEP    H2  410   4.580   4.613  12.823
    6AHEP    O2  411   4.492   4.470  12.707
    6AHEP   HO2  412   4.427   4.470  12.778
    6AHEP    C3  413   4.695   4.593  12.646
    6AHEP    H3  414   4.746   4.690  12.664
    6AHEP    O3  415   4.777   4.488  12.696
    6AHEP   HO3  416   4.720   4.411  12.694
    6AHEP    C4  417   4.671   4.587  12.496
    6AHEP    H4  418   4.603   4.501  12.474
    6AHEP    O4  419   4.792   4.565  12.422
    6AHEP   HO4  420   4.859   4.628  12.448
    6AHEP    C6  421   4.577   4.732  12.304
    6AHEP    H6  422   4.675   4.723  12.253
    6AHEP    O6  423   4.495   4.628  12.252
    6AHEP   HO6  424   4.463   4.658  12.167
    6AHEP    C7  425   4.520   4.869  12.268
    6AHEP   H71  426   4.523   4.884  12.158
    6AHEP   H72  427   4.585   4.948  12.312
    6AHEP    O7  428   4.386   4.892  12.315
    6AHEP   HO7  429   4.334   4.826  12.268
    7AGLC    C1  430   4.016   4.609  13.327
    7AGLC    H1  431   3.942   4.676  13.279
    7AGLC    C5  432   4.073   4.380  13.366
    7AGLC    H5  433   4.176   4.407  13.334
    7AGLC    O5  434   3.980   4.472  13.305
    7AGLC    C2  435   4.015   4.633  13.479
    7AGLC    H2  436   3.912   4.610  13.514
    7AGLC    O2  437   4.038   4.770  13.513
    7AGLC   HO2  438   4.121   4.797  13.475
    7AGLC    C3  439   4.111   4.540  13.550
    7AGLC    H3  440   4.211   4.560  13.507
    7AGLC    O3  441   4.116   4.561  13.694
    7AGLC    C4  442   4.070   4.398  13.516
    7AGLC    H4  443   3.965   4.382  13.549
    7AGLC    O4  444   4.152   4.301  13.580
    7AGLC   HO4  445   4.102   4.220  13.592
    7AGLC    C6  446   4.049   4.239  13.315
    7AGLC   H61  447   4.066   4.241  13.205
    7AGLC   H62  448   4.124   4.169  13.357
    7AGLC    O6  449   3.917   4.188  13.338
    7AGLC   HO6  450   3.885   4.163  13.251
    8AGLC    C1  451   4.247   4.583  13.741
    8AGLC    H1  452   4.318   4.516  13.688
    8AGLC    C5  453   4.210   4.817  13.783
    8AGLC    H5  454   4.103   4.804  13.753
    8AGLC    O5  455   4.291   4.717  13.719
    8AGLC    C2  456   4.258   4.559  13.890
    8AGLC    H2  457   4.364   4.574  13.919
    8AGLC    O2  458   4.217   4.427  13.927
    8AGLC    C3  459   4.174   4.658  13.969
    8AGLC    H3  460   4.069   4.647  13.934
    8AGLC    O3  461   4.177   4.620  14.109
    8AGLC    C4  462   4.220   4.798  13.934
    8AGLC    H4  463   4.326   4.814  13.962
    8AGLC    O4  464   4.140   4.895  14.001
    8AGLC   HO4  465   4.141   4.971  13.941
    8AGLC    C6  466   4.259   4.949  13.723
    8AGLC   H61  467   4.365   4.938  13.694
    8AGLC   H62  468   4.204   4.967  13.629
    8AGLC    O6  469   4.247   5.064  13.808
    8AGLC   HO6  470   4.280   5.136  13.753
    9AGAL    C1  471   4.296   4.321  13.881
    9AGAL    H1  472   4.302   4.320  13.770
    9AGAL    C5  473   4.432   4.337  14.074
    9AGAL    H5  474   4.364   4.419  14.107
    9AGAL    O5  475   4.430   4.331  13.931
    9AGAL    C2  476   4.231   4.193  13.928
    9AGAL    H2  477   4.288   4.107  13.888
    9AGAL    O2  478   4.102   4.197  13.863
    9AGAL    C3  479   4.233   4.190  14.080
    9AGAL    H3  480   4.171   4.274  14.119
    9AGAL    O3  481   4.179   4.068  14.133
    9AGAL   HO3  482   4.239   3.998  14.105
    9AGAL    C4  483   4.375   4.207  14.131
    9AGAL    H4  484   4.369   4.219  14.241
    9AGAL    O4  485   4.459   4.094  14.107
    9AGAL   HO4  486   4.512   4.107  14.029
    9AGAL    C6  487   4.570   4.378  14.127
    9AGAL   H61  488   4.560   4.474  14.182
    9AGAL   H62  489   4.605   4.302  14.200
    9AGAL    O6  490   4.670   4.396  14.027
    9AGAL   HO6  491   4.627   4.411  13.942
   10AGAL    C1  492   3.987   4.137  13.919
   10AGAL    H1  493   4.011   4.031  13.941
   10AGAL    C5  494   3.904   4.340  14.016
   10AGAL    H5  495   3.986   4.391  13.961
   10AGAL    O5  496   3.944   4.203  14.040
   10AGAL    C2  497   3.874   4.140  13.817
   10AGAL    H2  498   3.789   4.081  13.858
   10AGAL    O2  499   3.912   4.075  13.695
   10AGAL   HO2  500   3.843   4.086  13.629
   10AGAL    C3  501   3.826   4.282  13.791
   10AGAL    H3  502   3.912   4.341  13.751
   10AGAL    O3  503   3.720   4.287  13.695
   10AGAL   HO3  504   3.747   4.329  13.613
   10AGAL    C4  505   3.783   4.344  13.923
   10AGAL    H4  506   3.755   4.450  13.905
   10AGAL    O4  507   3.671   4.277  13.980
   10AGAL   HO4  508   3.609   4.257  13.910
   10AGAL    C6  509   3.891   4.415  14.148
   10AGAL   H61  510   3.993   4.433  14.187
   10AGAL   H62  511   3.843   4.514  14.131
   10AGAL    O6  512   3.819   4.342  14.247
   10AGAL   HO6  513   3.818   4.251  14.216
   11BGLC    C1  514   4.262   4.688  14.199
   11BGLC    H1  515   4.225   4.792  14.214
   11BGLC    C5  516   4.485   4.756  14.248
   11BGLC    H5  517   4.448   4.859  14.264
   11BGLC    O5  518   4.398   4.687  14.156
   11BGLC    C2  519   4.253   4.612  14.332
   11BGLC    H2  520   4.289   4.508  14.313
   11BGLC    O2  521   4.120   4.603  14.380
   11BGLC   HO2  522   4.060   4.609  14.305
   11BGLC    C3  523   4.343   4.676  14.435
   11BGLC    H3  524   4.306   4.778  14.459
   11BGLC    O3  525   4.353   4.596  14.554
   11BGLC    C4  526   4.483   4.682  14.381
   11BGLC    H4  527   4.521   4.579  14.366
   11BGLC    O4  528   4.568   4.746  14.476
   11BGLC   HO4  529   4.548   4.706  14.561
   11BGLC    C6  530   4.623   4.764  14.186
   11BGLC   H61  531   4.695   4.801  14.262
   11BGLC   H62  532   4.659   4.665  14.152
   11BGLC    O6  533   4.626   4.856  14.076
   11BGLC   HO6  534   4.595   4.813  13.996
   12BGLCN   C1  535   4.288   4.641  14.670
   12BGLCN   H1  536   4.178   4.646  14.653
   12BGLCN   C5  537   4.284   4.812  14.837
   12BGLCN   H5  538   4.174   4.824  14.826
   12BGLCN   O5  539   4.341   4.767  14.713
   12BGLCN   C2  540   4.324   4.537  14.775
   12BGLCN   H2  541   4.434   4.547  14.789
   12BGLCN    N  542   4.299   4.401  14.728
   12BGLCN   HN  543   4.223   4.390  14.665
   12BGLCN    C  544   4.382   4.298  14.751
   12BGLCN    O  545   4.481   4.306  14.822
   12BGLCN   CT  546   4.342   4.166  14.689
   12BGLCN  HT1  547   4.339   4.088  14.767
   12BGLCN  HT2  548   4.418   4.136  14.613
   12BGLCN  HT3  549   4.243   4.174  14.640
   12BGLCN   C3  550   4.259   4.573  14.908
   12BGLCN   H3  551   4.149   4.576  14.894
   12BGLCN   O3  552   4.293   4.478  15.012
   12BGLCN   C4  553   4.312   4.710  14.947
   12BGLCN   H4  554   4.422   4.702  14.960
   12BGLCN   O4  555   4.257   4.755  15.070
   12BGLCN  HO4  556   4.320   4.742  15.141
   12BGLCN   C6  557   4.351   4.945  14.864
   12BGLCN  H61  558   4.347   4.969  14.973
   12BGLCN  H62  559   4.458   4.942  14.835
   12BGLCN   O6  560   4.286   5.052  14.795
   12BGLCN  HO6  561   4.298   5.041  14.700
   13AGAL    C1  562   4.192   4.452  15.109
   13AGAL    H1  563   4.139   4.545  15.138
   13AGAL    C5  564   4.158   4.232  15.024
   13AGAL    H5  565   4.240   4.257  14.953
   13AGAL    O5  566   4.096   4.356  15.062
   13AGAL    C2  567   4.256   4.390  15.233
   13AGAL    H2  568   4.175   4.364  15.304
   13AGAL    O2  569   4.345   4.483  15.297
   13AGAL    C3  570   4.328   4.262  15.196
   13AGAL    H3  571   4.400   4.285  15.115
   13AGAL    O3  572   4.405   4.210  15.304
   13AGAL   HO3  573   4.496   4.202  15.275
   13AGAL    C4  574   4.225   4.163  15.142
   13AGAL    H4  575   4.279   4.073  15.105
   13AGAL    O4  576   4.130   4.120  15.239
   13AGAL   HO4  577   4.063   4.188  15.247
   13AGAL    C6  578   4.062   4.148  14.941
   13AGAL   H61  579   4.018   4.212  14.862
   13AGAL   H62  580   4.118   4.067  14.891
   13AGAL    O6  581   3.957   4.090  15.018
   13AGAL   HO6  582   3.997   4.036  15.086
   14ARHM    C1  583   4.307   4.534  15.423
   14ARHM    H1  584   4.197   4.528  15.436
   14ARHM    C5  585   4.482   4.692  15.407
   14ARHM    H5  586   4.510   4.655  15.306
   14ARHM    O5  587   4.342   4.672  15.430
   14ARHM    C2  588   4.379   4.455  15.532
   14ARHM    H2  589   4.351   4.348  15.519
   14ARHM    O2  590   4.352   4.492  15.669
   14ARHM    C3  591   4.528   4.470  15.510
   14ARHM    H3  592   4.555   4.428  15.411
   14ARHM    O3  593   4.600   4.398  15.611
   14ARHM   HO3  594   4.544   4.399  15.689
   14ARHM    C4  595   4.563   4.617  15.512
   14ARHM    H4  596   4.538   4.660  15.612
   14ARHM    O4  597   4.703   4.633  15.490
   14ARHM   HO4  598   4.747   4.564  15.539
   14ARHM    C6  599   4.498   4.845  15.406
   14ARHM   H61  600   4.426   4.891  15.335
   14ARHM   H62  601   4.478   4.887  15.507
   14ARHM   H63  602   4.601   4.872  15.372
   15ARHM    C1  603   4.217   4.505  15.704
   15ARHM    H1  604   4.152   4.444  15.638
   15ARHM    C5  605   4.246   4.729  15.788
   15ARHM    H5  606   4.355   4.725  15.763
   15ARHM    O5  607   4.174   4.643  15.698
   15ARHM    C2  608   4.200   4.455  15.847
   15ARHM    H2  609   4.239   4.351  15.852
   15ARHM    O2  610   4.058   4.452  15.872
   15ARHM    C3  611   4.278   4.542  15.942
   15ARHM    H3  612   4.384   4.541  15.909
   15ARHM    O3  613   4.273   4.486  16.073
   15ARHM    C4  614   4.225   4.683  15.932
   15ARHM    H4  615   4.116   4.684  15.952
   15ARHM    O4  616   4.287   4.771  16.026
   15ARHM   HO4  617   4.277   4.861  15.994
   15ARHM    C6  618   4.198   4.872  15.761
   15ARHM   H61  619   4.254   4.946  15.822
   15ARHM   H62  620   4.214   4.897  15.654
   15ARHM   H63  621   4.089   4.882  15.782
   16BMANN   C1  622   4.011   4.412  15.998
   16BMANN   H1  623   4.036   4.489  16.073
   16BMANN   C5  624   4.013   4.247  16.169
   16BMANN   H5  625   4.043   4.325  16.243
   16BMANN   O5  626   4.061   4.284  16.038
   16BMANN   C2  627   3.860   4.404  15.984
   16BMANN   H2  628   3.824   4.506  15.959
   16BMANN    N  629   3.820   4.312  15.878
   16BMANN   HN  630   3.819   4.215  15.899
   16BMANN    C  631   3.783   4.350  15.755
   16BMANN    O  632   3.776   4.468  15.721
   16BMANN   CT  633   3.753   4.240  15.658
   16BMANN  HT1  634   3.645   4.240  15.632
   16BMANN  HT2  635   3.780   4.141  15.701
   16BMANN  HT3  636   3.813   4.256  15.565
   16BMANN   C3  637   3.803   4.368  16.120
   16BMANN   H3  638   3.831   4.447  16.193
   16BMANN   O3  639   3.660   4.365  16.113
   16BMANN  HO3  640   3.626   4.454  16.100
   16BMANN   C4  641   3.861   4.236  16.167
   16BMANN   H4  642   3.832   4.155  16.097
   16BMANN   O4  643   3.814   4.201  16.298
   16BMANN  HO4  644   3.726   4.163  16.288
   16BMANN   C6  645   4.083   4.118  16.206
   16BMANN  H61  646   4.049   4.083  16.306
   16BMANN  H62  647   4.058   4.039  16.132
   16BMANN   O6  648   4.225   4.134  16.210
   16BMANN  HO6  649   4.252   4.177  16.128
   17BGLCN   C1  650   4.390   4.501  16.149
   17BGLCN   H1  651   4.440   4.598  16.128
   17BGLCN   C5  652   4.597   4.402  16.213
   17BGLCN   H5  653   4.647   4.500  16.196
   17BGLCN   O5  654   4.481   4.392  16.128
   17BGLCN   C2  655   4.340   4.497  16.292
   17BGLCN   H2  656   4.298   4.396  16.310
   17BGLCN    N  657   4.231   4.592  16.310
   17BGLCN   HN  658   4.227   4.666  16.243
   17BGLCN    C  659   4.134   4.579  16.401
   17BGLCN    O  660   4.127   4.486  16.481
   17BGLCN   CT  661   4.028   4.686  16.402
   17BGLCN  HT1  662   3.948   4.659  16.330
   17BGLCN  HT2  663   4.072   4.784  16.374
   17BGLCN  HT3  664   3.984   4.692  16.504
   17BGLCN   C3  665   4.460   4.516  16.383
   17BGLCN   H3  666   4.514   4.606  16.347
   17BGLCN   O3  667   4.422   4.540  16.520
   17BGLCN   C4  668   4.551   4.396  16.359
   17BGLCN   H4  669   4.492   4.304  16.373
   17BGLCN   O4  670   4.662   4.390  16.447
   17BGLCN  HO4  671   4.659   4.305  16.492
   17BGLCN   C6  672   4.695   4.293  16.173
   17BGLCN  H61  673   4.781   4.292  16.243
   17BGLCN  H62  674   4.645   4.194  16.178
   17BGLCN   O6  675   4.745   4.315  16.041
   17BGLCN  HO6  676   4.674   4.299  15.978
   18AGAL    C1  677   4.510   4.620  16.595
   18AGAL    H1  678   4.605   4.566  16.613
   18AGAL    C5  679   4.423   4.826  16.509
   18AGAL    H5  680   4.350   4.765  16.451
   18AGAL    O5  681   4.540   4.746  16.531
   18AGAL    C2  682   4.449   4.654  16.730
   18AGAL    H2  683   4.523   4.721  16.778
   18AGAL    O2  684   4.434   4.538  16.813
   18AGAL    C3  685   4.319   4.731  16.711
   18AGAL    H3  686   4.251   4.670  16.648
   18AGAL    O3  687   4.253   4.757  16.835
   18AGAL   HO3  688   4.158   4.758  16.822
   18AGAL    C4  689   4.352   4.861  16.640
   18AGAL    H4  690   4.257   4.914  16.615
   18AGAL    O4  691   4.429   4.947  16.723
   18AGAL   HO4  692   4.402   4.927  16.813
   18AGAL    C6  693   4.457   4.943  16.417
   18AGAL   H61  694   4.489   4.903  16.319
   18AGAL   H62  695   4.367   5.005  16.400
   18AGAL    O6  696   4.562   5.028  16.466
   18AGAL   HO6  697   4.639   4.976  16.488
   19ARHM    C1  698   4.469   4.566  16.946
   19ARHM    H1  699   4.431   4.666  16.977
   19ARHM    C5  700   4.671   4.441  16.931
   19ARHM    H5  701   4.649   4.418  16.825
   19ARHM    O5  702   4.611   4.566  16.967
   19ARHM    C2  703   4.406   4.460  17.033
   19ARHM    H2  704   4.300   4.450  17.001
   19ARHM    O2  705   4.406   4.500  17.172
   19ARHM    C3  706   4.466   4.325  17.004
   19ARHM    H3  707   4.443   4.298  16.898
   19ARHM    O3  708   4.411   4.224  17.088
   19ARHM   HO3  709   4.473   4.151  17.083
   19ARHM    C4  710   4.616   4.332  17.021
   19ARHM    H4  711   4.639   4.358  17.126
   19ARHM    O4  712   4.677   4.205  16.992
   19ARHM   HO4  713   4.679   4.191  16.897
   19ARHM    C6  714   4.823   4.461  16.945
   19ARHM   H61  715   4.858   4.541  16.876
   19ARHM   H62  716   4.849   4.489  17.049
   19ARHM   H63  717   4.876   4.367  16.919
   20ARHM    C1  718   4.306   4.595  17.202
   20ARHM    H1  719   4.230   4.598  17.121
   20ARHM    C5  720   4.448   4.747  17.321
   20ARHM    H5  721   4.541   4.689  17.302
   20ARHM    O5  722   4.356   4.730  17.213
   20ARHM    C2  723   4.240   4.554  17.331
   20ARHM    H2  724   4.210   4.447  17.324
   20ARHM    O2  725   4.123   4.632  17.358
   20ARHM    C3  726   4.337   4.566  17.445
   20ARHM    H3  727   4.421   4.495  17.430
   20ARHM    O3  728   4.264   4.532  17.563
   20ARHM    C4  729   4.386   4.708  17.454
   20ARHM    H4  730   4.299   4.774  17.474
   20ARHM    O4  731   4.480   4.724  17.561
   20ARHM   HO4  732   4.562   4.681  17.537
   20ARHM    C6  733   4.479   4.898  17.316
   20ARHM   H61  734   4.384   4.956  17.318
   20ARHM   H62  735   4.541   4.930  17.402
   20ARHM   H63  736   4.532   4.923  17.221
   21BMANN   C1  737   4.018   4.614  17.267
   21BMANN   H1  738   4.033   4.525  17.202
   21BMANN   C5  739   3.891   4.724  17.096
   21BMANN   H5  740   3.908   4.638  17.027
   21BMANN   O5  741   4.002   4.733  17.188
   21BMANN   C2  742   3.895   4.597  17.352
   21BMANN   H2  743   3.908   4.504  17.410
   21BMANN    N  744   3.888   4.706  17.449
   21BMANN   HN  745   3.961   4.773  17.437
   21BMANN    C  746   3.810   4.714  17.557
   21BMANN    O  747   3.715   4.639  17.577
   21BMANN   CT  748   3.847   4.822  17.655
   21BMANN  HT1  749   3.788   4.914  17.634
   21BMANN  HT2  750   3.956   4.845  17.648
   21BMANN  HT3  751   3.826   4.787  17.758
   21BMANN   C3  752   3.777   4.579  17.259
   21BMANN   H3  753   3.798   4.493  17.192
   21BMANN   O3  754   3.659   4.546  17.330
   21BMANN  HO3  755   3.663   4.590  17.415
   21BMANN   C4  756   3.761   4.702  17.173
   21BMANN   H4  757   3.741   4.791  17.236
   21BMANN   O4  758   3.653   4.687  17.080
   21BMANN  HO4  759   3.573   4.669  17.130
   21BMANN   C6  760   3.889   4.852  17.015
   21BMANN  H61  761   3.805   4.850  16.942
   21BMANN  H62  762   3.873   4.939  17.083
   21BMANN   O6  763   4.010   4.871  16.943
   21BMANN  HO6  764   4.082   4.872  17.006
   22BGLCN   C1  765   4.334   4.462  17.661
   22BGLCN   H1  766   4.443   4.485  17.657
   22BGLCN   C5  767   4.375   4.247  17.751
   22BGLCN   H5  768   4.484   4.270  17.751
   22BGLCN   O5  769   4.312   4.322  17.647
   22BGLCN   C2  770   4.274   4.513  17.790
   22BGLCN   H2  771   4.166   4.489  17.789
   22BGLCN    N  772   4.286   4.659  17.796
   22BGLCN   HN  773   4.354   4.699  17.735
   22BGLCN    C  774   4.204   4.742  17.862
   22BGLCN    O  775   4.109   4.706  17.930
   22BGLCN   CT  776   4.235   4.889  17.848
   22BGLCN  HT1  777   4.146   4.942  17.808
   22BGLCN  HT2  778   4.321   4.904  17.778
   22BGLCN  HT3  779   4.260   4.931  17.948
   22BGLCN   C3  780   4.340   4.440  17.905
   22BGLCN   H3  781   4.448   4.460  17.898
   22BGLCN   O3  782   4.291   4.497  18.027
   22BGLCN   C4  783   4.317   4.290  17.886
   22BGLCN   H4  784   4.208   4.270  17.885
   22BGLCN   O4  785   4.376   4.212  17.990
   22BGLCN  HO4  786   4.308   4.159  18.032
   22BGLCN   C6  787   4.360   4.099  17.719
   22BGLCN  H61  788   4.385   4.037  17.808
   22BGLCN  H62  789   4.254   4.077  17.692
   22BGLCN   O6  790   4.447   4.058  17.612
   22BGLCN  HO6  791   4.394   4.049  17.532
   23AGAL    C1  792   4.359   4.471  18.147
   23AGAL    H1  793   4.339   4.366  18.178
   23AGAL    C5  794   4.538   4.626  18.109
   23AGAL    H5  795   4.490   4.657  18.014
   23AGAL    O5  796   4.501   4.489  18.136
   23AGAL    C2  797   4.303   4.561  18.257
   23AGAL    H2  798   4.351   4.531  18.353
   23AGAL    O2  799   4.160   4.547  18.268
   23AGAL    C3  800   4.338   4.706  18.230
   23AGAL    H3  801   4.289   4.737  18.135
   23AGAL    O3  802   4.290   4.790  18.335
   23AGAL   HO3  803   4.363   4.795  18.397
   23AGAL    C4  804   4.488   4.720  18.218
   23AGAL    H4  805   4.512   4.824  18.188
   23AGAL    O4  806   4.553   4.695  18.343
   23AGAL   HO4  807   4.640   4.661  18.321
   23AGAL    C6  808   4.689   4.634  18.085
   23AGAL   H61  809   4.716   4.568  18.000
   23AGAL   H62  810   4.717   4.738  18.058
   23AGAL    O6  811   4.766   4.594  18.200
   23AGAL   HO6  812   4.854   4.564  18.176
   24ARHM    C1  813   4.112   4.453  18.360
   24ARHM    H1  814   4.188   4.372  18.371
   24ARHM    C5  815   3.884   4.480  18.298
   24ARHM    H5  816   3.913   4.558  18.224
   24ARHM    O5  817   3.993   4.388  18.315
   24ARHM    C2  818   4.091   4.522  18.493
   24ARHM    H2  819   4.182   4.581  18.517
   24ARHM    O2  820   4.069   4.427  18.599
   24ARHM    C3  821   3.978   4.621  18.481
   24ARHM    H3  822   4.005   4.698  18.405
   24ARHM    O3  823   3.954   4.687  18.605
   24ARHM   HO3  824   3.861   4.711  18.605
   24ARHM    C4  825   3.854   4.547  18.432
   24ARHM    H4  826   3.831   4.467  18.505
   24ARHM    O4  827   3.738   4.631  18.426
   24ARHM   HO4  828   3.730   4.674  18.340
   24ARHM    C6  829   3.766   4.401  18.240
   24ARHM   H61  830   3.680   4.468  18.219
   24ARHM   H62  831   3.797   4.352  18.145
   24ARHM   H63  832   3.733   4.322  18.312
   25ARHM    C1  833   4.186   4.372  18.654
   25ARHM    H1  834   4.271   4.391  18.584
   25ARHM    C5  835   4.084   4.189  18.765
   25ARHM    H5  836   3.984   4.227  18.737
   25ARHM    O5  837   4.180   4.229  18.666
   25ARHM    C2  838   4.220   4.439  18.785
   25ARHM    H2  839   4.212   4.550  18.773
   25ARHM    O2  840   4.351   4.404  18.831
   25ARHM    C3  841   4.121   4.399  18.890
   25ARHM    H3  842   4.020   4.432  18.858
   25ARHM    O3  843   4.157   4.463  19.013
   25ARHM    C4  844   4.124   4.248  18.900
   25ARHM    H4  845   4.229   4.217  18.921
   25ARHM    O4  846   4.045   4.198  19.007
   25ARHM   HO4  847   4.099   4.128  19.046
   25ARHM    C6  848   4.079   4.035  18.762
   25ARHM   H61  849   4.055   4.000  18.660
   25ARHM   H62  850   4.177   3.993  18.793
   25ARHM   H63  851   4.001   3.998  18.832
   26BMANN   C1  852   4.456   4.477  18.773
   26BMANN   H1  853   4.418   4.573  18.731
   26BMANN   C5  854   4.629   4.475  18.610
   26BMANN   H5  855   4.586   4.566  18.564
   26BMANN   O5  856   4.522   4.401  18.671
   26BMANN   C2  857   4.556   4.505  18.883
   26BMANN   H2  858   4.503   4.564  18.961
   26BMANN    N  859   4.606   4.381  18.941
   26BMANN   HN  860   4.631   4.311  18.875
   26BMANN    C  861   4.620   4.357  19.072
   26BMANN    O  862   4.589   4.437  19.159
   26BMANN   CT  863   4.674   4.221  19.108
   26BMANN  HT1  864   4.651   4.148  19.028
   26BMANN  HT2  865   4.629   4.188  19.204
   26BMANN  HT3  866   4.785   4.228  19.121
   26BMANN   C3  867   4.664   4.593  18.823
   26BMANN   H3  868   4.615   4.681  18.775
   26BMANN   O3  869   4.752   4.645  18.922
   26BMANN  HO3  870   4.732   4.739  18.929
   26BMANN   C4  871   4.734   4.516  18.712
   26BMANN   H4  872   4.785   4.427  18.755
   26BMANN   O4  873   4.831   4.597  18.646
   26BMANN  HO4  874   4.914   4.591  18.694
   26BMANN   C6  875   4.686   4.389  18.499
   26BMANN  H61  876   4.604   4.352  18.434
   26BMANN  H62  877   4.754   4.450  18.435
   26BMANN   O6  878   4.760   4.277  18.550
   26BMANN  HO6  879   4.849   4.306  18.570
   27BGLCN   C1  880   4.048   4.512  19.087
   27BGLCN   H1  881   3.960   4.446  19.074
   27BGLCN   C5  882   3.908   4.701  19.124
   27BGLCN   H5  883   3.818   4.640  19.105
   27BGLCN   O5  884   4.019   4.647  19.049
   27BGLCN   C2  885   4.093   4.510  19.231
   27BGLCN   H2  886   4.176   4.584  19.241
   27BGLCN    N  887   4.148   4.380  19.267
   27BGLCN   HN  888   4.124   4.305  19.205
   27BGLCN    C  889   4.243   4.358  19.359
   27BGLCN    O  890   4.285   4.445  19.435
   27BGLCN   CT  891   4.298   4.219  19.367
   27BGLCN  HT1  892   4.216   4.144  19.361
   27BGLCN  HT2  893   4.353   4.207  19.463
   27BGLCN  HT3  894   4.369   4.203  19.283
   27BGLCN   C3  895   3.978   4.559  19.318
   27BGLCN   H3  896   3.891   4.492  19.300
   27BGLCN   O3  897   4.021   4.547  19.454
   27BGLCN   C4  898   3.942   4.700  19.273
   27BGLCN   H4  899   4.029   4.766  19.291
   27BGLCN   O4  900   3.830   4.752  19.345
   27BGLCN  HO4  901   3.755   4.693  19.336
   27BGLCN   C6  902   3.884   4.842  19.072
   27BGLCN  H61  903   3.802   4.890  19.130
   27BGLCN  H62  904   3.976   4.902  19.087
   27BGLCN   O6  905   3.849   4.845  18.933
   27BGLCN  HO6  906   3.766   4.890  18.920
   28AGAL    C1  907   3.926   4.561   0.085
   28AGAL    H1  908   3.899   4.668   0.095
   28AGAL    C5  909   3.838   4.341   0.050
   28AGAL    H5  910   3.915   4.326  19.444
   28AGAL    O5  911   3.808   4.482   0.060
   28AGAL    C2  912   3.986   4.517   0.217
   28AGAL    H2  913   3.904   4.528   0.291
   28AGAL    O2  914   4.099   4.597   0.260
   28AGAL    C3  915   4.023   4.370   0.210
   28AGAL    H3  916   4.096   4.356   0.128
   28AGAL    O3  917   4.085   4.325   0.331
   28AGAL   HO3  918   4.177   4.352   0.331
   28AGAL    C4  919   3.899   4.288   0.180
   28AGAL    H4  920   3.930   4.183   0.163
   28AGAL    O4  921   3.807   4.288   0.289
   28AGAL   HO4  922   3.860   4.283   0.369
   28AGAL    C6  923   3.715   4.265   0.000
   28AGAL   H61  924   3.686   4.305  19.373
   28AGAL   H62  925   3.741   4.158  19.459
   28AGAL    O6  926   3.602   4.275   0.087
   28AGAL   HO6  927   3.632   4.312   0.171
   29ARHM    C1  928   4.092   4.639   0.395
   29ARHM    H1  929   4.023   4.571   0.450
   29ARHM    C5  930   4.132   4.871   0.351
   29ARHM    H5  931   4.140   4.854   0.242
   29ARHM    O5  932   4.043   4.773   0.408
   29ARHM    C2  933   4.228   4.627   0.459
   29ARHM    H2  934   4.266   4.524   0.440
   29ARHM    O2  935   4.218   4.649   0.602
   29ARHM    C3  936   4.325   4.724   0.397
   29ARHM    H3  937   4.333   4.702   0.288
   29ARHM    O3  938   4.455   4.711   0.454
   29ARHM   HO3  939   4.505   4.785   0.421
   29ARHM    C4  940   4.270   4.863   0.415
   29ARHM    H4  941   4.258   4.884   0.523
   29ARHM    O4  942   4.360   4.962   0.364
   29ARHM   HO4  943   4.341   4.986   0.273
   29ARHM    C6  944   4.063   5.007   0.376
   29ARHM   H61  945   3.965   5.010   0.324
   29ARHM   H62  946   4.049   5.023   0.485
   29ARHM   H63  947   4.127   5.090   0.337
   30ARHM    C1  948   4.226   4.532   0.678
   30ARHM    H1  949   4.316   4.474   0.647
   30ARHM    C5  950   3.989   4.511   0.707
   30ARHM    H5  951   3.972   4.605   0.652
   30ARHM    O5  952   4.110   4.449   0.661
   30ARHM    C2  953   4.241   4.568   0.824
   30ARHM    H2  954   4.327   4.637   0.835
   30ARHM    O2  955   4.261   4.450   0.902
   30ARHM    C3  956   4.117   4.636   0.877
   30ARHM    H3  957   4.099   4.726   0.813
   30ARHM    O3  958   4.141   4.685   1.011
   30ARHM    C4  959   3.997   4.545   0.855
   30ARHM    H4  960   4.009   4.450   0.912
   30ARHM    O4  961   3.875   4.606   0.894
   30ARHM   HO4  962   3.877   4.699   0.871
   30ARHM    C6  963   3.876   4.413   0.671
   30ARHM   H61  964   3.777   4.454   0.702
   30ARHM   H62  965   3.874   4.394   0.562
   30ARHM   H63  966   3.891   4.316   0.724
   31BMANN   C1  967   4.393   4.408   0.924
   31BMANN   H1  968   4.462   4.494   0.939
   31BMANN   C5  969   4.567   4.261   0.850
   31BMANN   H5  970   4.640   4.343   0.867
   31BMANN   O5  971   4.438   4.320   0.821
   31BMANN   C2  972   4.375   4.327   1.050
   31BMANN   H2  973   4.344   4.397   1.130
   31BMANN    N  974   4.271   4.226   1.035
   31BMANN   HN  975   4.247   4.201   0.941
   31BMANN    C  976   4.205   4.171   1.137
   31BMANN    O  977   4.228   4.203   1.252
   31BMANN   CT  978   4.101   4.068   1.103
   31BMANN  HT1  979   4.142   3.994   1.030
   31BMANN  HT2  980   4.011   4.117   1.058
   31BMANN  HT3  981   4.070   4.014   1.195
   31BMANN   C3  982   4.510   4.272   1.088
   31BMANN   H3  983   4.583   4.355   1.094
   31BMANN   O3  984   4.507   4.217   1.219
   31BMANN  HO3  985   4.418   4.185   1.240
   31BMANN   C4  986   4.558   4.178   0.978
   31BMANN   H4  987   4.484   4.097   0.962
   31BMANN   O4  988   4.683   4.117   1.009
   31BMANN  HO4  989   4.663   4.028   1.039
   31BMANN   C6  990   4.613   4.182   0.728
   31BMANN  H61  991   4.705   4.125   0.753
   31BMANN  H62  992   4.534   4.110   0.698
   31BMANN   O6  993   4.643   4.267   0.617
   31BMANN  HO6  994   4.704   4.336   0.644
   32BGLCN   C1  995   4.112   4.598   1.119
   32BGLCN   H1  996   4.146   4.494   1.096
   32BGLCN   C5  997   3.939   4.501   1.250
   32BGLCN   H5  998   3.980   4.401   1.225
   32BGLCN   O5  999   3.973   4.594   1.146
   32BGLCN   C2 1000   4.183   4.648   1.244
   32BGLCN   H2 1001   4.136   4.746   1.270
   32BGLCN    N 1002   4.324   4.670   1.218
   32BGLCN   HN 1003   4.370   4.602   1.160
   32BGLCN    C 1004   4.394   4.777   1.259
   32BGLCN    O 1005   4.348   4.863   1.333
   32BGLCN   CT 1006   4.535   4.786   1.208
   32BGLCN  HT1 1007   4.553   4.713   1.127
   32BGLCN  HT2 1008   4.606   4.767   1.291
   32BGLCN  HT3 1009   4.553   4.889   1.169
   32BGLCN   C3 1010   4.155   4.550   1.357
   32BGLCN   H3 1011   4.185   4.450   1.321
   32BGLCN   O3 1012   4.229   4.578   1.478
   32BGLCN   C4 1013   4.004   4.548   1.379
   32BGLCN   H4 1014   3.971   4.652   1.401
   32BGLCN   O4 1015   3.964   4.467   1.488
   32BGLCN  HO4 1016   3.891   4.511   1.532
   32BGLCN   C6 1017   3.788   4.488   1.249
   32BGLCN  H61 1018   3.754   4.424   1.333
   32BGLCN  H62 1019   3.742   4.588   1.262
   32BGLCN   O6 1020   3.744   4.431   1.126
   32BGLCN  HO6 1021   3.771   4.490   1.055
   33AGAL    C1 1022   4.282   4.460   1.536
   33AGAL    H1 1023   4.208   4.377   1.527
   33AGAL    C5 1024   4.509   4.519   1.487
   33AGAL    H5 1025   4.472   4.617   1.450
   33AGAL    O5 1026   4.404   4.421   1.471
   33AGAL    C2 1027   4.314   4.477   1.684
   33AGAL    H2 1028   4.357   4.380   1.716
   33AGAL    O2 1029   4.194   4.499   1.760
   33AGAL    C3 1030   4.419   4.585   1.705
   33AGAL    H3 1031   4.381   4.679   1.661
   33AGAL    O3 1032   4.446   4.610   1.843
   33AGAL   HO3 1033   4.510   4.544   1.869
   33AGAL    C4 1034   4.545   4.542   1.633
   33AGAL    H4 1035   4.619   4.624   1.640
   33AGAL    O4 1036   4.604   4.426   1.691
   33AGAL   HO4 1037   4.641   4.373   1.621
   33AGAL    C6 1038   4.628   4.482   1.401
   33AGAL   H61 1039   4.601   4.493   1.294
   33AGAL   H62 1040   4.712   4.552   1.421
   33AGAL    O6 1041   4.674   4.348   1.422
   33AGAL   HO6 1042   4.617   4.288   1.374
   34ARHM    C1 1043   4.189   4.424   1.878
   34ARHM    H1 1044   4.284   4.436   1.934
   34ARHM    C5 1045   4.047   4.256   1.783
   34ARHM    H5 1046   4.048   4.307   1.684
   34ARHM    O5 1047   4.169   4.284   1.853
   34ARHM    C2 1048   4.074   4.477   1.961
   34ARHM    H2 1049   4.087   4.587   1.972
   34ARHM    O2 1050   4.068   4.418   2.091
   34ARHM    C3 1051   3.943   4.453   1.890
   34ARHM    H3 1052   3.944   4.507   1.793
   34ARHM    O3 1053   3.833   4.503   1.967
   34ARHM   HO3 1054   3.753   4.483   1.918
   34ARHM    C4 1055   3.927   4.305   1.863
   34ARHM    H4 1056   3.926   4.250   1.960
   34ARHM    O4 1057   3.805   4.277   1.794
   34ARHM   HO4 1058   3.776   4.188   1.814
   34ARHM    C6 1059   4.047   4.104   1.759
   34ARHM   H61 1060   4.048   4.050   1.856
   34ARHM   H62 1061   3.958   4.073   1.701
   34ARHM   H63 1062   4.138   4.075   1.702
   35ARHM    C1 1063   4.176   4.442   2.177
   35ARHM    H1 1064   4.223   4.540   2.154
   35ARHM    C5 1065   4.219   4.207   2.199
   35ARHM    H5 1066   4.141   4.183   2.123
   35ARHM    O5 1067   4.274   4.337   2.171
   35ARHM    C2 1068   4.111   4.446   2.314
   35ARHM    H2 1069   4.030   4.522   2.311
   35ARHM    O2 1070   4.199   4.481   2.422
   35ARHM    C3 1071   4.048   4.312   2.341
   35ARHM    H3 1072   3.976   4.287   2.260
   35ARHM    O3 1073   3.970   4.315   2.460
   35ARHM   HO3 1074   4.028   4.308   2.536
   35ARHM    C4 1075   4.155   4.205   2.338
   35ARHM    H4 1076   4.234   4.230   2.412
   35ARHM    O4 1077   4.107   4.075   2.372
   35ARHM   HO4 1078   4.021   4.059   2.330
   35ARHM    C6 1079   4.333   4.105   2.181
   35ARHM   H61 1080   4.370   4.108   2.076
   35ARHM   H62 1081   4.417   4.129   2.250
   35ARHM   H63 1082   4.297   4.003   2.203
   36BMANN   C1 1083   4.246   4.613   2.420
   36BMANN   H1 1084   4.167   4.683   2.384
   36BMANN   C5 1085   4.418   4.755   2.334
   36BMANN   H5 1086   4.340   4.824   2.296
   36BMANN   O5 1087   4.364   4.622   2.339
   36BMANN   C2 1088   4.286   4.648   2.562
   36BMANN   H2 1089   4.192   4.645   2.622
   36BMANN    N 1090   4.378   4.551   2.618
   36BMANN   HN 1091   4.429   4.497   2.552
   36BMANN    C 1092   4.397   4.533   2.750
   36BMANN    O 1093   4.333   4.596   2.833
   36BMANN   CT 1094   4.501   4.432   2.790
   36BMANN  HT1 1095   4.599   4.460   2.746
   36BMANN  HT2 1096   4.472   4.331   2.755
   36BMANN  HT3 1097   4.511   4.432   2.900
   36BMANN   C3 1098   4.337   4.791   2.563
   36BMANN   H3 1099   4.258   4.857   2.522
   36BMANN   O3 1100   4.364   4.838   2.695
   36BMANN  HO3 1101   4.357   4.765   2.757
   36BMANN   C4 1102   4.459   4.801   2.473
   36BMANN   H4 1103   4.539   4.735   2.512
   36BMANN   O4 1104   4.509   4.934   2.469
   36BMANN  HO4 1105   4.500   4.969   2.558
   36BMANN   C6 1106   4.532   4.755   2.233
   36BMANN  H61 1107   4.492   4.719   2.135
   36BMANN  H62 1108   4.568   4.858   2.218
   36BMANN   O6 1109   4.641   4.670   2.270
   36BMANN  HO6 1110   4.696   4.715   2.335
    1ECLIP HB6S 1111   3.437   3.221  11.813
    1ECLIP  OB6 1112   3.274   3.288  11.926
    1ECLIP  CB6 1113   3.332   3.192  11.834
    1ECLIP HB6R 1114   3.332   3.090  11.880
    1ECLIP  CB5 1115   3.258   3.178  11.703
    1ECLIP  OB5 1116   3.245   3.308  11.641
    1ECLIP  HB5 1117   3.157   3.141  11.728
    1ECLIP  CB1 1118   3.155   3.308  11.531
    1ECLIP  HB1 1119   3.048   3.296  11.560
    1ECLIP  OA6 1120   3.178   3.423  11.454
    1ECLIP  CA6 1121   3.117   3.547  11.496
    1ECLIP HA6R 1122   3.157   3.578  11.595
    1ECLIP HA6S 1123   3.007   3.535  11.507
    1ECLIP  CB4 1124   3.321   3.082  11.600
    1ECLIP  HB4 1125   3.411   3.134  11.562
    1ECLIP  OB4 1126   3.363   2.957  11.657
    1ECLIP   PB 1127   3.515   2.892  11.641
    1ECLIP OPB4 1128   3.566   2.844  11.776
    1ECLIP OPB3 1129   3.615   2.989  11.580
    1ECLIP OPB2 1130   3.514   2.778  11.540
    1ECLIP  CB3 1131   3.220   3.069  11.487
    1ECLIP  OB3 1132   3.278   2.998  11.378
    1ECLIP  HB3 1133   3.123   3.029  11.523
    1ECLIP  C71 1134   3.230   2.879  11.347
    1ECLIP  O71 1135   3.132   2.827  11.396
    1ECLIP  C72 1136   3.275   2.847  11.205
    1ECLIP H72R 1137   3.228   2.919  11.135
    1ECLIP H72S 1138   3.240   2.744  11.181
    1ECLIP  CB2 1139   3.203   3.207  11.429
    1ECLIP  HB2 1140   3.309   3.233  11.405
    1ECLIP  NB2 1141   3.125   3.214  11.304
    1ECLIP HNB2 1142   3.035   3.173  11.305
    1ECLIP  CA4 1143   3.033   3.711  11.314
    1ECLIP  HA4 1144   2.985   3.624  11.265
    1ECLIP  OA4 1145   2.940   3.772  11.404
    1ECLIP HOA4 1146   2.939   3.867  11.390
    1ECLIP  CA5 1147   3.150   3.655  11.391
    1ECLIP  HA5 1148   3.204   3.738  11.441
    1ECLIP  OA5 1149   3.234   3.591  11.292
    1ECLIP  CA1 1150   3.291   3.678  11.193
    1ECLIP  HA1 1151   3.340   3.609  11.121
    1ECLIP  OA1 1152   3.394   3.761  11.247
    1ECLIP OPA2 1153   3.450   3.635  11.456
    1ECLIP OPA3 1154   3.538   3.551  11.252
    1ECLIP OPA4 1155   3.629   3.774  11.345
    1ECLIP   PA 1156   3.514   3.681  11.327
    1ECLIP  CA3 1157   3.079   3.808  11.206
    1ECLIP  HA3 1158   3.131   3.893  11.254
    1ECLIP  OA3 1159   2.965   3.860  11.136
    1ECLIP  C31 1160   2.886   3.775  11.071
    1ECLIP  O31 1161   2.914   3.725  10.962
    1ECLIP  C32 1162   2.743   3.780  11.125
    1ECLIP H32R 1163   2.679   3.821  11.044
    1ECLIP H32S 1164   2.739   3.850  11.211
    1ECLIP  CA2 1165   3.176   3.737  11.113
    1ECLIP  HA2 1166   3.123   3.650  11.068
    1ECLIP  NA2 1167   3.220   3.820  11.002
    1ECLIP HNA2 1168   3.189   3.914  11.005
    1ECLIP  C73 1169   3.428   2.856  11.199
    1ECLIP H73R 1170   3.468   2.807  11.291
    1ECLIP  O73 1171   3.464   2.994  11.189
    1ECLIP  C81 1172   3.581   3.024  11.243
    1ECLIP  O81 1173   3.651   2.945  11.305
    1ECLIP  C82 1174   3.626   3.163  11.201
    1ECLIP H82R 1175   3.735   3.170  11.223
    1ECLIP H82S 1176   3.573   3.238  11.263
    1ECLIP  C83 1177   3.602   3.190  11.051
    1ECLIP H83R 1178   3.493   3.189  11.031
    1ECLIP H83S 1179   3.648   3.109  10.991
    1ECLIP  C84 1180   3.660   3.323  11.003
    1ECLIP H84R 1181   3.770   3.321  11.009
    1ECLIP H84S 1182   3.623   3.407  11.066
    1ECLIP  C85 1183   3.616   3.348  10.858
    1ECLIP H85R 1184   3.506   3.361  10.856
    1ECLIP H85S 1185   3.642   3.258  10.799
    1ECLIP  C86 1186   3.679   3.472  10.792
    1ECLIP H86R 1187   3.789   3.456  10.783
    1ECLIP H86S 1188   3.663   3.560  10.858
    1ECLIP  C87 1189   3.620   3.501  10.653
    1ECLIP H87R 1190   3.683   3.578  10.602
    1ECLIP H87S 1191   3.519   3.545  10.667
    1ECLIP  C88 1192   3.608   3.375  10.566
    1ECLIP H88R 1193   3.532   3.310  10.613
    1ECLIP H88S 1194   3.704   3.320  10.565
    1ECLIP  C89 1195   3.561   3.401  10.422
    1ECLIP H89R 1196   3.487   3.484  10.419
    1ECLIP H89S 1197   3.508   3.309  10.388
    1ECLIP C810 1198   3.675   3.426  10.323
    1ECLIPH810R 1199   3.761   3.360  10.347
    1ECLIPH810S 1200   3.709   3.531  10.337
    1ECLIP C811 1201   3.632   3.404  10.177
    1ECLIPH811R 1202   3.708   3.449  10.111
    1ECLIPH811S 1203   3.535   3.457  10.162
    1ECLIP C812 1204   3.613   3.257  10.134
    1ECLIPH812R 1205   3.579   3.257  10.029
    1ECLIPH812S 1206   3.534   3.209  10.195
    1ECLIP C813 1207   3.742   3.174  10.145
    1ECLIPH813R 1208   3.827   3.235  10.110
    1ECLIPH813S 1209   3.760   3.150  10.252
    1ECLIP C814 1210   3.737   3.044  10.063
    1ECLIPH814R 1211   3.717   3.067   9.956
    1ECLIPH814S 1212   3.656   2.977  10.101
    1ECLIPH814T 1213   3.833   2.990  10.071
    1ECLIP  C74 1214   3.489   2.782  11.077
    1ECLIP H74R 1215   3.452   2.677  11.074
    1ECLIP H74S 1216   3.599   2.777  11.096
    1ECLIP  C75 1217   3.471   2.848  10.939
    1ECLIP H75R 1218   3.555   2.815  10.874
    1ECLIP H75S 1219   3.478   2.958  10.947
    1ECLIP  C76 1220   3.341   2.811  10.866
    1ECLIP H76R 1221   3.252   2.849  10.922
    1ECLIP H76S 1222   3.333   2.700  10.862
    1ECLIP  C77 1223   3.337   2.866  10.723
    1ECLIP H77R 1224   3.432   2.842  10.671
    1ECLIP H77S 1225   3.327   2.977  10.727
    1ECLIP  C78 1226   3.220   2.807  10.644
    1ECLIP H78R 1227   3.234   2.698  10.634
    1ECLIP H78S 1228   3.127   2.823  10.704
    1ECLIP  C79 1229   3.197   2.868  10.505
    1ECLIP H79R 1230   3.168   2.975  10.515
    1ECLIP H79S 1231   3.111   2.815  10.459
    1ECLIP C710 1232   3.315   2.857  10.408
    1ECLIPH710R 1233   3.397   2.924  10.442
    1ECLIPH710S 1234   3.353   2.753  10.408
    1ECLIP C711 1235   3.271   2.896  10.267
    1ECLIPH711R 1236   3.188   2.828  10.236
    1ECLIPH711S 1237   3.229   3.000  10.269
    1ECLIP C712 1238   3.384   2.891  10.163
    1ECLIPH712R 1239   3.420   2.786  10.155
    1ECLIPH712S 1240   3.468   2.953  10.201
    1ECLIP C713 1241   3.341   2.943  10.025
    1ECLIPH713R 1242   3.315   3.050  10.035
    1ECLIPH713S 1243   3.428   2.936   9.956
    1ECLIP C714 1244   3.222   2.868   9.964
    1ECLIPH714R 1245   3.246   2.760   9.952
    1ECLIPH714S 1246   3.133   2.878  10.029
    1ECLIPH714T 1247   3.196   2.910   9.864
    1ECLIP  C51 1248   3.166   3.284  11.196
    1ECLIP  O51 1249   3.279   3.335  11.196
    1ECLIP  C52 1250   3.064   3.306  11.085
    1ECLIP H52R 1251   3.007   3.213  11.070
    1ECLIP H52S 1252   2.993   3.384  11.121
    1ECLIP  C53 1253   3.120   3.354  10.948
    1ECLIP H53R 1254   3.186   3.442  10.962
    1ECLIP  O53 1255   3.003   3.386  10.873
    1ECLIP  C61 1256   3.006   3.493  10.793
    1ECLIP  O61 1257   3.108   3.546  10.752
    1ECLIP  C62 1258   2.873   3.496  10.716
    1ECLIP H62R 1259   2.791   3.509  10.789
    1ECLIP H62S 1260   2.862   3.397  10.666
    1ECLIP  C63 1261   2.867   3.611  10.611
    1ECLIP H63R 1262   2.955   3.604  10.544
    1ECLIP H63S 1263   2.874   3.707  10.665
    1ECLIP  C64 1264   2.739   3.611  10.525
    1ECLIP H64R 1265   2.740   3.702  10.462
    1ECLIP H64S 1266   2.650   3.616  10.592
    1ECLIP  C65 1267   2.727   3.487  10.435
    1ECLIP H65R 1268   2.714   3.399  10.501
    1ECLIP H65S 1269   2.821   3.472  10.379
    1ECLIP  C66 1270   2.607   3.491  10.339
    1ECLIP H66R 1271   2.515   3.516  10.397
    1ECLIP H66S 1272   2.592   3.390  10.297
    1ECLIP  C67 1273   2.620   3.588  10.220
    1ECLIP H67R 1274   2.614   3.693  10.257
    1ECLIP H67S 1275   2.533   3.572  10.154
    1ECLIP  C68 1276   2.749   3.572  10.139
    1ECLIP H68R 1277   2.773   3.464  10.127
    1ECLIP H68S 1278   2.833   3.619  10.194
    1ECLIP  C69 1279   2.736   3.635  10.000
    1ECLIP H69R 1280   2.683   3.732  10.011
    1ECLIP H69S 1281   2.674   3.570   9.936
    1ECLIP C610 1282   2.870   3.662   9.932
    1ECLIPH610R 1283   2.928   3.568   9.921
    1ECLIPH610S 1284   2.929   3.729   9.999
    1ECLIP C611 1285   2.853   3.732   9.795
    1ECLIPH611R 1286   2.745   3.754   9.784
    1ECLIPH611S 1287   2.906   3.829   9.798
    1ECLIP C612 1288   2.900   3.652   9.673
    1ECLIPH612R 1289   3.011   3.642   9.671
    1ECLIPH612S 1290   2.857   3.550   9.674
    1ECLIPH612T 1291   2.869   3.703   9.579
    1ECLIP  C54 1292   3.198   3.240  10.877
    1ECLIP H54R 1293   3.132   3.152  10.865
    1ECLIP H54S 1294   3.281   3.210  10.946
    1ECLIP  C55 1295   3.263   3.274  10.741
    1ECLIP H55R 1296   3.352   3.208  10.728
    1ECLIP H55S 1297   3.300   3.378  10.743
    1ECLIP  C56 1298   3.172   3.253  10.619
    1ECLIP H56R 1299   3.083   3.318  10.626
    1ECLIP H56S 1300   3.135   3.148  10.618
    1ECLIP  C57 1301   3.244   3.286  10.487
    1ECLIP H57R 1302   3.328   3.215  10.474
    1ECLIP H57S 1303   3.286   3.389  10.496
    1ECLIP  C58 1304   3.153   3.282  10.364
    1ECLIP H58R 1305   3.111   3.179  10.354
    1ECLIP H58S 1306   3.068   3.352  10.379
    1ECLIP  C59 1307   3.226   3.319  10.234
    1ECLIP H59R 1308   3.318   3.257  10.227
    1ECLIP H59S 1309   3.258   3.425  10.239
    1ECLIP C510 1310   3.142   3.295  10.107
    1ECLIPH510R 1311   3.047   3.351  10.114
    1ECLIPH510S 1312   3.118   3.187  10.103
    1ECLIP C511 1313   3.215   3.333   9.977
    1ECLIPH511R 1314   3.213   3.444   9.965
    1ECLIPH511S 1315   3.322   3.303   9.988
    1ECLIP C512 1316   3.159   3.264   9.852
    1ECLIPH512R 1317   3.226   3.284   9.766
    1ECLIPH512S 1318   3.159   3.154   9.870
    1ECLIP C513 1319   3.017   3.308   9.814
    1ECLIPH513R 1320   3.019   3.416   9.789
    1ECLIPH513S 1321   2.950   3.296   9.902
    1ECLIP C514 1322   2.958   3.229   9.696
    1ECLIPH514R 1323   2.954   3.121   9.720
    1ECLIPH514S 1324   2.855   3.264   9.674
    1ECLIPH514T 1325   3.020   3.243   9.605
    1ECLIP  C33 1326   2.687   3.641  11.167
    1ECLIP H33R 1327   2.579   3.650  11.189
    1ECLIP  O33 1328   2.752   3.597  11.284
    1ECLIP HO33 1329   2.763   3.664  11.353
    1ECLIP  C34 1330   2.709   3.531  11.061
    1ECLIP H34R 1331   2.817   3.525  11.035
    1ECLIP H34S 1332   2.653   3.559  10.969
    1ECLIP  C35 1333   2.672   3.386  11.102
    1ECLIP H35R 1334   2.565   3.383  11.132
    1ECLIP H35S 1335   2.733   3.357  11.189
    1ECLIP  C36 1336   2.700   3.291  10.985
    1ECLIP H36R 1337   2.797   3.323  10.941
    1ECLIP H36S 1338   2.623   3.307  10.906
    1ECLIP  C37 1339   2.717   3.141  11.016
    1ECLIP H37R 1340   2.617   3.095  11.027
    1ECLIP H37S 1341   2.771   3.129  11.113
    1ECLIP  C38 1342   2.797   3.068  10.905
    1ECLIP H38R 1343   2.901   3.105  10.906
    1ECLIP H38S 1344   2.799   2.959  10.927
    1ECLIP  C39 1345   2.738   3.092  10.765
    1ECLIP H39R 1346   2.729   3.202  10.750
    1ECLIP H39S 1347   2.636   3.049  10.762
    1ECLIP C310 1348   2.819   3.039  10.646
    1ECLIPH310R 1349   2.774   2.942  10.616
    1ECLIPH310S 1350   2.925   3.021  10.675
    1ECLIP C311 1351   2.814   3.137  10.528
    1ECLIPH311R 1352   2.713   3.183  10.527
    1ECLIPH311S 1353   2.888   3.218  10.544
    1ECLIP C312 1354   2.835   3.074  10.389
    1ECLIPH312R 1355   2.937   3.031  10.383
    1ECLIPH312S 1356   2.761   2.993  10.376
    1ECLIP C313 1357   2.814   3.177  10.277
    1ECLIPH313R 1358   2.711   3.219  10.289
    1ECLIPH313S 1359   2.885   3.261  10.291
    1ECLIP C314 1360   2.827   3.122  10.135
    1ECLIPH314R 1361   2.744   3.052  10.114
    1ECLIPH314S 1362   2.822   3.205  10.061
    1ECLIPH314T 1363   2.924   3.069  10.123
    1ECLIP  C11 1364   3.297   3.775  10.902
    1ECLIP  O11 1365   3.332   3.658  10.893
    1ECLIP  C12 1366   3.345   3.876  10.801
    1ECLIP H12R 1367   3.453   3.893  10.822
    1ECLIP H12S 1368   3.291   3.972  10.813
    1ECLIP  C13 1369   3.329   3.822  10.657
    1ECLIP H13R 1370   3.359   3.715  10.652
    1ECLIP  O13 1371   3.418   3.896  10.575
    1ECLIP HO13 1372   3.415   3.867  10.484
    1ECLIP  C14 1373   3.187   3.838  10.599
    1ECLIP H14R 1374   3.148   3.937  10.632
    1ECLIP H14S 1375   3.121   3.761  10.644
    1ECLIP  C15 1376   3.177   3.833  10.444
    1ECLIP H15R 1377   3.232   3.921  10.404
    1ECLIP H15S 1378   3.071   3.847  10.415
    1ECLIP  C16 1379   3.231   3.705  10.378
    1ECLIP H16R 1380   3.146   3.634  10.370
    1ECLIP H16S 1381   3.307   3.655  10.442
    1ECLIP  C17 1382   3.292   3.730  10.239
    1ECLIP H17R 1383   3.231   3.809  10.189
    1ECLIP H17S 1384   3.283   3.638  10.179
    1ECLIP  C18 1385   3.440   3.774  10.242
    1ECLIP H18R 1386   3.447   3.864  10.306
    1ECLIP H18S 1387   3.501   3.694  10.289
    1ECLIP  C19 1388   3.499   3.810  10.104
    1ECLIP H19R 1389   3.595   3.863  10.119
    1ECLIP H19S 1390   3.429   3.881  10.055
    1ECLIP C110 1391   3.524   3.689  10.012
    1ECLIPH110R 1392   3.609   3.631  10.054
    1ECLIPH110S 1393   3.434   3.623  10.014
    1ECLIP C111 1394   3.557   3.725   9.867
    1ECLIPH111R 1395   3.486   3.803   9.832
    1ECLIPH111S 1396   3.659   3.770   9.863
    1ECLIP C112 1397   3.549   3.604   9.771
    1ECLIPH112R 1398   3.648   3.586   9.725
    1ECLIPH112S 1399   3.521   3.513   9.828
    1ECLIP C113 1400   3.445   3.626   9.660
    1ECLIPH113R 1401   3.346   3.641   9.708
    1ECLIPH113S 1402   3.473   3.719   9.606
    1ECLIP C114 1403   3.428   3.514   9.557
    1ECLIPH114R 1404   3.522   3.504   9.498
    1ECLIPH114S 1405   3.405   3.418   9.607
    1ECLIPH114T 1406   3.345   3.538   9.487
    2AKDO    C1 1407   3.083   3.157  11.993
    2AKDO   O11 1408   3.094   3.034  11.969
    2AKDO   O12 1409   2.977   3.225  12.000
    2AKDO    C2 1410   3.212   3.232  12.041
    2AKDO    C6 1411   3.421   3.202  12.152
    2AKDO    H6 1412   3.459   3.260  12.065
    2AKDO    O6 1413   3.299   3.139  12.109
    2AKDO    C3 1414   3.183   3.346  12.141
    2AKDO   H31 1415   3.129   3.305  12.229
    2AKDO   H32 1416   3.117   3.421  12.093
    2AKDO    C4 1417   3.306   3.413  12.193
    2AKDO    H4 1418   3.360   3.458  12.107
    2AKDO    O4 1419   3.272   3.511  12.291
    2AKDO    C5 1420   3.397   3.310  12.260
    2AKDO    H5 1421   3.493   3.365  12.273
    2AKDO    O5 1422   3.350   3.268  12.391
    2AKDO    C7 1423   3.524   3.091  12.169
    2AKDO    H7 1424   3.497   3.023  12.252
    2AKDO    O7 1425   3.653   3.151  12.191
    2AKDO   HO7 1426   3.662   3.212  12.118
    2AKDO    C8 1427   3.528   3.011  12.039
    2AKDO   H81 1428   3.428   2.963  12.024
    2AKDO   H82 1429   3.546   3.079  11.954
    2AKDO    O8 1430   3.624   2.905  12.029
    2AKDO   HO8 1431   3.605   2.874  11.940
    3AKDO    C1 1432   3.327   3.700  12.141
    3AKDO   O11 1433   3.274   3.720  12.029
    3AKDO   O12 1434   3.451   3.705  12.168
    3AKDO    C2 1435   3.237   3.644  12.256
    3AKDO    C6 1436   3.006   3.621  12.333
    3AKDO    H6 1437   3.019   3.511  12.347
    3AKDO    O6 1438   3.096   3.665  12.228
    3AKDO    C3 1439   3.269   3.715  12.388
    3AKDO   H31 1440   3.255   3.824  12.374
    3AKDO   H32 1441   3.376   3.698  12.413
    3AKDO    C4 1442   3.184   3.665  12.500
    3AKDO    H4 1443   3.195   3.555  12.511
    3AKDO    O4 1444   3.227   3.724  12.623
    3AKDO   HO4 1445   3.278   3.659  12.671
    3AKDO    C5 1446   3.038   3.692  12.465
    3AKDO    H5 1447   2.975   3.649  12.546
    3AKDO    O5 1448   3.008   3.831  12.457
    3AKDO   HO5 1449   3.045   3.863  12.374
    3AKDO    C7 1450   2.862   3.647  12.291
    3AKDO    H7 1451   2.846   3.756  12.278
    3AKDO    O7 1452   2.769   3.599  12.390
    3AKDO   HO7 1453   2.696   3.580  12.331
    3AKDO    C8 1454   2.827   3.579  12.161
    3AKDO   H81 1455   2.896   3.612  12.080
    3AKDO   H82 1456   2.835   3.469  12.169
    3AKDO    O8 1457   2.692   3.613  12.124
    3AKDO   HO8 1458   2.699   3.678  12.054
    4AHEP    C1 1459   3.451   3.222  12.479
    4AHEP    H1 1460   3.491   3.129  12.433
    4AHEP    C5 1461   3.541   3.425  12.570
    4AHEP    H5 1462   3.448   3.473  12.531
    4AHEP    O5 1463   3.566   3.309  12.488
    4AHEP    C2 1464   3.408   3.178  12.621
    4AHEP    H2 1465   3.310   3.128  12.608
    4AHEP    O2 1466   3.496   3.081  12.679
    4AHEP   HO2 1467   3.462   2.993  12.661
    4AHEP    C3 1468   3.383   3.296  12.715
    4AHEP    H3 1469   3.298   3.356  12.676
    4AHEP    O3 1470   3.358   3.249  12.851
    4AHEP    C4 1471   3.511   3.380  12.715
    4AHEP    H4 1472   3.596   3.314  12.745
    4AHEP    O4 1473   3.498   3.493  12.802
    4AHEP    P4 1474   3.606   3.515  12.926
    4AHEP  OP42 1475   3.573   3.647  12.994
    4AHEP  OP43 1476   3.745   3.517  12.866
    4AHEP  OP44 1477   3.594   3.400  13.024
    4AHEP    C6 1478   3.651   3.530  12.553
    4AHEP    H6 1479   3.619   3.622  12.605
    4AHEP    O6 1480   3.775   3.487  12.612
    4AHEP   HO6 1481   3.758   3.493  12.706
    4AHEP    C7 1482   3.676   3.566  12.407
    4AHEP   H71 1483   3.745   3.653  12.401
    4AHEP   H72 1484   3.580   3.596  12.360
    4AHEP    O7 1485   3.732   3.457  12.331
    4AHEP   HO7 1486   3.688   3.382  12.370
    5AHEP    C1 1487   3.238   3.290  12.915
    5AHEP    H1 1488   3.204   3.385  12.869
    5AHEP    C5 1489   3.166   3.064  12.960
    5AHEP    H5 1490   3.259   3.026  12.913
    5AHEP    O5 1491   3.135   3.192  12.902
    5AHEP    C2 1492   3.253   3.313  13.065
    5AHEP    H2 1493   3.339   3.383  13.077
    5AHEP    O2 1494   3.137   3.380  13.116
    5AHEP   HO2 1495   3.156   3.474  13.116
    5AHEP    C3 1496   3.289   3.184  13.139
    5AHEP    H3 1497   3.389   3.150  13.105
    5AHEP    O3 1498   3.290   3.208  13.283
    5AHEP    C4 1499   3.185   3.077  13.113
    5AHEP    H4 1500   3.089   3.100  13.165
    5AHEP    O4 1501   3.237   2.949  13.151
    5AHEP    P4 1502   3.232   2.855  13.285
    5AHEP  OP42 1503   3.331   2.743  13.256
    5AHEP  OP43 1504   3.093   2.798  13.307
    5AHEP  OP44 1505   3.287   2.932  13.404
    5AHEP    C6 1506   3.048   2.978  12.912
    5AHEP    H6 1507   3.074   2.872  12.928
    5AHEP    O6 1508   2.930   3.008  12.990
    5AHEP   HO6 1509   2.939   3.103  13.001
    5AHEP    C7 1510   3.017   3.004  12.763
    5AHEP   H71 1511   2.996   2.905  12.717
    5AHEP   H72 1512   3.106   3.044  12.710
    5AHEP    O7 1513   2.900   3.086  12.739
    6AHEP    C1 1514   2.929   3.211  12.679
    6AHEP    H1 1515   3.021   3.257  12.722
    6AHEP    C5 1516   2.837   3.150  12.467
    6AHEP    H5 1517   2.811   3.052  12.512
    6AHEP    O5 1518   2.951   3.202  12.539
    6AHEP    C2 1519   2.812   3.304  12.707
    6AHEP    H2 1520   2.793   3.299  12.817
    6AHEP    O2 1521   2.843   3.442  12.680
    6AHEP   HO2 1522   2.844   3.458  12.585
    6AHEP    C3 1523   2.689   3.254  12.635
    6AHEP    H3 1524   2.668   3.151  12.671
    6AHEP    O3 1525   2.571   3.331  12.662
    6AHEP   HO3 1526   2.525   3.327  12.578
    6AHEP    C4 1527   2.719   3.244  12.487
    6AHEP    H4 1528   2.747   3.345  12.448
    6AHEP    O4 1529   2.603   3.201  12.415
    6AHEP   HO4 1530   2.614   3.222  12.322
    6AHEP    C6 1531   2.871   3.125  12.320
    6AHEP    H6 1532   2.783   3.083  12.269
    6AHEP    O6 1533   2.897   3.250  12.256
    6AHEP   HO6 1534   2.922   3.232  12.165
    6AHEP    C7 1535   2.987   3.027  12.301
    6AHEP   H71 1536   2.999   3.004  12.193
    6AHEP   H72 1537   2.961   2.931  12.350
    6AHEP    O7 1538   3.114   3.067  12.355
    6AHEP   HO7 1539   3.153   3.125  12.290
    7AGLC    C1 1540   3.407   3.263  13.339
    7AGLC    H1 1541   3.495   3.209  13.297
    7AGLC    C5 1542   3.319   3.486  13.369
    7AGLC    H5 1543   3.220   3.451  13.335
    7AGLC    O5 1544   3.422   3.403  13.312
    7AGLC    C2 1545   3.407   3.249  13.492
    7AGLC    H2 1546   3.503   3.292  13.527
    7AGLC    O2 1547   3.408   3.114  13.536
    7AGLC   HO2 1548   3.348   3.062  13.482
    7AGLC    C3 1549   3.296   3.329  13.559
    7AGLC    H3 1550   3.200   3.296  13.513
    7AGLC    O3 1551   3.289   3.315  13.703
    7AGLC    C4 1552   3.321   3.474  13.521
    7AGLC    H4 1553   3.423   3.502  13.556
    7AGLC    O4 1554   3.229   3.564  13.580
    7AGLC   HO4 1555   3.276   3.647  13.593
    7AGLC    C6 1556   3.340   3.627  13.319
    7AGLC   H61 1557   3.348   3.626  13.208
    7AGLC   H62 1558   3.253   3.690  13.346
    7AGLC    O6 1559   3.459   3.685  13.373
    7AGLC   HO6 1560   3.531   3.651  13.320
    8AGLC    C1 1561   3.160   3.280  13.750
    8AGLC    H1 1562   3.084   3.340  13.696
    8AGLC    C5 1563   3.224   3.052  13.791
    8AGLC    H5 1564   3.328   3.083  13.766
    8AGLC    O5 1565   3.133   3.142  13.725
    8AGLC    C2 1566   3.145   3.300  13.901
    8AGLC    H2 1567   3.041   3.272  13.927
    8AGLC    O2 1568   3.168   3.434  13.946
    8AGLC    C3 1569   3.239   3.211  13.978
    8AGLC    H3 1570   3.342   3.234  13.942
    8AGLC    O3 1571   3.237   3.245  14.119
    8AGLC    C4 1572   3.210   3.067  13.943
    8AGLC    H4 1573   3.105   3.042  13.969
    8AGLC    O4 1574   3.296   2.975  14.009
    8AGLC   HO4 1575   3.290   2.898  13.953
    8AGLC    C6 1576   3.205   2.914  13.731
    8AGLC   H61 1577   3.130   2.918  13.649
    8AGLC   H62 1578   3.300   2.883  13.681
    8AGLC    O6 1579   3.168   2.814  13.826
    8AGLC   HO6 1580   3.154   2.734  13.775
    9AGAL    C1 1581   3.089   3.536  13.889
    9AGAL    H1 1582   3.092   3.534  13.778
    9AGAL    C5 1583   2.937   3.532  14.072
    9AGAL    H5 1584   3.002   3.453  14.116
    9AGAL    O5 1585   2.951   3.527  13.930
    9AGAL    C2 1586   3.148   3.667  13.936
    9AGAL    H2 1587   3.095   3.751  13.886
    9AGAL    O2 1588   3.282   3.660  13.884
    9AGAL    C3 1589   3.134   3.680  14.087
    9AGAL    H3 1590   3.192   3.598  14.135
    9AGAL    O3 1591   3.184   3.804  14.137
    9AGAL   HO3 1592   3.133   3.873  14.093
    9AGAL    C4 1593   2.987   3.666  14.125
    9AGAL    H4 1594   2.980   3.665  14.236
    9AGAL    O4 1595   2.909   3.777  14.078
    9AGAL   HO4 1596   2.868   3.752  13.995
    9AGAL    C6 1597   2.795   3.491  14.109
    9AGAL   H61 1598   2.771   3.397  14.056
    9AGAL   H62 1599   2.791   3.472  14.218
    9AGAL    O6 1600   2.693   3.587  14.079
    9AGAL   HO6 1601   2.703   3.617  13.989
   10AGAL    C1 1602   3.389   3.739  13.929
   10AGAL    H1 1603   3.359   3.845  13.935
   10AGAL    C5 1604   3.480   3.555  14.053
   10AGAL    H5 1605   3.394   3.494  14.017
   10AGAL    O5 1606   3.440   3.693  14.057
   10AGAL    C2 1607   3.500   3.723  13.825
   10AGAL    H2 1608   3.585   3.788  13.857
   10AGAL    O2 1609   3.457   3.769  13.697
   10AGAL   HO2 1610   3.535   3.792  13.644
   10AGAL    C3 1611   3.548   3.578  13.818
   10AGAL    H3 1612   3.463   3.514  13.786
   10AGAL    O3 1613   3.654   3.560  13.724
   10AGAL   HO3 1614   3.622   3.572  13.634
   10AGAL    C4 1615   3.594   3.534  13.955
   10AGAL    H4 1616   3.618   3.426  13.950
   10AGAL    O4 1617   3.714   3.603  13.994
   10AGAL   HO4 1618   3.761   3.622  13.912
   10AGAL    C6 1619   3.509   3.506  14.194
   10AGAL   H61 1620   3.421   3.526  14.260
   10AGAL   H62 1621   3.526   3.397  14.192
   10AGAL    O6 1622   3.625   3.570  14.249
   10AGAL   HO6 1623   3.677   3.590  14.171
   11BGLC    C1 1624   3.150   3.178  14.207
   11BGLC    H1 1625   3.176   3.070  14.213
   11BGLC    C5 1626   2.922   3.134  14.267
   11BGLC    H5 1627   2.944   3.025  14.271
   11BGLC    O5 1628   3.012   3.197  14.173
   11BGLC    C2 1629   3.175   3.246  14.342
   11BGLC    H2 1630   3.150   3.353  14.331
   11BGLC    O2 1631   3.312   3.237  14.383
   11BGLC   HO2 1632   3.365   3.255  14.305
   11BGLC    C3 1633   3.086   3.185  14.448
   11BGLC    H3 1634   3.114   3.080  14.469
   11BGLC    O3 1635   3.088   3.267  14.567
   11BGLC    C4 1636   2.944   3.197  14.403
   11BGLC    H4 1637   2.918   3.305  14.395
   11BGLC    O4 1638   2.857   3.137  14.499
   11BGLC   HO4 1639   2.862   3.189  14.580
   11BGLC    C6 1640   2.777   3.153  14.227
   11BGLC   H61 1641   2.710   3.102  14.299
   11BGLC   H62 1642   2.752   3.261  14.234
   11BGLC    O6 1643   2.745   3.111  14.095
   11BGLC   HO6 1644   2.781   3.024  14.076
   12BGLCN   C1 1645   3.156   3.224  14.681
   12BGLCN   H1 1646   3.265   3.229  14.665
   12BGLCN   C5 1647   3.162   3.052  14.849
   12BGLCN   H5 1648   3.273   3.053  14.848
   12BGLCN   O5 1649   3.113   3.092  14.720
   12BGLCN   C2 1650   3.107   3.325  14.784
   12BGLCN   H2 1651   2.997   3.308  14.789
   12BGLCN    N 1652   3.126   3.463  14.741
   12BGLCN   HN 1653   3.212   3.486  14.695
   12BGLCN    C 1654   3.030   3.556  14.749
   12BGLCN    O 1655   2.923   3.537  14.806
   12BGLCN   CT 1656   3.060   3.689  14.685
   12BGLCN  HT1 1657   3.056   3.770  14.761
   12BGLCN  HT2 1658   2.985   3.710  14.606
   12BGLCN  HT3 1659   3.161   3.688  14.639
   12BGLCN   C3 1660   3.162   3.292  14.922
   12BGLCN   H3 1661   3.272   3.294  14.917
   12BGLCN   O3 1662   3.117   3.386  15.021
   12BGLCN   C4 1663   3.112   3.152  14.953
   12BGLCN   H4 1664   3.001   3.154  14.945
   12BGLCN   O4 1665   3.141   3.108  15.086
   12BGLCN  HO4 1666   3.226   3.142  15.114
   12BGLCN   C6 1667   3.113   2.910  14.870
   12BGLCN  H61 1668   3.128   2.880  14.976
   12BGLCN  H62 1669   3.005   2.903  14.848
   12BGLCN   O6 1670   3.184   2.817  14.789
   12BGLCN  HO6 1671   3.162   2.832  14.696
   13AGAL    C1 1672   3.210   3.422  15.122
   13AGAL    H1 1673   3.268   3.334  15.155
   13AGAL    C5 1674   3.231   3.648  15.042
   13AGAL    H5 1675   3.159   3.622  14.961
   13AGAL    O5 1676   3.299   3.527  15.079
   13AGAL    C2 1677   3.133   3.478  15.241
   13AGAL    H2 1678   3.210   3.516  15.311
   13AGAL    O2 1679   3.058   3.377  15.309
   13AGAL    C3 1680   3.050   3.598  15.200
   13AGAL    H3 1681   2.989   3.569  15.111
   13AGAL    O3 1682   2.957   3.639  15.300
   13AGAL   HO3 1683   2.869   3.615  15.270
   13AGAL    C4 1684   3.146   3.707  15.156
   13AGAL    H4 1685   3.088   3.793  15.116
   13AGAL    O4 1686   3.228   3.755  15.263
   13AGAL   HO4 1687   3.308   3.788  15.222
   13AGAL    C6 1688   3.330   3.745  14.980
   13AGAL   H61 1689   3.382   3.696  14.895
   13AGAL   H62 1690   3.274   3.832  14.938
   13AGAL    O6 1691   3.428   3.795  15.072
   13AGAL   HO6 1692   3.452   3.884  15.044
   14ARHM    C1 1693   3.108   3.336  15.435
   14ARHM    H1 1694   3.215   3.364  15.446
   14ARHM    C5 1695   2.971   3.146  15.426
   14ARHM    H5 1696   2.935   3.174  15.324
   14ARHM    O5 1697   3.103   3.195  15.446
   14ARHM    C2 1698   3.023   3.400  15.544
   14ARHM    H2 1699   3.030   3.511  15.531
   14ARHM    O2 1700   3.058   3.369  15.680
   14ARHM    C3 1701   2.880   3.356  15.526
   14ARHM    H3 1702   2.843   3.388  15.426
   14ARHM    O3 1703   2.798   3.418  15.625
   14ARHM   HO3 1704   2.852   3.427  15.704
   14ARHM    C4 1705   2.876   3.204  15.532
   14ARHM    H4 1706   2.911   3.171  15.632
   14ARHM    O4 1707   2.743   3.156  15.514
   14ARHM   HO4 1708   2.744   3.060  15.507
   14ARHM    C6 1709   2.993   2.994  15.428
   14ARHM   H61 1710   3.084   2.969  15.369
   14ARHM   H62 1711   3.007   2.957  15.532
   14ARHM   H63 1712   2.908   2.942  15.379
   15ARHM    C1 1713   3.194   3.371  15.715
   15ARHM    H1 1714   3.249   3.443  15.650
   15ARHM    C5 1715   3.193   3.143  15.792
   15ARHM    H5 1716   3.085   3.136  15.766
   15ARHM    O5 1717   3.255   3.241  15.707
   15ARHM    C2 1718   3.202   3.418  15.858
   15ARHM    H2 1719   3.151   3.516  15.866
   15ARHM    O2 1720   3.342   3.436  15.882
   15ARHM    C3 1721   3.135   3.320  15.951
   15ARHM    H3 1722   3.030   3.308  15.917
   15ARHM    O3 1723   3.133   3.373  16.084
   15ARHM    C4 1724   3.205   3.186  15.938
   15ARHM    H4 1725   3.313   3.198  15.963
   15ARHM    O4 1726   3.151   3.089  16.028
   15ARHM   HO4 1727   3.198   3.006  16.018
   15ARHM    C6 1728   3.256   3.007  15.761
   15ARHM   H61 1729   3.205   2.925  15.817
   15ARHM   H62 1730   3.249   2.985  15.653
   15ARHM   H63 1731   3.364   3.006  15.789
   16BMANN   C1 1732   3.382   3.486  16.006
   16BMANN   H1 1733   3.364   3.411  16.086
   16BMANN   C5 1734   3.360   3.665  16.162
   16BMANN   H5 1735   3.343   3.590  16.242
   16BMANN   O5 1736   3.317   3.610  16.036
   16BMANN   C2 1737   3.530   3.510  15.991
   16BMANN   H2 1738   3.577   3.410  15.978
   16BMANN    N 1739   3.559   3.592  15.873
   16BMANN   HN 1740   3.510   3.679  15.867
   16BMANN    C 1741   3.633   3.553  15.769
   16BMANN    O 1742   3.693   3.446  15.766
   16BMANN   CT 1743   3.635   3.646  15.651
   16BMANN  HT1 1744   3.736   3.646  15.604
   16BMANN  HT2 1745   3.609   3.750  15.682
   16BMANN  HT3 1746   3.561   3.612  15.575
   16BMANN   C3 1747   3.582   3.566  16.121
   16BMANN   H3 1748   3.560   3.493  16.201
   16BMANN   O3 1749   3.724   3.581  16.116
   16BMANN  HO3 1750   3.747   3.609  16.027
   16BMANN   C4 1751   3.510   3.695  16.156
   16BMANN   H4 1752   3.527   3.771  16.077
   16BMANN   O4 1753   3.554   3.749  16.280
   16BMANN  HO4 1754   3.631   3.805  16.265
   16BMANN   C6 1755   3.273   3.785  16.192
   16BMANN  H61 1756   3.308   3.836  16.284
   16BMANN  H62 1757   3.280   3.859  16.109
   16BMANN   O6 1758   3.137   3.746  16.210
   16BMANN  HO6 1759   3.107   3.704  16.129
   17BGLCN   C1 1760   3.018   3.341  16.157
   17BGLCN   H1 1761   2.981   3.239  16.132
   17BGLCN   C5 1762   2.798   3.410  16.213
   17BGLCN   H5 1763   2.761   3.308  16.187
   17BGLCN   O5 1764   2.915   3.438  16.136
   17BGLCN   C2 1765   3.061   3.348  16.302
   17BGLCN   H2 1766   3.086   3.454  16.323
   17BGLCN    N 1767   3.181   3.270  16.324
   17BGLCN   HN 1768   3.195   3.193  16.261
   17BGLCN    C 1769   3.277   3.302  16.412
   17BGLCN    O 1770   3.270   3.400  16.485
   17BGLCN   CT 1771   3.395   3.209  16.417
   17BGLCN  HT1 1772   3.484   3.259  16.372
   17BGLCN  HT2 1773   3.375   3.115  16.362
   17BGLCN  HT3 1774   3.418   3.184  16.523
   17BGLCN   C3 1775   2.942   3.309  16.389
   17BGLCN   H3 1776   2.908   3.209  16.356
   17BGLCN   O3 1777   2.984   3.300  16.527
   17BGLCN   C4 1778   2.832   3.411  16.362
   17BGLCN   H4 1779   2.871   3.512  16.388
   17BGLCN   O4 1780   2.716   3.388  16.440
   17BGLCN  HO4 1781   2.707   3.459  16.505
   17BGLCN   C6 1782   2.689   3.509  16.176
   17BGLCN  H61 1783   2.594   3.483  16.228
   17BGLCN  H62 1784   2.719   3.611  16.210
   17BGLCN   O6 1785   2.663   3.515  16.035
   17BGLCN  HO6 1786   2.665   3.428  15.994
   18AGAL    C1 1787   2.914   3.208  16.609
   18AGAL    H1 1788   2.807   3.239  16.619
   18AGAL    C5 1789   3.050   3.017  16.556
   18AGAL    H5 1790   3.111   3.078  16.486
   18AGAL    O5 1791   2.917   3.073  16.560
   18AGAL    C2 1792   2.976   3.208  16.748
   18AGAL    H2 1793   2.919   3.128  16.800
   18AGAL    O2 1794   2.953   3.328  16.825
   18AGAL    C3 1795   3.122   3.164  16.739
   18AGAL    H3 1796   3.172   3.227  16.662
   18AGAL    O3 1797   3.196   3.187  16.859
   18AGAL   HO3 1798   3.273   3.130  16.864
   18AGAL    C4 1799   3.122   3.020  16.692
   18AGAL    H4 1800   3.227   2.987  16.676
   18AGAL    O4 1801   3.064   2.933  16.790
   18AGAL   HO4 1802   3.074   2.841  16.765
   18AGAL    C6 1803   3.039   2.878  16.493
   18AGAL   H61 1804   3.009   2.889  16.387
   18AGAL   H62 1805   3.138   2.829  16.495
   18AGAL    O6 1806   2.944   2.793  16.558
   18AGAL   HO6 1807   2.855   2.826  16.543
   19ARHM    C1 1808   2.937   3.294  16.961
   19ARHM    H1 1809   2.994   3.203  16.988
   19ARHM    C5 1810   2.715   3.379  16.974
   19ARHM    H5 1811   2.724   3.414  16.869
   19ARHM    O5 1812   2.800   3.266  16.995
   19ARHM    C2 1813   2.989   3.407  17.046
   19ARHM    H2 1814   3.086   3.437  17.000
   19ARHM    O2 1815   3.015   3.371  17.184
   19ARHM    C3 1816   2.901   3.529  17.031
   19ARHM    H3 1817   2.903   3.563  16.925
   19ARHM    O3 1818   2.952   3.636  17.112
   19ARHM   HO3 1819   2.957   3.605  17.202
   19ARHM    C4 1820   2.758   3.491  17.068
   19ARHM    H4 1821   2.759   3.449  17.171
   19ARHM    O4 1822   2.666   3.600  17.068
   19ARHM   HO4 1823   2.670   3.649  16.986
   19ARHM    C6 1824   2.571   3.328  16.992
   19ARHM   H61 1825   2.552   3.243  16.923
   19ARHM   H62 1826   2.555   3.293  17.097
   19ARHM   H63 1827   2.498   3.409  16.967
   20ARHM    C1 1828   3.139   3.305  17.203
   20ARHM    H1 1829   3.212   3.336  17.125
   20ARHM    C5 1830   3.046   3.105  17.298
   20ARHM    H5 1831   2.940   3.135  17.282
   20ARHM    O5 1832   3.129   3.162  17.197
   20ARHM    C2 1833   3.191   3.343  17.340
   20ARHM    H2 1834   3.199   3.454  17.346
   20ARHM    O2 1835   3.320   3.288  17.369
   20ARHM    C3 1836   3.100   3.293  17.448
   20ARHM    H3 1837   2.999   3.339  17.437
   20ARHM    O3 1838   3.158   3.328  17.574
   20ARHM    C4 1839   3.093   3.143  17.438
   20ARHM    H4 1840   3.194   3.101  17.454
   20ARHM    O4 1841   3.005   3.088  17.537
   20ARHM   HO4 1842   2.996   2.995  17.519
   20ARHM    C6 1843   3.066   2.955  17.272
   20ARHM   H61 1844   3.174   2.930  17.269
   20ARHM   H62 1845   3.019   2.893  17.351
   20ARHM   H63 1846   3.022   2.927  17.173
   21BMANN   C1 1847   3.423   3.306  17.276
   21BMANN   H1 1848   3.408   3.397  17.215
   21BMANN   C5 1849   3.550   3.198  17.103
   21BMANN   H5 1850   3.534   3.286  17.038
   21BMANN   O5 1851   3.439   3.188  17.195
   21BMANN   C2 1852   3.547   3.318  17.361
   21BMANN   H2 1853   3.534   3.411  17.421
   21BMANN    N 1854   3.557   3.206  17.454
   21BMANN   HN 1855   3.507   3.125  17.426
   21BMANN    C 1856   3.617   3.210  17.573
   21BMANN    O 1857   3.678   3.309  17.613
   21BMANN   CT 1858   3.605   3.087  17.658
   21BMANN  HT1 1859   3.694   3.022  17.641
   21BMANN  HT2 1860   3.513   3.030  17.632
   21BMANN  HT3 1861   3.601   3.116  17.765
   21BMANN   C3 1862   3.666   3.336  17.271
   21BMANN   H3 1863   3.647   3.425  17.206
   21BMANN   O3 1864   3.784   3.364  17.346
   21BMANN  HO3 1865   3.777   3.322  17.432
   21BMANN   C4 1866   3.680   3.215  17.181
   21BMANN   H4 1867   3.697   3.124  17.242
   21BMANN   O4 1868   3.789   3.228  17.090
   21BMANN  HO4 1869   3.862   3.173  17.119
   21BMANN   C6 1870   3.550   3.074  17.014
   21BMANN  H61 1871   3.627   3.086  16.935
   21BMANN  H62 1872   3.578   2.984  17.074
   21BMANN   O6 1873   3.424   3.051  16.953
   21BMANN  HO6 1874   3.363   3.018  17.019
   22BGLCN   C1 1875   3.080   3.395  17.669
   22BGLCN   H1 1876   2.973   3.369  17.658
   22BGLCN   C5 1877   3.045   3.609  17.769
   22BGLCN   H5 1878   2.936   3.589  17.771
   22BGLCN   O5 1879   3.104   3.535  17.661
   22BGLCN   C2 1880   3.138   3.340  17.798
   22BGLCN   H2 1881   3.246   3.363  17.798
   22BGLCN    N 1882   3.124   3.195  17.799
   22BGLCN   HN 1883   3.058   3.157  17.735
   22BGLCN    C 1884   3.208   3.109  17.860
   22BGLCN    O 1885   3.305   3.144  17.926
   22BGLCN   CT 1886   3.176   2.964  17.841
   22BGLCN  HT1 1887   3.206   2.933  17.739
   22BGLCN  HT2 1888   3.067   2.946  17.854
   22BGLCN  HT3 1889   3.232   2.904  17.916
   22BGLCN   C3 1890   3.077   3.412  17.917
   22BGLCN   H3 1891   2.967   3.397  17.914
   22BGLCN   O3 1892   3.129   3.351  18.036
   22BGLCN   C4 1893   3.106   3.561  17.901
   22BGLCN   H4 1894   3.216   3.573  17.895
   22BGLCN   O4 1895   3.059   3.641  18.009
   22BGLCN  HO4 1896   3.129   3.703  18.030
   22BGLCN   C6 1897   3.067   3.756  17.741
   22BGLCN  H61 1898   3.018   3.818  17.820
   22BGLCN  H62 1899   3.175   3.779  17.742
   22BGLCN   O6 1900   3.012   3.793  17.614
   22BGLCN  HO6 1901   3.068   3.754  17.547
   23AGAL    C1 1902   3.060   3.370  18.157
   23AGAL    H1 1903   3.071   3.475  18.189
   23AGAL    C5 1904   2.897   3.201  18.114
   23AGAL    H5 1905   2.952   3.178  18.020
   23AGAL    O5 1906   2.920   3.339  18.146
   23AGAL    C2 1907   3.123   3.283  18.265
   23AGAL    H2 1908   3.072   3.306  18.361
   23AGAL    O2 1909   3.264   3.311  18.277
   23AGAL    C3 1910   3.101   3.136  18.235
   23AGAL    H3 1911   3.153   3.111  18.140
   23AGAL    O3 1912   3.156   3.053  18.338
   23AGAL   HO3 1913   3.091   3.051  18.408
   23AGAL    C4 1914   2.953   3.109  18.222
   23AGAL    H4 1915   2.938   3.004  18.190
   23AGAL    O4 1916   2.884   3.126  18.346
   23AGAL   HO4 1917   2.793   3.147  18.322
   23AGAL    C6 1918   2.749   3.181  18.082
   23AGAL   H61 1919   2.719   3.254  18.004
   23AGAL   H62 1920   2.734   3.079  18.040
   23AGAL    O6 1921   2.663   3.196  18.195
   23AGAL   HO6 1922   2.602   3.268  18.181
   24ARHM    C1 1923   3.299   3.412  18.367
   24ARHM    H1 1924   3.214   3.483  18.376
   24ARHM    C5 1925   3.530   3.416  18.309
   24ARHM    H5 1926   3.514   3.334  18.236
   24ARHM    O5 1927   3.409   3.492  18.322
   24ARHM    C2 1928   3.327   3.350  18.501
   24ARHM    H2 1929   3.245   3.280  18.526
   24ARHM    O2 1930   3.336   3.450  18.604
   24ARHM    C3 1931   3.453   3.267  18.492
   24ARHM    H3 1932   3.438   3.186  18.418
   24ARHM    O3 1933   3.482   3.206  18.618
   24ARHM   HO3 1934   3.576   3.188  18.620
   24ARHM    C4 1935   3.568   3.354  18.445
   24ARHM    H4 1936   3.582   3.438  18.517
   24ARHM    O4 1937   3.692   3.282  18.438
   24ARHM   HO4 1938   3.736   3.298  18.354
   24ARHM    C6 1939   3.635   3.512  18.252
   24ARHM   H61 1940   3.730   3.460  18.229
   24ARHM   H62 1941   3.598   3.558  18.158
   24ARHM   H63 1942   3.656   3.594  18.325
   25ARHM    C1 1943   3.213   3.492  18.656
   25ARHM    H1 1944   3.131   3.469  18.584
   25ARHM    C5 1945   3.304   3.677  18.772
   25ARHM    H5 1946   3.406   3.646  18.740
   25ARHM    O5 1947   3.208   3.634  18.674
   25ARHM    C2 1948   3.184   3.418  18.785
   25ARHM    H2 1949   3.200   3.310  18.769
   25ARHM    O2 1950   3.050   3.441  18.832
   25ARHM    C3 1951   3.281   3.462  18.891
   25ARHM    H3 1952   3.384   3.434  18.857
   25ARHM    O3 1953   3.249   3.392  19.011
   25ARHM    C4 1954   3.272   3.613  18.907
   25ARHM    H4 1955   3.168   3.640  18.934
   25ARHM    O4 1956   3.358   3.662  19.009
   25ARHM   HO4 1957   3.367   3.757  18.999
   25ARHM    C6 1958   3.299   3.831  18.771
   25ARHM   H61 1959   3.319   3.868  18.669
   25ARHM   H62 1960   3.199   3.867  18.803
   25ARHM   H63 1961   3.377   3.874  18.839
   26BMANN   C1 1962   2.951   3.359  18.775
   26BMANN   H1 1963   2.993   3.261  18.745
   26BMANN   C5 1964   2.785   3.343  18.604
   26BMANN   H5 1965   2.831   3.248  18.569
   26BMANN   O5 1966   2.889   3.424  18.663
   26BMANN   C2 1967   2.845   3.340  18.881
   26BMANN   H2 1968   2.895   3.288  18.965
   26BMANN    N 1969   2.795   3.468  18.930
   26BMANN   HN 1970   2.793   3.541  18.863
   26BMANN    C 1971   2.758   3.490  19.057
   26BMANN    O 1972   2.762   3.403  19.143
   26BMANN   CT 1973   2.712   3.630  19.090
   26BMANN  HT1 1974   2.745   3.702  19.012
   26BMANN  HT2 1975   2.755   3.660  19.188
   26BMANN  HT3 1976   2.601   3.631  19.098
   26BMANN   C3 1977   2.739   3.247  18.826
   26BMANN   H3 1978   2.788   3.153  18.793
   26BMANN   O3 1979   2.643   3.211  18.926
   26BMANN  HO3 1980   2.682   3.148  18.987
   26BMANN   C4 1981   2.675   3.311  18.705
   26BMANN   H4 1982   2.622   3.404  18.735
   26BMANN   O4 1983   2.581   3.222  18.643
   26BMANN  HO4 1984   2.491   3.245  18.666
   26BMANN   C6 1985   2.734   3.419  18.482
   26BMANN  H61 1986   2.819   3.446  18.417
   26BMANN  H62 1987   2.666   3.353  18.424
   26BMANN   O6 1988   2.664   3.538  18.519
   26BMANN  HO6 1989   2.580   3.544  18.473
   27BGLCN   C1 1990   3.360   3.358  19.090
   27BGLCN   H1 1991   3.443   3.432  19.077
   27BGLCN   C5 1992   3.515   3.186  19.142
   27BGLCN   H5 1993   3.598   3.259  19.131
   27BGLCN   O5 1994   3.404   3.226  19.060
   27BGLCN   C2 1995   3.308   3.361  19.232
   27BGLCN   H2 1996   3.231   3.282  19.241
   27BGLCN    N 1997   3.245   3.489  19.261
   27BGLCN   HN 1998   3.278   3.567  19.208
   27BGLCN    C 1999   3.138   3.503  19.340
   27BGLCN    O 2000   3.086   3.409  19.398
   27BGLCN   CT 2001   3.081   3.642  19.353
   27BGLCN  HT1 2002   3.140   3.714  19.293
   27BGLCN  HT2 2003   3.081   3.672  19.460
   27BGLCN  HT3 2004   2.976   3.641  19.317
   27BGLCN   C3 2005   3.420   3.323  19.327
   27BGLCN   H3 2006   3.502   3.396  19.312
   27BGLCN   O3 2007   3.368   3.334  19.460
   27BGLCN   C4 2008   3.471   3.185  19.288
   27BGLCN   H4 2009   3.388   3.112  19.299
   27BGLCN   O4 2010   3.578   3.141  19.371
   27BGLCN  HO4 2011   3.644   3.210  19.379
   27BGLCN   C6 2012   3.565   3.052  19.091
   27BGLCN  H61 2013   3.635   3.006  19.164
   27BGLCN  H62 2014   3.479   2.983  19.078
   27BGLCN   O6 2015   3.634   3.067  18.966
   27BGLCN  HO6 2016   3.621   2.989  18.911
   28AGAL    C1 2017   3.461   3.340   0.093
   28AGAL    H1 2018   3.505   3.239   0.109
   28AGAL    C5 2019   3.519   3.570   0.056
   28AGAL    H5 2020   3.441   3.576  19.449
   28AGAL    O5 2021   3.566   3.434   0.065
   28AGAL    C2 2022   3.394   3.379   0.224
   28AGAL    H2 2023   3.478   3.380   0.297
   28AGAL    O2 2024   3.294   3.285   0.269
   28AGAL    C3 2025   3.338   3.519   0.215
   28AGAL    H3 2026   3.265   3.521   0.131
   28AGAL    O3 2027   3.268   3.556   0.333
   28AGAL   HO3 2028   3.173   3.548   0.318
   28AGAL    C4 2029   3.451   3.615   0.185
   28AGAL    H4 2030   3.407   3.716   0.169
   28AGAL    O4 2031   3.542   3.625   0.294
   28AGAL   HO4 2032   3.489   3.624   0.374
   28AGAL    C6 2033   3.631   3.664   0.013
   28AGAL   H61 2034   3.634   3.668  19.375
   28AGAL   H62 2035   3.611   3.767   0.049
   28AGAL    O6 2036   3.761   3.623   0.058
   28AGAL   HO6 2037   3.756   3.599   0.150
   29ARHM    C1 2038   3.311   3.252   0.405
   29ARHM    H1 2039   3.358   3.337   0.458
   29ARHM    C5 2040   3.337   3.020   0.356
   29ARHM    H5 2041   3.325   3.040   0.247
   29ARHM    O5 2042   3.394   3.135   0.419
   29ARHM    C2 2043   3.178   3.226   0.471
   29ARHM    H2 2044   3.113   3.315   0.456
   29ARHM    O2 2045   3.196   3.202   0.613
   29ARHM    C3 2046   3.111   3.108   0.405
   29ARHM    H3 2047   3.095   3.130   0.297
   29ARHM    O3 2048   2.983   3.081   0.463
   29ARHM   HO3 2049   2.966   2.988   0.446
   29ARHM    C4 2050   3.202   2.988   0.418
   29ARHM    H4 2051   3.217   2.968   0.526
   29ARHM    O4 2052   3.145   2.870   0.361
   29ARHM   HO4 2053   3.161   2.867   0.266
   29ARHM    C6 2054   3.439   2.906   0.373
   29ARHM   H61 2055   3.538   2.939   0.335
   29ARHM   H62 2056   3.450   2.881   0.481
   29ARHM   H63 2057   3.406   2.816   0.319
   30ARHM    C1 2058   3.182   3.317   0.693
   30ARHM    H1 2059   3.086   3.367   0.668
   30ARHM    C5 2060   3.418   3.356   0.711
   30ARHM    H5 2061   3.439   3.265   0.651
   30ARHM    O5 2062   3.289   3.410   0.676
   30ARHM    C2 2063   3.177   3.276   0.840
   30ARHM    H2 2064   3.100   3.197   0.851
   30ARHM    O2 2065   3.144   3.388   0.922
   30ARHM    C3 2066   3.311   3.218   0.883
   30ARHM    H3 2067   3.330   3.129   0.819
   30ARHM    O3 2068   3.305   3.170   1.019
   30ARHM    C4 2069   3.421   3.318   0.858
   30ARHM    H4 2070   3.406   3.410   0.917
   30ARHM    O4 2071   3.548   3.261   0.891
   30ARHM   HO4 2072   3.579   3.301   0.973
   30ARHM    C6 2073   3.522   3.463   0.673
   30ARHM   H61 2074   3.625   3.428   0.697
   30ARHM   H62 2075   3.517   3.486   0.565
   30ARHM   H63 2076   3.503   3.557   0.730
   31BMANN   C1 2077   3.008   3.415   0.944
   31BMANN   H1 2078   2.950   3.321   0.960
   31BMANN   C5 2079   2.817   3.534   0.862
   31BMANN   H5 2080   2.754   3.443   0.877
   31BMANN   O5 2081   2.953   3.494   0.839
   31BMANN   C2 2082   3.010   3.501   1.069
   31BMANN   H2 2083   3.048   3.437   1.151
   31BMANN    N 2084   3.104   3.612   1.054
   31BMANN   HN 2085   3.135   3.630   0.961
   31BMANN    C 2086   3.156   3.682   1.155
   31BMANN    O 2087   3.120   3.664   1.271
   31BMANN   CT 2088   3.261   3.784   1.120
   31BMANN  HT1 2089   3.222   3.854   1.043
   31BMANN  HT2 2090   3.352   3.733   1.081
   31BMANN  HT3 2091   3.288   3.841   1.211
   31BMANN   C3 2092   2.868   3.540   1.103
   31BMANN   H3 2093   2.808   3.447   1.114
   31BMANN   O3 2094   2.860   3.607   1.230
   31BMANN  HO3 2095   2.949   3.635   1.252
   31BMANN   C4 2096   2.809   3.619   0.989
   31BMANN   H4 2097   2.867   3.712   0.972
   31BMANN   O4 2098   2.673   3.655   1.016
   31BMANN  HO4 2099   2.674   3.718   1.088
   31BMANN   C6 2100   2.768   3.606   0.738
   31BMANN  H61 2101   2.676   3.665   0.760
   31BMANN  H62 2102   2.845   3.678   0.704
   31BMANN   O6 2103   2.737   3.516   0.631
   31BMANN  HO6 2104   2.652   3.475   0.647
   32BGLCN   C1 2105   3.328   3.263   1.123
   32BGLCN   H1 2106   3.282   3.361   1.100
   32BGLCN   C5 2107   3.486   3.378   1.259
   32BGLCN   H5 2108   3.442   3.476   1.230
   32BGLCN   O5 2109   3.466   3.282   1.153
   32BGLCN   C2 2110   3.261   3.205   1.246
   32BGLCN   H2 2111   3.322   3.117   1.277
   32BGLCN    N 2112   3.129   3.156   1.214
   32BGLCN   HN 2113   3.089   3.189   1.129
   32BGLCN    C 2114   3.072   3.054   1.276
   32BGLCN    O 2115   3.119   2.998   1.374
   32BGLCN   CT 2116   2.940   3.011   1.222
   32BGLCN  HT1 2117   2.914   3.068   1.129
   32BGLCN  HT2 2118   2.860   3.026   1.298
   32BGLCN  HT3 2119   2.946   2.903   1.197
   32BGLCN   C3 2120   3.271   3.309   1.357
   32BGLCN   H3 2121   3.230   3.404   1.315
   32BGLCN   O3 2122   3.197   3.278   1.476
   32BGLCN   C4 2123   3.418   3.329   1.385
   32BGLCN   H4 2124   3.463   3.232   1.414
   32BGLCN   O4 2125   3.437   3.419   1.493
   32BGLCN  HO4 2126   3.418   3.370   1.574
   32BGLCN   C6 2127   3.636   3.397   1.272
   32BGLCN  H61 2128   3.658   3.458   1.362
   32BGLCN  H62 2129   3.686   3.299   1.284
   32BGLCN   O6 2130   3.689   3.464   1.157
   32BGLCN  HO6 2131   3.753   3.530   1.186
   33AGAL    C1 2132   3.127   3.389   1.529
   33AGAL    H1 2133   3.185   3.483   1.514
   33AGAL    C5 2134   2.916   3.286   1.488
   33AGAL    H5 2135   2.974   3.197   1.458
   33AGAL    O5 2136   2.999   3.402   1.466
   33AGAL    C2 2137   3.104   3.372   1.679
   33AGAL    H2 2138   3.048   3.461   1.712
   33AGAL    O2 2139   3.231   3.371   1.748
   33AGAL    C3 2140   3.019   3.249   1.706
   33AGAL    H3 2141   3.073   3.161   1.664
   33AGAL    O3 2142   2.999   3.222   1.844
   33AGAL   HO3 2143   2.934   3.286   1.874
   33AGAL    C4 2144   2.886   3.265   1.635
   33AGAL    H4 2145   2.828   3.170   1.646
   33AGAL    O4 2146   2.807   3.371   1.689
   33AGAL   HO4 2147   2.757   3.410   1.617
   33AGAL    C6 2148   2.795   3.290   1.397
   33AGAL   H61 2149   2.829   3.282   1.291
   33AGAL   H62 2150   2.730   3.203   1.418
   33AGAL    O6 2151   2.717   3.410   1.410
   33AGAL   HO6 2152   2.768   3.483   1.373
   34ARHM    C1 2153   3.230   3.442   1.870
   34ARHM    H1 2154   3.144   3.408   1.931
   34ARHM    C5 2155   3.328   3.639   1.776
   34ARHM    H5 2156   3.332   3.594   1.674
   34ARHM    O5 2157   3.219   3.584   1.850
   34ARHM    C2 2158   3.359   3.411   1.944
   34ARHM    H2 2159   3.369   3.300   1.951
   34ARHM    O2 2160   3.363   3.464   2.078
   34ARHM    C3 2161   3.478   3.464   1.866
   34ARHM    H3 2162   3.479   3.416   1.766
   34ARHM    O3 2163   3.602   3.432   1.930
   34ARHM   HO3 2164   3.652   3.371   1.874
   34ARHM    C4 2165   3.461   3.614   1.846
   34ARHM    H4 2166   3.458   3.663   1.946
   34ARHM    O4 2167   3.568   3.671   1.772
   34ARHM   HO4 2168   3.650   3.649   1.816
   34ARHM    C6 2169   3.295   3.789   1.761
   34ARHM   H61 2170   3.292   3.837   1.861
   34ARHM   H62 2171   3.372   3.839   1.698
   34ARHM   H63 2172   3.196   3.801   1.712
   35ARHM    C1 2173   3.261   3.424   2.165
   35ARHM    H1 2174   3.234   3.318   2.145
   35ARHM    C5 2175   3.173   3.646   2.171
   35ARHM    H5 2176   3.252   3.679   2.100
   35ARHM    O5 2177   3.144   3.507   2.151
   35ARHM    C2 2178   3.314   3.439   2.306
   35ARHM    H2 2179   3.409   3.382   2.312
   35ARHM    O2 2180   3.226   3.392   2.410
   35ARHM    C3 2181   3.347   3.584   2.335
   35ARHM    H3 2182   3.426   3.619   2.265
   35ARHM    O3 2183   3.395   3.600   2.468
   35ARHM   HO3 2184   3.407   3.513   2.508
   35ARHM    C4 2185   3.223   3.668   2.313
   35ARHM    H4 2186   3.143   3.635   2.384
   35ARHM    O4 2187   3.250   3.805   2.337
   35ARHM   HO4 2188   3.305   3.809   2.415
   35ARHM    C6 2189   3.045   3.723   2.138
   35ARHM   H61 2190   3.015   3.703   2.033
   35ARHM   H62 2191   2.963   3.692   2.206
   35ARHM   H63 2192   3.064   3.832   2.150
   36BMANN   C1 2193   3.196   3.255   2.404
   36BMANN   H1 2194   3.283   3.198   2.366
   36BMANN   C5 2195   3.045   3.090   2.322
   36BMANN   H5 2196   3.132   3.036   2.278
   36BMANN   O5 2197   3.078   3.230   2.327
   36BMANN   C2 2198   3.166   3.214   2.546
   36BMANN   H2 2199   3.258   3.233   2.605
   36BMANN    N 2200   3.056   3.293   2.602
   36BMANN   HN 2201   2.987   3.322   2.536
   36BMANN    C 2202   3.046   3.325   2.731
   36BMANN    O 2203   3.135   3.298   2.809
   36BMANN   CT 2204   2.921   3.396   2.775
   36BMANN  HT1 2205   2.832   3.350   2.728
   36BMANN  HT2 2206   2.928   3.504   2.749
   36BMANN  HT3 2207   2.912   3.387   2.885
   36BMANN   C3 2208   3.139   3.065   2.548
   36BMANN   H3 2209   3.226   3.012   2.504
   36BMANN   O3 2210   3.125   3.018   2.681
   36BMANN  HO3 2211   3.105   3.092   2.739
   36BMANN   C4 2212   3.018   3.036   2.462
   36BMANN   H4 2213   2.929   3.087   2.505
   36BMANN   O4 2214   2.991   2.896   2.454
   36BMANN  HO4 2215   2.983   2.864   2.544
   36BMANN   C6 2216   2.928   3.074   2.227
   36BMANN  H61 2217   2.950   3.130   2.133
   36BMANN  H62 2218   2.918   2.967   2.200
   36BMANN   O6 2219   2.804   3.122   2.282
   36BMANN  HO6 2220   2.780   3.067   2.357
    1ECLIP HB6S 2221   4.934   3.525  11.809
    1ECLIP  OB6 2222   5.025   3.653  11.944
    1ECLIP  CB6 2223   4.918   3.627  11.851
    1ECLIP HB6R 2224   4.821   3.624  11.905
    1ECLIP  CB5 2225   4.896   3.723  11.735
    1ECLIP  OB5 2226   5.023   3.745  11.674
    1ECLIP  HB5 2227   4.852   3.818  11.771
    1ECLIP  CB1 2228   5.018   3.831  11.560
    1ECLIP  HB1 2229   4.984   3.933  11.588
    1ECLIP  OA6 2230   5.145   3.837  11.498
    1ECLIP  CA6 2231   5.221   3.718  11.523
    1ECLIP HA6R 2232   5.158   3.629  11.540
    1ECLIP HA6S 2233   5.283   3.733  11.614
    1ECLIP  CB4 2234   4.808   3.657  11.629
    1ECLIP  HB4 2235   4.869   3.570  11.596
    1ECLIP  OB4 2236   4.687   3.618  11.695
    1ECLIP   PB 2237   4.622   3.468  11.678
    1ECLIP OPB4 2238   4.559   3.418  11.806
    1ECLIP OPB3 2239   4.739   3.385  11.625
    1ECLIP OPB2 2240   4.534   3.485  11.557
    1ECLIP  CB3 2241   4.790   3.751  11.511
    1ECLIP  OB3 2242   4.708   3.689  11.409
    1ECLIP  HB3 2243   4.755   3.849  11.549
    1ECLIP  C71 2244   4.594   3.760  11.379
    1ECLIP  O71 2245   4.553   3.852  11.445
    1ECLIP  C72 2246   4.552   3.733  11.235
    1ECLIP H72R 2247   4.627   3.776  11.166
    1ECLIP H72S 2248   4.456   3.787  11.220
    1ECLIP  CB2 2249   4.929   3.770  11.453
    1ECLIP  HB2 2250   4.970   3.669  11.433
    1ECLIP  NB2 2251   4.934   3.842  11.325
    1ECLIP HNB2 2252   4.949   3.941  11.331
    1ECLIP  CA4 2253   5.378   3.803  11.340
    1ECLIP  HA4 2254   5.300   3.868  11.295
    1ECLIP  OA4 2255   5.445   3.881  11.439
    1ECLIP HOA4 2256   5.402   3.865  11.523
    1ECLIP  CA5 2257   5.306   3.686  11.403
    1ECLIP  HA5 2258   5.380   3.611  11.437
    1ECLIP  OA5 2259   5.221   3.624  11.306
    1ECLIP  CA1 2260   5.294   3.567  11.197
    1ECLIP  HA1 2261   5.218   3.538  11.121
    1ECLIP  OA1 2262   5.366   3.453  11.238
    1ECLIP OPA2 2263   5.348   3.235  11.384
    1ECLIP OPA3 2264   5.141   3.332  11.326
    1ECLIP OPA4 2265   5.266   3.215  11.165
    1ECLIP   PA 2266   5.283   3.317  11.275
    1ECLIP  CA3 2267   5.467   3.747  11.231
    1ECLIP  HA3 2268   5.530   3.668  11.277
    1ECLIP  OA3 2269   5.561   3.839  11.173
    1ECLIP  C31 2270   5.520   3.950  11.108
    1ECLIP  O31 2271   5.545   3.969  10.990
    1ECLIP  C32 2272   5.544   4.070  11.203
    1ECLIP H32R 2273   5.627   4.127  11.156
    1ECLIP H32S 2274   5.584   4.033  11.300
    1ECLIP  CA2 2275   5.377   3.676  11.130
    1ECLIP  HA2 2276   5.303   3.751  11.094
    1ECLIP  NA2 2277   5.452   3.627  11.016
    1ECLIP HNA2 2278   5.551   3.628  11.026
    1ECLIP  C73 2279   4.531   3.583  11.208
    1ECLIP H73R 2280   4.472   3.540  11.292
    1ECLIP  O73 2281   4.661   3.522  11.197
    1ECLIP  C81 2282   4.658   3.385  11.184
    1ECLIP  O81 2283   4.619   3.326  11.284
    1ECLIP  C82 2284   4.800   3.348  11.142
    1ECLIP H82R 2285   4.822   3.250  11.190
    1ECLIP H82S 2286   4.874   3.422  11.180
    1ECLIP  C83 2287   4.818   3.332  10.991
    1ECLIP H83R 2288   4.817   3.433  10.944
    1ECLIP H83S 2289   4.735   3.273  10.945
    1ECLIP  C84 2290   4.951   3.263  10.959
    1ECLIP H84R 2291   4.946   3.155  10.986
    1ECLIP H84S 2292   5.033   3.310  11.016
    1ECLIP  C85 2293   4.979   3.279  10.810
    1ECLIP H85R 2294   4.991   3.388  10.791
    1ECLIP H85S 2295   4.891   3.243  10.753
    1ECLIP  C86 2296   5.106   3.210  10.758
    1ECLIP H86R 2297   5.088   3.100  10.755
    1ECLIP H86S 2298   5.191   3.229  10.827
    1ECLIP  C87 2299   5.142   3.261  10.617
    1ECLIP H87R 2300   5.213   3.190  10.569
    1ECLIP H87S 2301   5.195   3.358  10.628
    1ECLIP  C88 2302   5.019   3.283  10.529
    1ECLIP H88R 2303   4.957   3.363  10.575
    1ECLIP H88S 2304   4.956   3.191  10.526
    1ECLIP  C89 2305   5.049   3.331  10.387
    1ECLIP H89R 2306   5.144   3.387  10.383
    1ECLIP H89S 2307   4.968   3.403  10.360
    1ECLIP C810 2308   5.046   3.219  10.283
    1ECLIPH810R 2309   4.967   3.145  10.309
    1ECLIPH810S 2310   5.144   3.165  10.288
    1ECLIP C811 2311   5.021   3.272  10.142
    1ECLIPH811R 2312   5.053   3.195  10.069
    1ECLIPH811S 2313   5.084   3.363  10.128
    1ECLIP C812 2314   4.876   3.313  10.111
    1ECLIPH812R 2315   4.875   3.370  10.016
    1ECLIPH812S 2316   4.837   3.381  10.190
    1ECLIP C813 2317   4.782   3.193  10.097
    1ECLIPH813R 2318   4.825   3.123  10.022
    1ECLIPH813S 2319   4.777   3.139  10.194
    1ECLIP C814 2320   4.641   3.232  10.054
    1ECLIPH814R 2321   4.643   3.285   9.957
    1ECLIPH814S 2322   4.596   3.300  10.130
    1ECLIPH814T 2323   4.577   3.142  10.045
    1ECLIP  C74 2324   4.448   3.558  11.079
    1ECLIP H74R 2325   4.358   3.622  11.081
    1ECLIP H74S 2326   4.411   3.453  11.083
    1ECLIP  C75 2327   4.521   3.576  10.944
    1ECLIP H75R 2328   4.480   3.499  10.875
    1ECLIP H75S 2329   4.630   3.559  10.953
    1ECLIP  C76 2330   4.497   3.711  10.874
    1ECLIP H76R 2331   4.552   3.793  10.925
    1ECLIP H76S 2332   4.389   3.737  10.879
    1ECLIP  C77 2333   4.538   3.703  10.726
    1ECLIP H77R 2334   4.486   3.617  10.680
    1ECLIP H77S 2335   4.648   3.685  10.719
    1ECLIP  C78 2336   4.503   3.829  10.645
    1ECLIP H78R 2337   4.393   3.845  10.648
    1ECLIP H78S 2338   4.550   3.917  10.694
    1ECLIP  C79 2339   4.550   3.822  10.499
    1ECLIP H79R 2340   4.661   3.812  10.498
    1ECLIP H79S 2341   4.524   3.918  10.450
    1ECLIP C710 2342   4.489   3.708  10.416
    1ECLIPH710R 2343   4.514   3.610  10.463
    1ECLIPH710S 2344   4.378   3.718  10.416
    1ECLIP C711 2345   4.539   3.705  10.270
    1ECLIPH711R 2346   4.511   3.801  10.221
    1ECLIPH711S 2347   4.650   3.699  10.271
    1ECLIP C712 2348   4.483   3.587  10.190
    1ECLIPH712R 2349   4.373   3.599  10.181
    1ECLIPH712S 2350   4.502   3.494  10.248
    1ECLIP C713 2351   4.544   3.570  10.050
    1ECLIPH713R 2352   4.654   3.556  10.060
    1ECLIPH713S 2353   4.502   3.477  10.006
    1ECLIP C714 2354   4.516   3.685   9.953
    1ECLIPH714R 2355   4.406   3.703   9.946
    1ECLIPH714S 2356   4.565   3.778   9.987
    1ECLIPH714T 2357   4.553   3.661   9.851
    1ECLIP  C51 2358   4.941   3.782  11.205
    1ECLIP  O51 2359   4.912   3.663  11.193
    1ECLIP  C52 2360   4.986   3.871  11.089
    1ECLIP H52R 2361   4.906   3.947  11.074
    1ECLIP H52S 2362   5.078   3.922  11.124
    1ECLIP  C53 2363   5.020   3.805  10.952
    1ECLIP H53R 2364   5.098   3.728  10.967
    1ECLIP  O53 2365   5.061   3.906  10.857
    1ECLIP  C61 2366   5.193   3.927  10.844
    1ECLIP  O61 2367   5.275   3.897  10.928
    1ECLIP  C62 2368   5.219   4.041  10.743
    1ECLIP H62R 2369   5.244   4.131  10.802
    1ECLIP H62S 2370   5.125   4.060  10.687
    1ECLIP  C63 2371   5.335   4.011  10.644
    1ECLIP H63R 2372   5.312   3.918  10.589
    1ECLIP H63S 2373   5.428   3.995  10.703
    1ECLIP  C64 2374   5.364   4.122  10.541
    1ECLIP H64R 2375   5.463   4.103  10.494
    1ECLIP H64S 2376   5.371   4.220  10.593
    1ECLIP  C65 2377   5.260   4.131  10.428
    1ECLIP H65R 2378   5.162   4.149  10.477
    1ECLIP H65S 2379   5.253   4.035  10.373
    1ECLIP  C66 2380   5.281   4.248  10.329
    1ECLIP H66R 2381   5.307   4.339  10.386
    1ECLIP H66S 2382   5.185   4.268  10.278
    1ECLIP  C67 2383   5.388   4.224  10.220
    1ECLIP H67R 2384   5.485   4.199  10.267
    1ECLIP H67S 2385   5.400   4.320  10.165
    1ECLIP  C68 2386   5.348   4.116  10.118
    1ECLIP H68R 2387   5.244   4.136  10.086
    1ECLIP H68S 2388   5.350   4.015  10.165
    1ECLIP  C69 2389   5.437   4.117   9.992
    1ECLIP H69R 2390   5.470   4.221   9.972
    1ECLIP H69S 2391   5.376   4.085   9.905
    1ECLIP C610 2392   5.560   4.024  10.001
    1ECLIPH610R 2393   5.525   3.919  10.004
    1ECLIPH610S 2394   5.612   4.045  10.097
    1ECLIP C611 2395   5.660   4.043   9.886
    1ECLIPH611R 2396   5.701   4.146   9.893
    1ECLIPH611S 2397   5.745   3.974   9.903
    1ECLIP C612 2398   5.604   4.020   9.745
    1ECLIPH612R 2399   5.568   3.916   9.734
    1ECLIPH612S 2400   5.520   4.089   9.725
    1ECLIPH612T 2401   5.683   4.039   9.669
    1ECLIP  C54 2402   4.898   3.735  10.886
    1ECLIP H54R 2403   4.821   3.812  10.860
    1ECLIP H54S 2404   4.853   3.666  10.960
    1ECLIP  C55 2405   4.934   3.652  10.761
    1ECLIP H55R 2406   4.852   3.579  10.742
    1ECLIP H55S 2407   5.027   3.595  10.783
    1ECLIP  C56 2408   4.955   3.734  10.633
    1ECLIP H56R 2409   5.037   3.807  10.648
    1ECLIP H56S 2410   4.863   3.791  10.611
    1ECLIP  C57 2411   4.993   3.647  10.512
    1ECLIP H57R 2412   4.906   3.583  10.487
    1ECLIP H57S 2413   5.079   3.582  10.538
    1ECLIP  C58 2414   5.029   3.736  10.392
    1ECLIP H58R 2415   4.949   3.813  10.390
    1ECLIP H58S 2416   5.124   3.789  10.411
    1ECLIP  C59 2417   5.032   3.665  10.256
    1ECLIP H59R 2418   4.935   3.612  10.244
    1ECLIP H59S 2419   5.112   3.587  10.255
    1ECLIP C510 2420   5.052   3.763  10.139
    1ECLIPH510R 2421   5.158   3.761  10.105
    1ECLIPH510S 2422   5.036   3.865  10.178
    1ECLIP C511 2423   4.960   3.738  10.018
    1ECLIPH511R 2424   5.023   3.696   9.936
    1ECLIPH511S 2425   4.887   3.658  10.043
    1ECLIP C512 2426   4.878   3.858   9.964
    1ECLIPH512R 2427   4.850   3.833   9.859
    1ECLIPH512S 2428   4.781   3.862  10.018
    1ECLIP C513 2429   4.945   3.997   9.968
    1ECLIPH513R 2430   5.046   3.994   9.921
    1ECLIPH513S 2431   4.965   4.027  10.073
    1ECLIP C514 2432   4.866   4.110   9.901
    1ECLIPH514R 2433   4.763   4.116   9.942
    1ECLIPH514S 2434   4.916   4.208   9.918
    1ECLIPH514T 2435   4.860   4.094   9.791
    1ECLIP  C33 2436   5.424   4.167  11.220
    1ECLIP H33R 2437   5.454   4.268  11.183
    1ECLIP  O33 2438   5.392   4.176  11.358
    1ECLIP HO33 2439   5.385   4.088  11.396
    1ECLIP  C34 2440   5.298   4.124  11.141
    1ECLIP H34R 2441   5.278   4.015  11.152
    1ECLIP H34S 2442   5.323   4.140  11.033
    1ECLIP  C35 2443   5.164   4.195  11.169
    1ECLIP H35R 2444   5.180   4.298  11.208
    1ECLIP H35S 2445   5.109   4.139  11.247
    1ECLIP  C36 2446   5.081   4.198  11.039
    1ECLIP H36R 2447   5.081   4.095  10.998
    1ECLIP H36S 2448   5.132   4.261  10.963
    1ECLIP  C37 2449   4.934   4.239  11.050
    1ECLIP H37R 2450   4.923   4.349  11.057
    1ECLIP H37S 2451   4.891   4.195  11.142
    1ECLIP  C38 2452   4.851   4.186  10.931
    1ECLIP H38R 2453   4.852   4.075  10.934
    1ECLIP H38S 2454   4.744   4.216  10.937
    1ECLIP  C39 2455   4.902   4.226  10.792
    1ECLIP H39R 2456   5.013   4.222  10.788
    1ECLIP H39S 2457   4.871   4.330  10.768
    1ECLIP C310 2458   4.846   4.128  10.689
    1ECLIPH310R 2459   4.737   4.148  10.677
    1ECLIPH310S 2460   4.854   4.024  10.727
    1ECLIP C311 2461   4.919   4.135  10.555
    1ECLIPH311R 2462   4.982   4.226  10.550
    1ECLIPH311S 2463   4.984   4.045  10.548
    1ECLIP C312 2464   4.825   4.132  10.437
    1ECLIPH312R 2465   4.734   4.076  10.469
    1ECLIPH312S 2466   4.794   4.236  10.413
    1ECLIP C313 2467   4.881   4.064  10.313
    1ECLIPH313R 2468   4.904   4.142  10.237
    1ECLIPH313S 2469   4.978   4.015  10.338
    1ECLIP C314 2470   4.784   3.961  10.256
    1ECLIPH314R 2471   4.702   3.937  10.327
    1ECLIPH314S 2472   4.736   4.001  10.164
    1ECLIPH314T 2473   4.832   3.864  10.229
    1ECLIP  C11 2474   5.397   3.577  10.904
    1ECLIP  O11 2475   5.278   3.584  10.879
    1ECLIP  C12 2476   5.491   3.504  10.810
    1ECLIP H12R 2477   5.470   3.396  10.820
    1ECLIP H12S 2478   5.596   3.524  10.839
    1ECLIP  C13 2479   5.466   3.549  10.665
    1ECLIP H13R 2480   5.359   3.534  10.639
    1ECLIP  O13 2481   5.544   3.465  10.582
    1ECLIP HO13 2482   5.536   3.488  10.489
    1ECLIP  C14 2483   5.507   3.695  10.638
    1ECLIP H14R 2484   5.605   3.713  10.688
    1ECLIP H14S 2485   5.433   3.761  10.688
    1ECLIP  C15 2486   5.523   3.735  10.490
    1ECLIP H15R 2487   5.606   3.676  10.446
    1ECLIP H15S 2488   5.554   3.841  10.484
    1ECLIP  C16 2489   5.396   3.718  10.404
    1ECLIP H16R 2490   5.342   3.815  10.402
    1ECLIP H16S 2491   5.327   3.643  10.449
    1ECLIP  C17 2492   5.424   3.674  10.259
    1ECLIP H17R 2493   5.496   3.744  10.212
    1ECLIP H17S 2494   5.329   3.682  10.203
    1ECLIP  C18 2495   5.475   3.530  10.247
    1ECLIP H18R 2496   5.581   3.527  10.281
    1ECLIP H18S 2497   5.416   3.463  10.314
    1ECLIP  C19 2498   5.467   3.476  10.104
    1ECLIP H19R 2499   5.537   3.390  10.093
    1ECLIP H19S 2500   5.501   3.556  10.034
    1ECLIP C110 2501   5.326   3.429  10.065
    1ECLIPH110R 2502   5.300   3.339  10.125
    1ECLIPH110S 2503   5.253   3.509  10.090
    1ECLIP C111 2504   5.315   3.399   9.916
    1ECLIPH111R 2505   5.351   3.490   9.864
    1ECLIPH111S 2506   5.382   3.315   9.889
    1ECLIP C112 2507   5.174   3.376   9.860
    1ECLIPH112R 2508   5.134   3.279   9.897
    1ECLIPH112S 2509   5.107   3.457   9.896
    1ECLIP C113 2510   5.175   3.374   9.707
    1ECLIPH113R 2511   5.226   3.466   9.670
    1ECLIPH113S 2512   5.233   3.287   9.672
    1ECLIP C114 2513   5.035   3.368   9.648
    1ECLIPH114R 2514   4.980   3.279   9.684
    1ECLIPH114S 2515   4.977   3.459   9.675
    1ECLIPH114T 2516   5.041   3.361   9.537
    2AKDO    C1 2517   4.983   3.886  11.988
    2AKDO   O11 2518   4.888   3.958  12.027
    2AKDO   O12 2519   5.090   3.925  11.932
    2AKDO    C2 2520   4.989   3.742  12.048
    2AKDO    C6 2521   4.881   3.567  12.171
    2AKDO    H6 2522   4.917   3.501  12.089
    2AKDO    O6 2523   4.869   3.700  12.117
    2AKDO    C3 2524   5.102   3.735  12.150
    2AKDO   H31 2525   5.079   3.807  12.231
    2AKDO   H32 2526   5.196   3.766  12.099
    2AKDO    C4 2527   5.120   3.600  12.211
    2AKDO    H4 2528   5.142   3.527  12.130
    2AKDO    O4 2529   5.227   3.599  12.306
    2AKDO    C5 2530   4.990   3.557  12.279
    2AKDO    H5 2531   5.005   3.448  12.295
    2AKDO    O5 2532   4.964   3.618  12.410
    2AKDO    C7 2533   4.743   3.510  12.203
    2AKDO    H7 2534   4.692   3.573  12.279
    2AKDO    O7 2535   4.755   3.375  12.247
    2AKDO   HO7 2536   4.682   3.333  12.201
    2AKDO    C8 2537   4.661   3.509  12.075
    2AKDO   H81 2538   4.641   3.613  12.042
    2AKDO   H82 2539   4.720   3.460  11.994
    2AKDO    O8 2540   4.536   3.440  12.083
    2AKDO   HO8 2541   4.516   3.427  11.990
    3AKDO    C1 2542   5.411   3.520  12.159
    3AKDO   O11 2543   5.429   3.567  12.044
    3AKDO   O12 2544   5.448   3.404  12.195
    3AKDO    C2 2545   5.362   3.620  12.269
    3AKDO    C6 2546   5.355   3.859  12.324
    3AKDO    H6 2547   5.246   3.854  12.342
    3AKDO    O6 2548   5.395   3.756  12.229
    3AKDO    C3 2549   5.429   3.595  12.403
    3AKDO   H31 2550   5.539   3.599  12.389
    3AKDO   H32 2551   5.402   3.493  12.438
    3AKDO    C4 2552   5.386   3.696  12.506
    3AKDO    H4 2553   5.276   3.695  12.517
    3AKDO    O4 2554   5.442   3.659  12.631
    3AKDO   HO4 2555   5.367   3.636  12.688
    3AKDO    C5 2556   5.425   3.835  12.458
    3AKDO    H5 2557   5.389   3.910  12.532
    3AKDO    O5 2558   5.566   3.851  12.442
    3AKDO   HO5 2559   5.584   3.828  12.351
    3AKDO    C7 2560   5.386   3.997  12.264
    3AKDO    H7 2561   5.496   4.007  12.251
    3AKDO    O7 2562   5.342   4.100  12.354
    3AKDO   HO7 2563   5.255   4.127  12.323
    3AKDO    C8 2564   5.320   4.018  12.129
    3AKDO   H81 2565   5.342   3.932  12.061
    3AKDO   H82 2566   5.209   4.023  12.139
    3AKDO    O8 2567   5.369   4.137  12.065
    3AKDO   HO8 2568   5.291   4.191  12.052
    4AHEP    C1 2569   4.897   3.533  12.503
    4AHEP    H1 2570   4.795   3.514  12.461
    4AHEP    C5 2571   5.090   3.413  12.576
    4AHEP    H5 2572   5.150   3.491  12.523
    4AHEP    O5 2573   4.961   3.405  12.512
    4AHEP    C2 2574   4.872   3.584  12.646
    4AHEP    H2 2575   4.833   3.688  12.635
    4AHEP    O2 2576   4.772   3.509  12.717
    4AHEP   HO2 2577   4.820   3.465  12.787
    4AHEP    C3 2578   5.002   3.592  12.726
    4AHEP    H3 2579   5.066   3.674  12.685
    4AHEP    O3 2580   4.970   3.611  12.867
    4AHEP    C4 2581   5.073   3.458  12.722
    4AHEP    H4 2582   5.012   3.383  12.777
    4AHEP    O4 2583   5.201   3.478  12.784
    4AHEP    P4 2584   5.276   3.368  12.881
    4AHEP  OP42 2585   5.372   3.440  12.974
    4AHEP  OP43 2586   5.353   3.272  12.792
    4AHEP  OP44 2587   5.171   3.286  12.953
    4AHEP    C6 2588   5.159   3.279  12.550
    4AHEP    H6 2589   5.265   3.288  12.582
    4AHEP    O6 2590   5.094   3.174  12.623
    4AHEP   HO6 2591   5.006   3.175  12.584
    4AHEP    C7 2592   5.164   3.239  12.403
    4AHEP   H71 2593   5.232   3.152  12.392
    4AHEP   H72 2594   5.208   3.323  12.345
    4AHEP    O7 2595   5.036   3.205  12.347
    4AHEP   HO7 2596   4.977   3.279  12.365
    5AHEP    C1 2597   5.021   3.725  12.934
    5AHEP    H1 2598   5.118   3.754  12.888
    5AHEP    C5 2599   4.800   3.811  12.985
    5AHEP    H5 2600   4.754   3.724  12.933
    5AHEP    O5 2601   4.930   3.835  12.928
    5AHEP    C2 2602   5.042   3.699  13.082
    5AHEP    H2 2603   5.108   3.610  13.090
    5AHEP    O2 2604   5.112   3.810  13.141
    5AHEP   HO2 2605   5.051   3.884  13.138
    5AHEP    C3 2606   4.911   3.668  13.154
    5AHEP    H3 2607   4.867   3.574  13.114
    5AHEP    O3 2608   4.937   3.656  13.296
    5AHEP    C4 2609   4.813   3.784  13.135
    5AHEP    H4 2610   4.853   3.874  13.186
    5AHEP    O4 2611   4.678   3.762  13.178
    5AHEP    P4 2612   4.624   3.688  13.314
    5AHEP  OP42 2613   4.633   3.538  13.287
    5AHEP  OP43 2614   4.477   3.712  13.338
    5AHEP  OP44 2615   4.705   3.730  13.433
    5AHEP    C6 2616   4.718   3.936  12.948
    5AHEP    H6 2617   4.613   3.921  12.981
    5AHEP    O6 2618   4.771   4.051  13.015
    5AHEP   HO6 2619   4.807   4.102  12.942
    5AHEP    C7 2620   4.721   3.961  12.797
    5AHEP   H71 2621   4.620   3.998  12.768
    5AHEP   H72 2622   4.737   3.867  12.740
    5AHEP    O7 2623   4.814   4.064  12.757
    6AHEP    C1 2624   4.927   4.013  12.689
    6AHEP    H1 2625   4.954   3.911  12.725
    6AHEP    C5 2626   4.880   4.115  12.478
    6AHEP    H5 2627   4.788   4.163  12.519
    6AHEP    O5 2628   4.905   3.994  12.550
    6AHEP    C2 2629   5.045   4.104  12.714
    6AHEP    H2 2630   5.050   4.123  12.824
    6AHEP    O2 2631   5.170   4.044  12.677
    6AHEP   HO2 2632   5.219   4.112  12.630
    6AHEP    C3 2633   5.022   4.236  12.645
    6AHEP    H3 2634   4.930   4.283  12.688
    6AHEP    O3 2635   5.130   4.327  12.666
    6AHEP   HO3 2636   5.111   4.402  12.609
    6AHEP    C4 2637   4.998   4.211  12.497
    6AHEP    H4 2638   5.088   4.160  12.456
    6AHEP    O4 2639   4.984   4.333  12.424
    6AHEP   HO4 2640   4.897   4.372  12.431
    6AHEP    C6 2641   4.852   4.079  12.332
    6AHEP    H6 2642   4.822   4.172  12.278
    6AHEP    O6 2643   4.971   4.030  12.269
    6AHEP   HO6 2644   4.944   4.015  12.178
    6AHEP    C7 2645   4.738   3.977  12.317
    6AHEP   H71 2646   4.709   3.972  12.210
    6AHEP   H72 2647   4.651   4.015  12.374
    6AHEP    O7 2648   4.766   3.844  12.364
    6AHEP   HO7 2649   4.847   3.822  12.316
    7AGLC    C1 2650   4.974   3.530  13.346
    7AGLC    H1 2651   4.911   3.451  13.299
    7AGLC    C5 2652   5.201   3.595  13.383
    7AGLC    H5 2653   5.177   3.698  13.349
    7AGLC    O5 2654   5.112   3.500  13.321
    7AGLC    C2 2655   4.955   3.525  13.498
    7AGLC    H2 2656   4.991   3.426  13.531
    7AGLC    O2 2657   4.819   3.529  13.538
    7AGLC   HO2 2658   4.782   3.610  13.501
    7AGLC    C3 2659   5.039   3.631  13.569
    7AGLC    H3 2660   5.015   3.728  13.522
    7AGLC    O3 2661   5.010   3.640  13.712
    7AGLC    C4 2662   5.183   3.593  13.534
    7AGLC    H4 2663   5.200   3.488  13.566
    7AGLC    O4 2664   5.280   3.672  13.600
    7AGLC   HO4 2665   5.326   3.617  13.664
    7AGLC    C6 2666   5.341   3.562  13.333
    7AGLC   H61 2667   5.342   3.571  13.223
    7AGLC   H62 2668   5.414   3.636  13.373
    7AGLC    O6 2669   5.382   3.429  13.369
    7AGLC   HO6 2670   5.321   3.370  13.324
    8AGLC    C1 2671   4.973   3.769  13.758
    8AGLC    H1 2672   5.035   3.846  13.708
    8AGLC    C5 2673   4.737   3.727  13.792
    8AGLC    H5 2674   4.753   3.621  13.760
    8AGLC    O5 2675   4.838   3.807  13.728
    8AGLC    C2 2676   4.989   3.779  13.911
    8AGLC    H2 2677   4.965   3.884  13.937
    8AGLC    O2 2678   5.121   3.751  13.960
    8AGLC    C3 2679   4.890   3.687  13.982
    8AGLC    H3 2680   4.903   3.586  13.939
    8AGLC    O3 2681   4.918   3.674  14.124
    8AGLC    C4 2682   4.751   3.734  13.944
    8AGLC    H4 2683   4.740   3.841  13.973
    8AGLC    O4 2684   4.645   3.661  14.005
    8AGLC   HO4 2685   4.568   3.707  13.970
    8AGLC    C6 2686   4.600   3.768  13.742
    8AGLC   H61 2687   4.606   3.800  13.636
    8AGLC   H62 2688   4.531   3.681  13.747
    8AGLC    O6 2689   4.541   3.874  13.819
    8AGLC   HO6 2690   4.516   3.944  13.757
    9AGAL    C1 2691   5.226   3.819  13.896
    9AGAL    H1 2692   5.216   3.816  13.786
    9AGAL    C5 2693   5.256   3.976  14.074
    9AGAL    H5 2694   5.176   3.925  14.131
    9AGAL    O5 2695   5.233   3.957  13.934
    9AGAL    C2 2696   5.356   3.750  13.930
    9AGAL    H2 2697   5.435   3.799  13.870
    9AGAL    O2 2698   5.337   3.615  13.880
    9AGAL    C3 2699   5.389   3.766  14.077
    9AGAL    H3 2700   5.311   3.716  14.138
    9AGAL    O3 2701   5.516   3.708  14.107
    9AGAL   HO3 2702   5.561   3.695  14.024
    9AGAL    C4 2703   5.391   3.915  14.111
    9AGAL    H4 2704   5.407   3.927  14.220
    9AGAL    O4 2705   5.494   3.988  14.044
    9AGAL   HO4 2706   5.442   4.050  13.992
    9AGAL    C6 2707   5.244   4.125  14.101
    9AGAL   H61 2708   5.139   4.157  14.088
    9AGAL   H62 2709   5.273   4.147  14.206
    9AGAL    O6 2710   5.325   4.205  14.013
    9AGAL   HO6 2711   5.271   4.226  13.937
   10AGAL    C1 2712   5.384   3.498  13.943
   10AGAL    H1 2713   5.492   3.508  13.968
   10AGAL    C5 2714   5.173   3.436  14.036
   10AGAL    H5 2715   5.130   3.523  13.982
   10AGAL    O5 2716   5.312   3.465  14.063
   10AGAL    C2 2717   5.372   3.384  13.843
   10AGAL    H2 2718   5.420   3.294  13.888
   10AGAL    O2 2719   5.444   3.415  13.723
   10AGAL   HO2 2720   5.416   3.354  13.654
   10AGAL    C3 2721   5.227   3.350  13.814
   10AGAL    H3 2722   5.177   3.440  13.771
   10AGAL    O3 2723   5.215   3.243  13.719
   10AGAL   HO3 2724   5.123   3.225  13.702
   10AGAL    C4 2725   5.156   3.316  13.943
   10AGAL    H4 2726   5.048   3.304  13.922
   10AGAL    O4 2727   5.204   3.194  14.000
   10AGAL   HO4 2728   5.199   3.129  13.929
   10AGAL    C6 2729   5.095   3.426  14.166
   10AGAL   H61 2730   5.111   3.519  14.225
   10AGAL   H62 2731   4.987   3.416  14.143
   10AGAL    O6 2732   5.135   3.314  14.245
   10AGAL   HO6 2733   5.156   3.243  14.183
   11BGLC    C1 2734   4.857   3.766  14.212
   11BGLC    H1 2735   4.749   3.741  14.222
   11BGLC    C5 2736   4.805   3.996  14.244
   11BGLC    H5 2737   4.697   3.972  14.251
   11BGLC    O5 2738   4.872   3.898  14.164
   11BGLC    C2 2739   4.925   3.758  14.349
   11BGLC    H2 2740   5.031   3.785  14.333
   11BGLC    O2 2741   4.920   3.625  14.402
   11BGLC   HO2 2742   4.922   3.566  14.327
   11BGLC    C3 2743   4.861   3.859  14.443
   11BGLC    H3 2744   4.756   3.831  14.465
   11BGLC    O3 2745   4.940   3.867  14.563
   11BGLC    C4 2746   4.868   3.997  14.382
   11BGLC    H4 2747   4.974   4.028  14.368
   11BGLC    O4 2748   4.805   4.093  14.465
   11BGLC   HO4 2749   4.863   4.116  14.537
   11BGLC    C6 2750   4.823   4.125  14.167
   11BGLC   H61 2751   4.788   4.211  14.228
   11BGLC   H62 2752   4.930   4.142  14.144
   11BGLC    O6 2753   4.749   4.120  14.045
   11BGLC   HO6 2754   4.760   4.201  13.995
   12BGLCN   C1 2755   4.888   3.810  14.681
   12BGLCN   H1 2756   4.877   3.701  14.669
   12BGLCN   C5 2757   4.713   3.823  14.845
   12BGLCN   H5 2758   4.697   3.714  14.839
   12BGLCN   O5 2759   4.765   3.872  14.719
   12BGLCN   C2 2760   4.995   3.843  14.786
   12BGLCN   H2 2761   5.001   3.954  14.792
   12BGLCN    N 2762   5.124   3.789  14.744
   12BGLCN   HN 2763   5.126   3.693  14.719
   12BGLCN    C 2764   5.236   3.861  14.729
   12BGLCN    O 2765   5.242   3.982  14.749
   12BGLCN   CT 2766   5.359   3.785  14.684
   12BGLCN  HT1 2767   5.445   3.814  14.747
   12BGLCN  HT2 2768   5.382   3.811  14.578
   12BGLCN  HT3 2769   5.342   3.676  14.691
   12BGLCN   C3 2770   4.950   3.792  14.923
   12BGLCN   H3 2771   4.944   3.681  14.920
   12BGLCN   O3 2772   5.046   3.833  15.023
   12BGLCN   C4 2773   4.815   3.854  14.954
   12BGLCN   H4 2774   4.828   3.964  14.961
   12BGLCN   O4 2775   4.765   3.809  15.080
   12BGLCN  HO4 2776   4.717   3.726  15.069
   12BGLCN   C6 2777   4.580   3.893  14.870
   12BGLCN  H61 2778   4.555   3.892  14.978
   12BGLCN  H62 2779   4.587   4.000  14.839
   12BGLCN   O6 2780   4.469   3.833  14.802
   12BGLCN  HO6 2781   4.491   3.746  14.768
   13AGAL    C1 2782   5.068   3.746  15.133
   13AGAL    H1 2783   4.973   3.699  15.166
   13AGAL    C5 2784   5.289   3.699  15.053
   13AGAL    H5 2785   5.268   3.771  14.972
   13AGAL    O5 2786   5.163   3.644  15.098
   13AGAL    C2 2787   5.130   3.822  15.250
   13AGAL    H2 2788   5.157   3.746  15.326
   13AGAL    O2 2789   5.038   3.914  15.312
   13AGAL    C3 2790   5.260   3.889  15.207
   13AGAL    H3 2791   5.238   3.954  15.120
   13AGAL    O3 2792   5.316   3.972  15.308
   13AGAL   HO3 2793   5.345   4.055  15.268
   13AGAL    C4 2794   5.357   3.780  15.164
   13AGAL    H4 2795   5.447   3.829  15.120
   13AGAL    O4 2796   5.401   3.697  15.272
   13AGAL   HO4 2797   5.336   3.629  15.284
   13AGAL    C6 2798   5.374   3.589  14.990
   13AGAL   H61 2799   5.315   3.540  14.910
   13AGAL   H62 2800   5.464   3.635  14.944
   13AGAL    O6 2801   5.416   3.488  15.083
   13AGAL   HO6 2802   5.474   3.528  15.148
   14ARHM    C1 2803   4.989   3.879  15.440
   14ARHM    H1 2804   4.983   3.769  15.448
   14ARHM    C5 2805   4.848   4.069  15.455
   14ARHM    H5 2806   4.885   4.104  15.356
   14ARHM    O5 2807   4.856   3.926  15.461
   14ARHM    C2 2808   5.083   3.933  15.548
   14ARHM    H2 2809   5.186   3.899  15.524
   14ARHM    O2 2810   5.052   3.892  15.682
   14ARHM    C3 2811   5.079   4.084  15.543
   14ARHM    H3 2812   5.111   4.118  15.442
   14ARHM    O3 2813   5.168   4.145  15.638
   14ARHM   HO3 2814   5.116   4.216  15.676
   14ARHM    C4 2815   4.935   4.129  15.565
   14ARHM    H4 2816   4.900   4.087  15.662
   14ARHM    O4 2817   4.922   4.270  15.572
   14ARHM   HO4 2818   4.829   4.293  15.571
   14ARHM    C6 2819   4.699   4.104  15.466
   14ARHM   H61 2820   4.642   4.050  15.388
   14ARHM   H62 2821   4.659   4.075  15.566
   14ARHM   H63 2822   4.683   4.213  15.451
   15ARHM    C1 2823   5.048   3.753  15.709
   15ARHM    H1 2824   5.115   3.699  15.638
   15ARHM    C5 2825   4.823   3.768  15.789
   15ARHM    H5 2826   4.819   3.876  15.763
   15ARHM    O5 2827   4.914   3.701  15.700
   15ARHM    C2 2828   5.098   3.731  15.851
   15ARHM    H2 2829   5.201   3.771  15.859
   15ARHM    O2 2830   5.101   3.589  15.872
   15ARHM    C3 2831   5.009   3.807  15.946
   15ARHM    H3 2832   5.007   3.914  15.915
   15ARHM    O3 2833   5.063   3.802  16.079
   15ARHM    C4 2834   4.868   3.752  15.934
   15ARHM    H4 2835   4.869   3.644  15.958
   15ARHM    O4 2836   4.778   3.815  16.025
   15ARHM   HO4 2837   4.691   3.778  16.011
   15ARHM    C6 2838   4.684   3.707  15.761
   15ARHM   H61 2839   4.605   3.759  15.820
   15ARHM   H62 2840   4.659   3.718  15.653
   15ARHM   H63 2841   4.683   3.599  15.786
   16BMANN   C1 2842   5.130   3.541  16.002
   16BMANN   H1 2843   5.052   3.572  16.073
   16BMANN   C5 2844   5.287   3.532  16.181
   16BMANN   H5 2845   5.209   3.570  16.250
   16BMANN   O5 2846   5.260   3.581  16.048
   16BMANN   C2 2847   5.127   3.390  15.992
   16BMANN   H2 2848   5.023   3.364  15.963
   16BMANN    N 2849   5.219   3.338  15.892
   16BMANN   HN 2850   5.313   3.371  15.896
   16BMANN    C 2851   5.185   3.249  15.797
   16BMANN    O 2852   5.073   3.202  15.789
   16BMANN   CT 2853   5.292   3.211  15.698
   16BMANN  HT1 2854   5.295   3.101  15.687
   16BMANN  HT2 2855   5.391   3.248  15.732
   16BMANN  HT3 2856   5.268   3.257  15.599
   16BMANN   C3 2857   5.149   3.335  16.132
   16BMANN   H3 2858   5.072   3.379  16.199
   16BMANN   O3 2859   5.132   3.193  16.138
   16BMANN  HO3 2860   5.038   3.177  16.152
   16BMANN   C4 2861   5.284   3.380  16.183
   16BMANN   H4 2862   5.364   3.341  16.117
   16BMANN   O4 2863   5.307   3.330  16.315
   16BMANN  HO4 2864   5.283   3.237  16.311
   16BMANN   C6 2865   5.421   3.589  16.223
   16BMANN  H61 2866   5.454   3.541  16.318
   16BMANN  H62 2867   5.497   3.567  16.146
   16BMANN   O6 2868   5.413   3.730  16.245
   16BMANN  HO6 2869   5.387   3.771  16.163
   17BGLCN   C1 2870   5.053   3.920  16.153
   17BGLCN   H1 2871   4.960   3.976  16.127
   17BGLCN   C5 2872   5.164   4.121  16.219
   17BGLCN   H5 2873   5.077   4.182  16.189
   17BGLCN   O5 2874   5.169   4.002  16.138
   17BGLCN   C2 2875   5.047   3.874  16.297
   17BGLCN   H2 2876   5.147   3.830  16.320
   17BGLCN    N 2877   4.949   3.767  16.315
   17BGLCN   HN 2878   4.877   3.763  16.247
   17BGLCN    C 2879   4.961   3.671  16.407
   17BGLCN    O 2880   5.053   3.666  16.487
   17BGLCN   CT 2881   4.854   3.565  16.409
   17BGLCN  HT1 2882   4.884   3.481  16.343
   17BGLCN  HT2 2883   4.757   3.606  16.373
   17BGLCN  HT3 2884   4.841   3.527  16.512
   17BGLCN   C3 2885   5.030   3.996  16.387
   17BGLCN   H3 2886   4.941   4.052  16.351
   17BGLCN   O3 2887   5.009   3.957  16.524
   17BGLCN   C4 2888   5.152   4.084  16.366
   17BGLCN   H4 2889   5.243   4.027  16.397
   17BGLCN   O4 2890   5.146   4.203  16.443
   17BGLCN  HO4 2891   5.218   4.205  16.507
   17BGLCN   C6 2892   5.291   4.199  16.192
   17BGLCN  H61 2893   5.295   4.287  16.260
   17BGLCN  H62 2894   5.380   4.136  16.213
   17BGLCN   O6 2895   5.299   4.249  16.058
   17BGLCN  HO6 2896   5.291   4.176  15.997
   18AGAL    C1 2897   4.935   4.048  16.603
   18AGAL    H1 2898   4.990   4.143  16.618
   18AGAL    C5 2899   4.724   3.960  16.531
   18AGAL    H5 2900   4.778   3.888  16.465
   18AGAL    O5 2901   4.806   4.077  16.546
   18AGAL    C2 2902   4.909   3.988  16.741
   18AGAL    H2 2903   4.842   4.063  16.788
   18AGAL    O2 2904   5.026   3.978  16.824
   18AGAL    C3 2905   4.832   3.858  16.727
   18AGAL    H3 2906   4.889   3.791  16.659
   18AGAL    O3 2907   4.817   3.789  16.851
   18AGAL   HO3 2908   4.870   3.709  16.848
   18AGAL    C4 2909   4.698   3.890  16.664
   18AGAL    H4 2910   4.646   3.794  16.643
   18AGAL    O4 2911   4.615   3.964  16.754
   18AGAL   HO4 2912   4.622   3.920  16.839
   18AGAL    C6 2913   4.598   4.000  16.456
   18AGAL   H61 2914   4.625   4.040  16.356
   18AGAL   H62 2915   4.533   3.911  16.441
   18AGAL    O6 2916   4.525   4.100  16.527
   18AGAL   HO6 2917   4.524   4.073  16.619
   19ARHM    C1 2918   4.997   4.021  16.955
   19ARHM    H1 2919   4.891   4.000  16.979
   19ARHM    C5 2920   5.155   4.201  16.962
   19ARHM    H5 2921   5.194   4.168  16.864
   19ARHM    O5 2922   5.017   4.162  16.973
   19ARHM    C2 2923   5.079   3.944  17.057
   19ARHM    H2 2924   5.076   3.837  17.029
   19ARHM    O2 2925   5.023   3.960  17.189
   19ARHM    C3 2926   5.225   3.983  17.050
   19ARHM    H3 2927   5.264   3.961  16.948
   19ARHM    O3 2928   5.305   3.909  17.142
   19ARHM   HO3 2929   5.367   3.971  17.181
   19ARHM    C4 2930   5.233   4.133  17.073
   19ARHM    H4 2931   5.179   4.155  17.168
   19ARHM    O4 2932   5.365   4.184  17.094
   19ARHM   HO4 2933   5.424   4.168  17.020
   19ARHM    C6 2934   5.161   4.354  16.964
   19ARHM   H61 2935   5.099   4.396  16.882
   19ARHM   H62 2936   5.126   4.395  17.061
   19ARHM   H63 2937   5.266   4.387  16.945
   20ARHM    C1 2938   4.912   3.877  17.213
   20ARHM    H1 2939   4.897   3.806  17.129
   20ARHM    C5 2940   4.783   4.034  17.340
   20ARHM    H5 2941   4.863   4.111  17.330
   20ARHM    O5 2942   4.787   3.947  17.226
   20ARHM    C2 2943   4.941   3.797  17.337
   20ARHM    H2 2944   5.042   3.752  17.329
   20ARHM    O2 2945   4.844   3.692  17.355
   20ARHM    C3 2946   4.940   3.887  17.458
   20ARHM    H3 2947   5.019   3.964  17.445
   20ARHM    O3 2948   4.969   3.807  17.572
   20ARHM    C4 2949   4.804   3.953  17.467
   20ARHM    H4 2950   4.727   3.874  17.470
   20ARHM    O4 2951   4.785   4.034  17.584
   20ARHM   HO4 2952   4.690   4.043  17.593
   20ARHM    C6 2953   4.646   4.105  17.337
   20ARHM   H61 2954   4.564   4.031  17.345
   20ARHM   H62 2955   4.637   4.179  17.420
   20ARHM   H63 2956   4.635   4.160  17.241
   21BMANN   C1 2957   4.865   3.580  17.273
   21BMANN   H1 2958   4.952   3.595  17.205
   21BMANN   C5 2959   4.765   3.437  17.110
   21BMANN   H5 2960   4.849   3.456  17.040
   21BMANN   O5 2961   4.748   3.553  17.195
   21BMANN   C2 2962   4.892   3.465  17.367
   21BMANN   H2 2963   4.985   3.489  17.422
   21BMANN    N 2964   4.786   3.453  17.466
   21BMANN   HN 2965   4.710   3.516  17.450
   21BMANN    C 2966   4.784   3.377  17.577
   21BMANN    O 2967   4.873   3.296  17.604
   21BMANN   CT 2968   4.666   3.395  17.667
   21BMANN  HT1 2969   4.590   3.316  17.647
   21BMANN  HT2 2970   4.620   3.495  17.652
   21BMANN  HT3 2971   4.699   3.386  17.773
   21BMANN   C3 2972   4.918   3.343  17.281
   21BMANN   H3 2973   5.002   3.365  17.212
   21BMANN   O3 2974   4.960   3.232  17.361
   21BMANN  HO3 2975   4.932   3.249  17.451
   21BMANN   C4 2976   4.796   3.315  17.196
   21BMANN   H4 2977   4.709   3.295  17.261
   21BMANN   O4 2978   4.816   3.202  17.111
   21BMANN  HO4 2979   4.828   3.123  17.163
   21BMANN   C6 2980   4.639   3.418  17.028
   21BMANN  H61 2981   4.654   3.335  16.956
   21BMANN  H62 2982   4.556   3.390  17.096
   21BMANN   O6 2983   4.602   3.536  16.956
   21BMANN  HO6 2984   4.622   3.611  17.012
   22BGLCN   C1 2985   5.053   3.866  17.667
   22BGLCN   H1 2986   5.042   3.977  17.667
   22BGLCN   C5 2987   5.275   3.878  17.749
   22BGLCN   H5 2988   5.261   3.988  17.756
   22BGLCN   O5 2989   5.188   3.827  17.647
   22BGLCN   C2 2990   5.002   3.808  17.796
   22BGLCN   H2 2991   5.011   3.698  17.790
   22BGLCN    N 2992   4.860   3.841  17.810
   22BGLCN   HN 2993   4.829   3.917  17.754
   22BGLCN    C 2994   4.769   3.766  17.873
   22BGLCN    O 2995   4.797   3.662  17.932
   22BGLCN   CT 2996   4.627   3.815  17.866
   22BGLCN  HT1 2997   4.581   3.783  17.770
   22BGLCN  HT2 2998   4.625   3.926  17.873
   22BGLCN  HT3 2999   4.570   3.771  17.950
   22BGLCN   C3 3000   5.089   3.857  17.910
   22BGLCN   H3 3001   5.084   3.968  17.909
   22BGLCN   O3 3002   5.033   3.807  18.032
   22BGLCN   C4 3003   5.233   3.819  17.884
   22BGLCN   H4 3004   5.240   3.708  17.879
   22BGLCN   O4 3005   5.321   3.866  17.985
   22BGLCN  HO4 3006   5.385   3.797  18.006
   22BGLCN   C6 3007   5.418   3.848  17.707
   22BGLCN  H61 3008   5.478   3.814  17.795
   22BGLCN  H62 3009   5.421   3.765  17.633
   22BGLCN   O6 3010   5.482   3.964  17.653
   22BGLCN  HO6 3011   5.490   3.958  17.558
   23AGAL    C1 3012   5.073   3.867  18.153
   23AGAL    H1 3013   5.175   3.831  18.179
   23AGAL    C5 3014   4.944   4.064  18.117
   23AGAL    H5 3015   4.904   4.018  18.024
   23AGAL    O5 3016   5.075   4.010  18.145
   23AGAL    C2 3017   4.981   3.824  18.266
   23AGAL    H2 3018   5.019   3.870  18.360
   23AGAL    O2 3019   4.979   3.681  18.279
   23AGAL    C3 3020   4.841   3.876  18.243
   23AGAL    H3 3021   4.799   3.830  18.151
   23AGAL    O3 3022   4.756   3.844  18.353
   23AGAL   HO3 3023   4.762   3.921  18.409
   23AGAL    C4 3024   4.847   4.027  18.229
   23AGAL    H4 3025   4.746   4.064  18.200
   23AGAL    O4 3026   4.882   4.090  18.351
   23AGAL   HO4 3027   4.907   4.180  18.331
   23AGAL    C6 3028   4.959   4.213  18.089
   23AGAL   H61 3029   5.029   4.227  18.004
   23AGAL   H62 3030   4.861   4.254  18.057
   23AGAL    O6 3031   5.005   4.289  18.200
   23AGAL   HO6 3032   5.101   4.289  18.200
   24ARHM    C1 3033   5.075   3.626  18.367
   24ARHM    H1 3034   5.159   3.697  18.378
   24ARHM    C5 3035   5.038   3.401  18.301
   24ARHM    H5 3036   4.958   3.432  18.230
   24ARHM    O5 3037   5.134   3.507  18.315
   24ARHM    C2 3038   5.007   3.604  18.500
   24ARHM    H2 3039   4.953   3.697  18.528
   24ARHM    O2 3040   5.102   3.572  18.604
   24ARHM    C3 3041   4.904   3.495  18.485
   24ARHM    H3 3042   4.830   3.524  18.408
   24ARHM    O3 3043   4.832   3.475  18.607
   24ARHM   HO3 3044   4.822   3.380  18.617
   24ARHM    C4 3045   4.976   3.369  18.436
   24ARHM    H4 3046   5.058   3.345  18.507
   24ARHM    O4 3047   4.890   3.255  18.429
   24ARHM   HO4 3048   4.932   3.183  18.478
   24ARHM    C6 3049   5.114   3.284  18.237
   24ARHM   H61 3050   5.046   3.197  18.219
   24ARHM   H62 3051   5.156   3.316  18.140
   24ARHM   H63 3052   5.197   3.251  18.304
   25ARHM    C1 3053   5.168   3.684  18.658
   25ARHM    H1 3054   5.160   3.769  18.587
   25ARHM    C5 3055   5.339   3.566  18.773
   25ARHM    H5 3056   5.293   3.469  18.746
   25ARHM    O5 3057   5.309   3.664  18.672
   25ARHM    C2 3058   5.103   3.725  18.788
   25ARHM    H2 3059   4.993   3.726  18.774
   25ARHM    O2 3060   5.147   3.854  18.833
   25ARHM    C3 3061   5.133   3.625  18.895
   25ARHM    H3 3062   5.090   3.527  18.866
   25ARHM    O3 3063   5.072   3.673  19.015
   25ARHM    C4 3064   5.284   3.613  18.908
   25ARHM    H4 3065   5.326   3.714  18.930
   25ARHM    O4 3066   5.322   3.527  19.014
   25ARHM   HO4 3067   5.411   3.550  19.041
   25ARHM    C6 3068   5.492   3.549  18.770
   25ARHM   H61 3069   5.524   3.517  18.669
   25ARHM   H62 3070   5.541   3.645  18.795
   25ARHM   H63 3071   5.524   3.471  18.843
   26BMANN   C1 3072   5.088   3.962  18.766
   26BMANN   H1 3073   4.989   3.935  18.725
   26BMANN   C5 3074   5.121   4.124  18.595
   26BMANN   H5 3075   5.023   4.094  18.551
   26BMANN   O5 3076   5.175   4.010  18.663
   26BMANN   C2 3077   5.073   4.071  18.871
   26BMANN   H2 3078   5.004   4.032  18.949
   26BMANN    N 3079   5.200   4.100  18.937
   26BMANN   HN 3080   5.279   4.054  18.895
   26BMANN    C 3081   5.217   4.173  19.047
   26BMANN    O 3082   5.125   4.232  19.104
   26BMANN   CT 3083   5.358   4.182  19.100
   26BMANN  HT1 3084   5.431   4.163  19.019
   26BMANN  HT2 3085   5.372   4.107  19.181
   26BMANN  HT3 3086   5.376   4.283  19.142
   26BMANN   C3 3087   5.006   4.189  18.802
   26BMANN   H3 3088   4.912   4.153  18.755
   26BMANN   O3 3089   4.967   4.288  18.895
   26BMANN  HO3 3090   5.026   4.284  18.971
   26BMANN   C4 3091   5.096   4.239  18.691
   26BMANN   H4 3092   5.193   4.274  18.733
   26BMANN   O4 3093   5.036   4.347  18.621
   26BMANN  HO4 3094   5.051   4.428  18.670
   26BMANN   C6 3095   5.215   4.160  18.480
   26BMANN  H61 3096   5.217   4.076  18.407
   26BMANN  H62 3097   5.176   4.249  18.426
   26BMANN   O6 3098   5.349   4.185  18.525
   26BMANN  HO6 3099   5.378   4.272  18.495
   27BGLCN   C1 3100   5.021   3.572  19.097
   27BGLCN   H1 3101   5.084   3.481  19.092
   27BGLCN   C5 3102   4.828   3.442  19.145
   27BGLCN   H5 3103   4.894   3.352  19.141
   27BGLCN   O5 3104   4.886   3.543  19.060
   27BGLCN   C2 3105   5.021   3.631  19.236
   27BGLCN   H2 3106   4.951   3.718  19.234
   27BGLCN    N 3107   5.153   3.679  19.271
   27BGLCN   HN 3108   5.230   3.636  19.223
   27BGLCN    C 3109   5.177   3.785  19.350
   27BGLCN    O 3110   5.087   3.849  19.403
   27BGLCN   CT 3111   5.321   3.823  19.370
   27BGLCN  HT1 3112   5.386   3.767  19.299
   27BGLCN  HT2 3113   5.351   3.799   0.002
   27BGLCN  HT3 3114   5.333   3.932  19.353
   27BGLCN   C3 3115   4.965   3.528  19.332
   27BGLCN   H3 3116   5.028   3.437  19.322
   27BGLCN   O3 3117   4.979   3.580  19.466
   27BGLCN   C4 3118   4.824   3.492  19.289
   27BGLCN   H4 3119   4.760   3.583  19.293
   27BGLCN   O4 3120   4.764   3.393  19.372
   27BGLCN  HO4 3121   4.828   3.327  19.398
   27BGLCN   C6 3122   4.693   3.404  19.089
   27BGLCN  H61 3123   4.650   3.321  19.149
   27BGLCN  H62 3124   4.625   3.491  19.095
   27BGLCN   O6 3125   4.701   3.360  18.953
   27BGLCN  HO6 3126   4.644   3.417  18.900
   28AGAL    C1 3127   4.962   3.492   0.102
   28AGAL    H1 3128   4.853   3.475   0.118
   28AGAL    C5 3129   5.171   3.377   0.073
   28AGAL    H5 3130   5.197   3.442  19.460
   28AGAL    O5 3131   5.027   3.365   0.081
   28AGAL    C2 3132   5.017   3.553   0.229
   28AGAL    H2 3133   5.002   3.470   0.302
   28AGAL    O2 3134   4.947   3.668   0.278
   28AGAL    C3 3135   5.167   3.577   0.216
   28AGAL    H3 3136   5.185   3.640   0.126
   28AGAL    O3 3137   5.221   3.648   0.328
   28AGAL   HO3 3138   5.229   3.741   0.305
   28AGAL    C4 3139   5.234   3.442   0.197
   28AGAL    H4 3140   5.342   3.460   0.175
   28AGAL    O4 3141   5.228   3.364   0.316
   28AGAL   HO4 3142   5.219   3.428   0.388
   28AGAL    C6 3143   5.224   3.238   0.040
   28AGAL   H61 3144   5.192   3.211  19.410
   28AGAL   H62 3145   5.335   3.238   0.042
   28AGAL    O6 3146   5.175   3.137   0.130
   28AGAL   HO6 3147   5.084   3.160   0.153
   29ARHM    C1 3148   4.913   3.653   0.414
   29ARHM    H1 3149   4.990   3.590   0.464
   29ARHM    C5 3150   4.678   3.669   0.375
   29ARHM    H5 3151   4.694   3.683   0.266
   29ARHM    O5 3152   4.785   3.590   0.429
   29ARHM    C2 3153   4.913   3.785   0.487
   29ARHM    H2 3154   5.011   3.834   0.470
   29ARHM    O2 3155   4.890   3.763   0.628
   29ARHM    C3 3156   4.806   3.875   0.429
   29ARHM    H3 3157   4.827   3.893   0.322
   29ARHM    O3 3158   4.807   4.002   0.495
   29ARHM   HO3 3159   4.718   4.038   0.485
   29ARHM    C4 3160   4.673   3.806   0.444
   29ARHM    H4 3161   4.652   3.789   0.551
   29ARHM    O4 3162   4.567   3.886   0.391
   29ARHM   HO4 3163   4.565   3.879   0.296
   29ARHM    C6 3164   4.551   3.586   0.396
   29ARHM   H61 3165   4.559   3.489   0.343
   29ARHM   H62 3166   4.536   3.566   0.504
   29ARHM   H63 3167   4.461   3.640   0.358
   30ARHM    C1 3168   5.008   3.756   0.705
   30ARHM    H1 3169   5.071   3.844   0.681
   30ARHM    C5 3170   5.010   3.516   0.716
   30ARHM    H5 3171   4.916   3.512   0.658
   30ARHM    O5 3172   5.084   3.636   0.682
   30ARHM    C2 3173   4.970   3.762   0.852
   30ARHM    H2 3174   4.904   3.850   0.867
   30ARHM    O2 3175   5.090   3.776   0.928
   30ARHM    C3 3176   4.892   3.638   0.894
   30ARHM    H3 3177   4.802   3.633   0.830
   30ARHM    O3 3178   4.844   3.647   1.030
   30ARHM    C4 3179   4.975   3.515   0.864
   30ARHM    H4 3180   5.069   3.516   0.922
   30ARHM    O4 3181   4.905   3.394   0.894
   30ARHM   HO4 3182   4.818   3.413   0.929
   30ARHM    C6 3183   5.098   3.397   0.673
   30ARHM   H61 3184   5.044   3.301   0.692
   30ARHM   H62 3185   5.121   3.403   0.564
   30ARHM   H63 3186   5.193   3.395   0.731
   31BMANN   C1 3187   5.132   3.907   0.958
   31BMANN   H1 3188   5.045   3.972   0.982
   31BMANN   C5 3189   5.267   4.091   0.885
   31BMANN   H5 3190   5.185   4.160   0.914
   31BMANN   O5 3191   5.212   3.962   0.852
   31BMANN   C2 3192   5.222   3.886   1.078
   31BMANN   H2 3193   5.157   3.851   1.161
   31BMANN    N 3194   5.322   3.783   1.054
   31BMANN   HN 3195   5.337   3.758   0.959
   31BMANN    C 3196   5.389   3.717   1.149
   31BMANN    O 3197   5.379   3.747   1.268
   31BMANN   CT 3198   5.477   3.605   1.103
   31BMANN  HT1 3199   5.502   3.616   0.995
   31BMANN  HT2 3200   5.426   3.508   1.119
   31BMANN  HT3 3201   5.571   3.605   1.162
   31BMANN   C3 3202   5.277   4.021   1.118
   31BMANN   H3 3203   5.192   4.090   1.134
   31BMANN   O3 3204   5.346   4.014   1.242
   31BMANN  HO3 3205   5.382   3.926   1.251
   31BMANN   C4 3206   5.360   4.078   1.006
   31BMANN   H4 3207   5.444   4.009   0.980
   31BMANN   O4 3208   5.417   4.203   1.045
   31BMANN  HO4 3209   5.443   4.190   1.136
   31BMANN   C6 3210   5.335   4.146   0.761
   31BMANN  H61 3211   5.421   4.210   0.790
   31BMANN  H62 3212   5.376   4.063   0.699
   31BMANN   O6 3213   5.247   4.227   0.683
   31BMANN  HO6 3214   5.170   4.176   0.656
   32BGLCN   C1 3215   4.936   3.617   1.134
   32BGLCN   H1 3216   5.034   3.665   1.113
   32BGLCN   C5 3217   5.061   3.447   1.244
   32BGLCN   H5 3218   5.156   3.495   1.212
   32BGLCN   O5 3219   4.957   3.477   1.150
   32BGLCN   C2 3220   4.887   3.669   1.268
   32BGLCN   H2 3221   4.804   3.601   1.297
   32BGLCN    N 3222   4.831   3.803   1.263
   32BGLCN   HN 3223   4.867   3.866   1.194
   32BGLCN    C 3224   4.730   3.842   1.342
   32BGLCN    O 3225   4.678   3.770   1.426
   32BGLCN   CT 3226   4.683   3.983   1.323
   32BGLCN  HT1 3227   4.762   4.046   1.276
   32BGLCN  HT2 3228   4.655   4.027   1.421
   32BGLCN  HT3 3229   4.593   3.982   1.257
   32BGLCN   C3 3230   4.999   3.650   1.370
   32BGLCN   H3 3231   5.090   3.695   1.325
   32BGLCN   O3 3232   4.974   3.718   1.494
   32BGLCN   C4 3233   5.024   3.500   1.382
   32BGLCN   H4 3234   4.931   3.450   1.416
   32BGLCN   O4 3235   5.127   3.471   1.475
   32BGLCN  HO4 3236   5.108   3.392   1.525
   32BGLCN   C6 3237   5.081   3.297   1.236
   32BGLCN  H61 3238   5.164   3.265   1.303
   32BGLCN  H62 3239   4.989   3.244   1.268
   32BGLCN   O6 3240   5.112   3.258   1.101
   32BGLCN  HO6 3241   5.037   3.280   1.046
   33AGAL    C1 3242   5.091   3.778   1.547
   33AGAL    H1 3243   5.177   3.709   1.539
   33AGAL    C5 3244   5.029   4.006   1.495
   33AGAL    H5 3245   4.932   3.969   1.457
   33AGAL    O5 3246   5.127   3.900   1.479
   33AGAL    C2 3247   5.072   3.812   1.694
   33AGAL    H2 3248   5.169   3.854   1.729
   33AGAL    O2 3249   5.046   3.691   1.768
   33AGAL    C3 3250   4.964   3.917   1.714
   33AGAL    H3 3251   4.870   3.878   1.668
   33AGAL    O3 3252   4.935   3.945   1.850
   33AGAL   HO3 3253   4.999   4.010   1.879
   33AGAL    C4 3254   5.007   4.042   1.642
   33AGAL    H4 3255   4.925   4.117   1.647
   33AGAL    O4 3256   5.124   4.100   1.699
   33AGAL   HO4 3257   5.169   4.145   1.627
   33AGAL    C6 3258   5.067   4.126   1.411
   33AGAL   H61 3259   5.058   4.099   1.304
   33AGAL   H62 3260   4.996   4.209   1.430
   33AGAL    O6 3261   5.200   4.173   1.437
   33AGAL   HO6 3262   5.262   4.121   1.384
   34ARHM    C1 3263   5.114   3.683   1.890
   34ARHM    H1 3264   5.093   3.774   1.950
   34ARHM    C5 3265   5.293   3.557   1.795
   34ARHM    H5 3266   5.248   3.565   1.694
   34ARHM    O5 3267   5.257   3.671   1.873
   34ARHM    C2 3268   5.061   3.561   1.961
   34ARHM    H2 3269   4.950   3.570   1.967
   34ARHM    O2 3270   5.112   3.546   2.095
   34ARHM    C3 3271   5.093   3.438   1.877
   34ARHM    H3 3272   5.047   3.451   1.777
   34ARHM    O3 3273   5.037   3.319   1.933
   34ARHM   HO3 3274   4.974   3.284   1.869
   34ARHM    C4 3275   5.243   3.428   1.859
   34ARHM    H4 3276   5.291   3.417   1.959
   34ARHM    O4 3277   5.279   3.317   1.778
   34ARHM   HO4 3278   5.223   3.242   1.801
   34ARHM    C6 3279   5.446   3.563   1.779
   34ARHM   H61 3280   5.495   3.555   1.879
   34ARHM   H62 3281   5.481   3.479   1.715
   34ARHM   H63 3282   5.475   3.659   1.731
   35ARHM    C1 3283   5.088   3.654   2.182
   35ARHM    H1 3284   4.991   3.702   2.158
   35ARHM    C5 3285   5.323   3.699   2.202
   35ARHM    H5 3286   5.345   3.620   2.128
   35ARHM    O5 3287   5.192   3.753   2.176
   35ARHM    C2 3288   5.085   3.597   2.323
   35ARHM    H2 3289   5.009   3.515   2.324
   35ARHM    O2 3290   5.049   3.695   2.422
   35ARHM    C3 3291   5.219   3.535   2.356
   35ARHM    H3 3292   5.240   3.455   2.282
   35ARHM    O3 3293   5.219   3.472   2.484
   35ARHM   HO3 3294   5.202   3.538   2.553
   35ARHM    C4 3295   5.327   3.641   2.343
   35ARHM    H4 3296   5.306   3.723   2.414
   35ARHM    O4 3297   5.457   3.589   2.373
   35ARHM   HO4 3298   5.464   3.501   2.336
   35ARHM    C6 3299   5.422   3.815   2.180
   35ARHM   H61 3300   5.413   3.853   2.076
   35ARHM   H62 3301   5.401   3.898   2.250
   35ARHM   H63 3302   5.527   3.780   2.195
   36BMANN   C1 3303   4.917   3.744   2.414
   36BMANN   H1 3304   4.849   3.667   2.372
   36BMANN   C5 3305   4.774   3.919   2.334
   36BMANN   H5 3306   4.709   3.841   2.288
   36BMANN   O5 3307   4.909   3.866   2.340
   36BMANN   C2 3308   4.876   3.776   2.557
   36BMANN   H2 3309   4.880   3.680   2.612
   36BMANN    N 3310   4.967   3.871   2.619
   36BMANN   HN 3311   4.993   3.948   2.561
   36BMANN    C 3312   5.013   3.863   2.744
   36BMANN    O 3313   4.991   3.767   2.817
   36BMANN   CT 3314   5.097   3.979   2.792
   36BMANN  HT1 3315   5.073   4.071   2.734
   36BMANN  HT2 3316   5.204   3.955   2.781
   36BMANN  HT3 3317   5.075   3.998   2.900
   36BMANN   C3 3318   4.732   3.823   2.556
   36BMANN   H3 3319   4.668   3.745   2.508
   36BMANN   O3 3320   4.683   3.842   2.689
   36BMANN  HO3 3321   4.699   3.761   2.739
   36BMANN   C4 3322   4.722   3.949   2.473
   36BMANN   H4 3323   4.782   4.030   2.519
   36BMANN   O4 3324   4.587   3.993   2.466
   36BMANN  HO4 3325   4.555   4.003   2.556
   36BMANN   C6 3326   4.771   4.039   2.240
   36BMANN  H61 3327   4.822   4.014   2.145
   36BMANN  H62 3328   4.665   4.062   2.217
   36BMANN   O6 3329   4.831   4.157   2.297
   36BMANN  HO6 3330   4.785   4.234   2.262
    1ECLIP HB6S 3331   5.393   4.854  11.808
    1ECLIP  OB6 3332   5.326   5.013  11.924
    1ECLIP  CB6 3333   5.297   4.904  11.834
    1ECLIP HB6R 3334   5.233   4.828  11.883
    1ECLIP  CB5 3335   5.225   4.938  11.705
    1ECLIP  OB5 3336   5.283   5.055  11.649
    1ECLIP  HB5 3337   5.118   4.957  11.730
    1ECLIP  CB1 3338   5.213   5.099  11.532
    1ECLIP  HB1 3339   5.109   5.128  11.557
    1ECLIP  OA6 3340   5.282   5.207  11.476
    1ECLIP  CA6 3341   5.422   5.199  11.498
    1ECLIP HA6R 3342   5.460   5.095  11.491
    1ECLIP HA6S 3343   5.443   5.234  11.602
    1ECLIP  CB4 3344   5.233   4.825  11.600
    1ECLIP  HB4 3345   5.340   4.820  11.568
    1ECLIP  OB4 3346   5.195   4.704  11.665
    1ECLIP   PB 3347   5.270   4.561  11.633
    1ECLIP OPB4 3348   5.289   4.477  11.758
    1ECLIP OPB3 3349   5.409   4.579  11.572
    1ECLIP OPB2 3350   5.196   4.483  11.527
    1ECLIP  CB3 3351   5.149   4.866  11.481
    1ECLIP  OB3 3352   5.147   4.765  11.380
    1ECLIP  HB3 3353   5.047   4.889  11.519
    1ECLIP  C71 3354   5.041   4.767  11.298
    1ECLIP  O71 3355   4.953   4.851  11.302
    1ECLIP  C72 3356   5.072   4.694  11.169
    1ECLIP H72R 3357   5.088   4.770  11.089
    1ECLIP H72S 3358   4.981   4.635  11.143
    1ECLIP  CB2 3359   5.216   4.992  11.426
    1ECLIP  HB2 3360   5.321   4.962  11.409
    1ECLIP  NB2 3361   5.164   5.042  11.299
    1ECLIP HNB2 3362   5.070   5.074  11.300
    1ECLIP  CA4 3363   5.417   5.402  11.349
    1ECLIP  HA4 3364   5.317   5.367  11.315
    1ECLIP  OA4 3365   5.410   5.489  11.463
    1ECLIP HOA4 3366   5.316   5.503  11.475
    1ECLIP  CA5 3367   5.497   5.286  11.400
    1ECLIP  HA5 3368   5.587   5.314  11.459
    1ECLIP  OA5 3369   5.536   5.202  11.293
    1ECLIP  CA1 3370   5.609   5.273  11.193
    1ECLIP  HA1 3371   5.621   5.196  11.114
    1ECLIP  OA1 3372   5.742   5.304  11.230
    1ECLIP OPA2 3373   5.789   5.539  11.326
    1ECLIP OPA3 3374   5.792   5.364  11.480
    1ECLIP OPA4 3375   5.973   5.384  11.301
    1ECLIP   PA 3376   5.827   5.393  11.336
    1ECLIP  CA3 3377   5.482   5.479  11.237
    1ECLIP  HA3 3378   5.577   5.529  11.269
    1ECLIP  OA3 3379   5.391   5.588  11.220
    1ECLIP  C31 3380   5.310   5.600  11.115
    1ECLIP  O31 3381   5.350   5.622  11.002
    1ECLIP  C32 3382   5.186   5.674  11.170
    1ECLIP H32R 3383   5.141   5.728  11.084
    1ECLIP H32S 3384   5.220   5.750  11.245
    1ECLIP  CA2 3385   5.519   5.381  11.127
    1ECLIP  HA2 3386   5.426   5.329  11.096
    1ECLIP  NA2 3387   5.582   5.435  11.007
    1ECLIP HNA2 3388   5.618   5.528  11.011
    1ECLIP  C73 3389   5.193   4.601  11.180
    1ECLIP H73R 3390   5.178   4.539  11.271
    1ECLIP  O73 3391   5.312   4.679  11.187
    1ECLIP  C81 3392   5.415   4.624  11.246
    1ECLIP  O81 3393   5.418   4.509  11.292
    1ECLIP  C82 3394   5.541   4.698  11.199
    1ECLIP H82R 3395   5.630   4.643  11.234
    1ECLIP H82S 3396   5.539   4.799  11.246
    1ECLIP  C83 3397   5.543   4.714  11.045
    1ECLIP H83R 3398   5.455   4.775  11.016
    1ECLIP H83S 3399   5.535   4.615  10.995
    1ECLIP  C84 3400   5.666   4.788  10.989
    1ECLIP H84R 3401   5.756   4.724  10.997
    1ECLIP H84S 3402   5.683   4.880  11.048
    1ECLIP  C85 3403   5.641   4.828  10.843
    1ECLIP H85R 3404   5.557   4.900  10.842
    1ECLIP H85S 3405   5.610   4.738  10.786
    1ECLIP  C86 3406   5.761   4.894  10.772
    1ECLIP H86R 3407   5.840   4.818  10.756
    1ECLIP H86S 3408   5.802   4.973  10.838
    1ECLIP  C87 3409   5.723   4.958  10.637
    1ECLIP H87R 3410   5.815   4.998  10.588
    1ECLIP H87S 3411   5.656   5.044  10.657
    1ECLIP  C88 3412   5.651   4.863  10.540
    1ECLIP H88R 3413   5.556   4.831  10.589
    1ECLIP H88S 3414   5.712   4.771  10.524
    1ECLIP  C89 3415   5.614   4.925  10.405
    1ECLIP H89R 3416   5.577   5.028  10.419
    1ECLIP H89S 3417   5.529   4.864  10.365
    1ECLIP C810 3418   5.726   4.925  10.300
    1ECLIPH810R 3419   5.779   4.827  10.303
    1ECLIPH810S 3420   5.800   5.003  10.329
    1ECLIP C811 3421   5.675   4.952  10.158
    1ECLIPH811R 3422   5.763   4.965  10.091
    1ECLIPH811S 3423   5.619   5.048  10.158
    1ECLIP C812 3424   5.585   4.843  10.098
    1ECLIPH812R 3425   5.553   4.874   9.996
    1ECLIPH812S 3426   5.492   4.833  10.159
    1ECLIP C813 3427   5.650   4.704  10.088
    1ECLIPH813R 3428   5.740   4.711  10.023
    1ECLIPH813S 3429   5.685   4.672  10.189
    1ECLIP C814 3430   5.555   4.597  10.034
    1ECLIPH814R 3431   5.517   4.627   9.934
    1ECLIPH814S 3432   5.468   4.585  10.102
    1ECLIPH814T 3433   5.607   4.499  10.025
    1ECLIP  C74 3434   5.204   4.507  11.058
    1ECLIP H74R 3435   5.108   4.451  11.055
    1ECLIP H74S 3436   5.287   4.436  11.077
    1ECLIP  C75 3437   5.227   4.567  10.918
    1ECLIP H75R 3438   5.289   4.495  10.861
    1ECLIP H75S 3439   5.284   4.662  10.924
    1ECLIP  C76 3440   5.097   4.587  10.838
    1ECLIP H76R 3441   5.044   4.677  10.874
    1ECLIP H76S 3442   5.029   4.500  10.854
    1ECLIP  C77 3443   5.121   4.599  10.686
    1ECLIP H77R 3444   5.163   4.504  10.647
    1ECLIP H77S 3445   5.195   4.679  10.667
    1ECLIP  C78 3446   4.991   4.633  10.613
    1ECLIP H78R 3447   4.920   4.548  10.621
    1ECLIP H78S 3448   4.947   4.720  10.665
    1ECLIP  C79 3449   5.005   4.676  10.467
    1ECLIP H79R 3450   5.059   4.773  10.463
    1ECLIP H79S 3451   4.903   4.694  10.427
    1ECLIP C710 3452   5.077   4.578  10.373
    1ECLIPH710R 3453   5.183   4.568  10.403
    1ECLIPH710S 3454   5.029   4.478  10.379
    1ECLIP C711 3455   5.067   4.633  10.230
    1ECLIPH711R 3456   4.959   4.642  10.206
    1ECLIPH711S 3457   5.110   4.735  10.228
    1ECLIP C712 3458   5.137   4.548  10.124
    1ECLIPH712R 3459   5.089   4.448  10.121
    1ECLIPH712S 3460   5.243   4.533  10.153
    1ECLIP C713 3461   5.130   4.613   9.985
    1ECLIPH713R 3462   5.192   4.704   9.985
    1ECLIPH713S 3463   5.173   4.542   9.911
    1ECLIP C714 3464   4.988   4.650   9.941
    1ECLIPH714R 3465   4.921   4.561   9.946
    1ECLIPH714S 3466   4.945   4.730  10.005
    1ECLIPH714T 3467   4.988   4.688   9.836
    1ECLIP  C51 3468   5.231   5.037  11.182
    1ECLIP  O51 3469   5.343   4.988  11.170
    1ECLIP  C52 3470   5.158   5.098  11.065
    1ECLIP H52R 3471   5.061   5.047  11.053
    1ECLIP H52S 3472   5.141   5.205  11.092
    1ECLIP  C53 3473   5.236   5.090  10.933
    1ECLIP H53R 3474   5.341   5.125  10.947
    1ECLIP  O53 3475   5.169   5.170  10.836
    1ECLIP  C61 3476   5.193   5.299  10.835
    1ECLIP  O61 3477   5.252   5.360  10.921
    1ECLIP  C62 3478   5.096   5.365  10.735
    1ECLIP H62R 3479   5.021   5.422  10.793
    1ECLIP H62S 3480   5.044   5.285  10.678
    1ECLIP  C63 3481   5.169   5.457  10.635
    1ECLIP H63R 3482   5.252   5.401  10.587
    1ECLIP H63S 3483   5.211   5.544  10.690
    1ECLIP  C64 3484   5.079   5.507  10.521
    1ECLIP H64R 3485   5.118   5.604  10.485
    1ECLIP H64S 3486   4.976   5.523  10.561
    1ECLIP  C65 3487   5.075   5.409  10.403
    1ECLIP H65R 3488   5.029   5.314  10.439
    1ECLIP H65S 3489   5.178   5.386  10.369
    1ECLIP  C66 3490   4.992   5.460  10.285
    1ECLIP H66R 3491   4.897   5.503  10.323
    1ECLIP H66S 3492   4.967   5.374  10.219
    1ECLIP  C67 3493   5.058   5.569  10.199
    1ECLIP H67R 3494   5.082   5.658  10.260
    1ECLIP H67S 3495   4.982   5.600  10.124
    1ECLIP  C68 3496   5.183   5.521  10.124
    1ECLIP H68R 3497   5.181   5.410  10.119
    1ECLIP H68S 3498   5.274   5.551  10.180
    1ECLIP  C69 3499   5.186   5.575   9.980
    1ECLIP H69R 3500   5.192   5.686   9.982
    1ECLIP H69S 3501   5.090   5.548   9.932
    1ECLIP C610 3502   5.302   5.518   9.898
    1ECLIPH610R 3503   5.305   5.408   9.908
    1ECLIPH610S 3504   5.398   5.557   9.939
    1ECLIP C611 3505   5.293   5.554   9.748
    1ECLIPH611R 3506   5.286   5.665   9.740
    1ECLIPH611S 3507   5.387   5.522   9.699
    1ECLIP C612 3508   5.174   5.492   9.675
    1ECLIPH612R 3509   5.177   5.381   9.683
    1ECLIPH612S 3510   5.077   5.528   9.718
    1ECLIPH612T 3511   5.176   5.521   9.568
    1ECLIP  C54 3512   5.237   4.947  10.876
    1ECLIP H54R 3513   5.133   4.910  10.868
    1ECLIP H54S 3514   5.290   4.883  10.950
    1ECLIP  C55 3515   5.306   4.934  10.739
    1ECLIP H55R 3516   5.342   4.830  10.727
    1ECLIP H55S 3517   5.395   5.001  10.738
    1ECLIP  C56 3518   5.215   4.969  10.621
    1ECLIP H56R 3519   5.177   5.073  10.631
    1ECLIP H56S 3520   5.125   4.902  10.623
    1ECLIP  C57 3521   5.286   4.960  10.486
    1ECLIP H57R 3522   5.314   4.854  10.466
    1ECLIP H57S 3523   5.379   5.021  10.494
    1ECLIP  C58 3524   5.200   5.016  10.374
    1ECLIP H58R 3525   5.104   4.960  10.371
    1ECLIP H58S 3526   5.176   5.121  10.397
    1ECLIP  C59 3527   5.264   5.009  10.235
    1ECLIP H59R 3528   5.289   4.903  10.210
    1ECLIP H59S 3529   5.358   5.069  10.233
    1ECLIP C510 3530   5.165   5.063  10.131
    1ECLIPH510R 3531   5.135   5.165  10.164
    1ECLIPH510S 3532   5.074   4.999  10.135
    1ECLIP C511 3533   5.214   5.068   9.987
    1ECLIPH511R 3534   5.294   5.145   9.978
    1ECLIPH511S 3535   5.258   4.969   9.960
    1ECLIP C512 3536   5.100   5.101   9.889
    1ECLIPH512R 3537   5.140   5.107   9.786
    1ECLIPH512S 3538   5.026   5.017   9.892
    1ECLIP C513 3539   5.026   5.232   9.921
    1ECLIPH513R 3540   5.100   5.315   9.917
    1ECLIPH513S 3541   4.986   5.228  10.024
    1ECLIP C514 3542   4.911   5.263   9.826
    1ECLIPH514R 3543   4.835   5.182   9.829
    1ECLIPH514S 3544   4.862   5.358   9.855
    1ECLIPH514T 3545   4.947   5.273   9.722
    1ECLIP  C33 3546   5.079   5.582  11.233
    1ECLIP H33R 3547   4.991   5.644  11.261
    1ECLIP  O33 3548   5.129   5.523  11.352
    1ECLIP HO33 3549   5.061   5.483  11.406
    1ECLIP  C34 3550   5.034   5.473  11.135
    1ECLIP H34R 3551   5.123   5.411  11.110
    1ECLIP H34S 3552   5.000   5.523  11.042
    1ECLIP  C35 3553   4.923   5.376  11.180
    1ECLIP H35R 3554   4.836   5.430  11.222
    1ECLIP H35S 3555   4.962   5.308  11.258
    1ECLIP  C36 3556   4.878   5.293  11.058
    1ECLIP H36R 3557   4.968   5.276  10.996
    1ECLIP H36S 3558   4.808   5.355  10.997
    1ECLIP  C37 3559   4.814   5.156  11.086
    1ECLIP H37R 3560   4.714   5.172  11.133
    1ECLIP H37S 3561   4.874   5.101  11.162
    1ECLIP  C38 3562   4.799   5.065  10.961
    1ECLIP H38R 3563   4.863   4.976  10.973
    1ECLIP H38S 3564   4.694   5.028  10.959
    1ECLIP  C39 3565   4.832   5.132  10.826
    1ECLIP H39R 3566   4.940   5.156  10.825
    1ECLIP H39S 3567   4.775   5.227  10.816
    1ECLIP C310 3568   4.804   5.046  10.702
    1ECLIPH310R 3569   4.695   5.025  10.697
    1ECLIPH310S 3570   4.858   4.949  10.714
    1ECLIP C311 3571   4.849   5.112  10.570
    1ECLIPH311R 3572   4.804   5.214  10.564
    1ECLIPH311S 3573   4.960   5.123  10.571
    1ECLIP C312 3574   4.809   5.033  10.446
    1ECLIPH312R 3575   4.858   4.933  10.451
    1ECLIPH312S 3576   4.699   5.018  10.447
    1ECLIP C313 3577   4.848   5.099  10.313
    1ECLIPH313R 3578   4.799   5.199  10.308
    1ECLIPH313S 3579   4.957   5.116  10.311
    1ECLIP C314 3580   4.805   5.020  10.189
    1ECLIPH314R 3581   4.694   5.010  10.187
    1ECLIPH314S 3582   4.837   5.071  10.096
    1ECLIPH314T 3583   4.850   4.918  10.191
    1ECLIP  C11 3584   5.598   5.362  10.894
    1ECLIP  O11 3585   5.543   5.255  10.876
    1ECLIP  C12 3586   5.696   5.415  10.791
    1ECLIP H12R 3587   5.794   5.367  10.810
    1ECLIP H12S 3588   5.707   5.525  10.802
    1ECLIP  C13 3589   5.650   5.381  10.648
    1ECLIP H13R 3590   5.632   5.272  10.638
    1ECLIP  O13 3591   5.756   5.417  10.561
    1ECLIP HO13 3592   5.737   5.398  10.469
    1ECLIP  C14 3593   5.524   5.458  10.605
    1ECLIP H14R 3594   5.533   5.562  10.643
    1ECLIP H14S 3595   5.439   5.411  10.658
    1ECLIP  C15 3596   5.497   5.468  10.453
    1ECLIP H15R 3597   5.579   5.528  10.408
    1ECLIP H15S 3598   5.404   5.527  10.437
    1ECLIP  C16 3599   5.483   5.335  10.376
    1ECLIP H16R 3600   5.380   5.296  10.392
    1ECLIP H16S 3601   5.553   5.259  10.416
    1ECLIP  C17 3602   5.509   5.352  10.225
    1ECLIP H17R 3603   5.461   5.446  10.190
    1ECLIP H17S 3604   5.463   5.268  10.169
    1ECLIP  C18 3605   5.660   5.357  10.193
    1ECLIP H18R 3606   5.708   5.424  10.267
    1ECLIP H18S 3607   5.704   5.256  10.206
    1ECLIP  C19 3608   5.695   5.413  10.054
    1ECLIP H19R 3609   5.805   5.430  10.053
    1ECLIP H19S 3610   5.646   5.511  10.039
    1ECLIP C110 3611   5.662   5.321   9.935
    1ECLIPH110R 3612   5.690   5.216   9.960
    1ECLIPH110S 3613   5.552   5.323   9.916
    1ECLIP C111 3614   5.739   5.365   9.810
    1ECLIPH111R 3615   5.722   5.473   9.793
    1ECLIPH111S 3616   5.848   5.350   9.828
    1ECLIP C112 3617   5.699   5.289   9.683
    1ECLIPH112R 3618   5.707   5.180   9.700
    1ECLIPH112S 3619   5.592   5.313   9.662
    1ECLIP C113 3620   5.784   5.328   9.562
    1ECLIPH113R 3621   5.786   5.439   9.553
    1ECLIPH113S 3622   5.889   5.295   9.580
    1ECLIP C114 3623   5.735   5.270   9.429
    1ECLIPH114R 3624   5.721   5.160   9.439
    1ECLIPH114S 3625   5.637   5.314   9.401
    1ECLIPH114T 3626   5.808   5.288   9.348
    2AKDO    C1 3627   5.102   5.065  11.979
    2AKDO   O11 3628   5.002   4.994  12.004
    2AKDO   O12 3629   5.103   5.185  11.937
    2AKDO    C2 3630   5.239   5.015  12.036
    2AKDO    C6 3631   5.367   4.845  12.148
    2AKDO    H6 3632   5.436   4.864  12.063
    2AKDO    O6 3633   5.236   4.885  12.101
    2AKDO    C3 3634   5.293   5.114  12.140
    2AKDO   H31 3635   5.221   5.117  12.225
    2AKDO   H32 3636   5.297   5.214  12.093
    2AKDO    C4 3637   5.426   5.077  12.194
    2AKDO    H4 3638   5.499   5.075  12.111
    2AKDO    O4 3639   5.465   5.173  12.293
    2AKDO    C5 3640   5.422   4.938  12.259
    2AKDO    H5 3641   5.529   4.910  12.270
    2AKDO    O5 3642   5.360   4.930  12.390
    2AKDO    C7 3643   5.377   4.694  12.165
    2AKDO    H7 3644   5.320   4.660  12.254
    2AKDO    O7 3645   5.516   4.657  12.174
    2AKDO   HO7 3646   5.515   4.580  12.116
    2AKDO    C8 3647   5.321   4.628  12.039
    2AKDO   H81 3648   5.211   4.644  12.035
    2AKDO   H82 3649   5.365   4.676  11.949
    2AKDO    O8 3650   5.346   4.487  12.026
    2AKDO   HO8 3651   5.313   4.470  11.938
    3AKDO    C1 3652   5.604   5.330  12.148
    3AKDO   O11 3653   5.630   5.452  12.125
    3AKDO   O12 3654   5.680   5.232  12.120
    3AKDO    C2 3655   5.496   5.307  12.260
    3AKDO    C6 3656   5.277   5.394  12.330
    3AKDO    H6 3657   5.237   5.291  12.343
    3AKDO    O6 3658   5.383   5.395  12.231
    3AKDO    C3 3659   5.550   5.349  12.397
    3AKDO   H31 3660   5.592   5.452  12.387
    3AKDO   H32 3661   5.635   5.283  12.424
    3AKDO    C4 3662   5.446   5.346  12.505
    3AKDO    H4 3663   5.403   5.245  12.516
    3AKDO    O4 3664   5.508   5.381  12.628
    3AKDO   HO4 3665   5.512   5.304  12.685
    3AKDO    C5 3666   5.332   5.440  12.466
    3AKDO    H5 3667   5.252   5.431  12.542
    3AKDO    O5 3668   5.373   5.578  12.460
    3AKDO   HO5 3669   5.442   5.581  12.394
    3AKDO    C7 3670   5.164   5.485  12.280
    3AKDO    H7 3671   5.207   5.586  12.266
    3AKDO    O7 3672   5.058   5.492  12.377
    3AKDO   HO7 3673   4.999   5.419  12.356
    3AKDO    C8 3674   5.107   5.438  12.148
    3AKDO   H81 3675   5.188   5.415  12.075
    3AKDO   H82 3676   5.048   5.345  12.161
    3AKDO    O8 3677   5.025   5.542  12.092
    3AKDO   HO8 3678   4.955   5.498  12.043
    4AHEP    C1 3679   5.422   4.839  12.481
    4AHEP    H1 3680   5.413   4.738  12.435
    4AHEP    C5 3681   5.590   4.985  12.566
    4AHEP    H5 3682   5.531   5.066  12.517
    4AHEP    O5 3683   5.564   4.864  12.493
    4AHEP    C2 3684   5.364   4.824  12.624
    4AHEP    H2 3685   5.254   4.818  12.609
    4AHEP    O2 3686   5.403   4.704  12.691
    4AHEP   HO2 3687   5.357   4.708  12.775
    4AHEP    C3 3688   5.391   4.946  12.712
    4AHEP    H3 3689   5.333   5.033  12.674
    4AHEP    O3 3690   5.358   4.916  12.852
    4AHEP    C4 3691   5.540   4.971  12.710
    4AHEP    H4 3692   5.593   4.886  12.758
    4AHEP    O4 3693   5.564   5.096  12.776
    4AHEP    P4 3694   5.667   5.112  12.903
    4AHEP  OP42 3695   5.640   5.248  12.962
    4AHEP  OP43 3696   5.809   5.103  12.849
    4AHEP  OP44 3697   5.644   4.997  12.999
    4AHEP    C6 3698   5.737   5.027  12.551
    4AHEP    H6 3699   5.746   5.133  12.585
    4AHEP    O6 3700   5.821   4.948  12.637
    4AHEP   HO6 3701   5.811   4.994  12.721
    4AHEP    C7 3702   5.789   5.019  12.408
    4AHEP   H71 3703   5.893   5.060  12.404
    4AHEP   H72 3704   5.725   5.084  12.344
    4AHEP    O7 3705   5.788   4.886  12.353
    4AHEP   HO7 3706   5.713   4.848  12.399
    5AHEP    C1 3707   5.285   5.013  12.927
    5AHEP    H1 3708   5.300   5.113  12.879
    5AHEP    C5 3709   5.112   4.858  12.995
    5AHEP    H5 3710   5.166   4.774  12.946
    5AHEP    O5 3711   5.145   4.982  12.929
    5AHEP    C2 3712   5.319   5.028  13.076
    5AHEP    H2 3713   5.426   5.055  13.085
    5AHEP    O2 3714   5.242   5.136  13.131
    5AHEP   HO2 3715   5.151   5.112  13.110
    5AHEP    C3 3716   5.295   4.898  13.155
    5AHEP    H3 3717   5.359   4.817  13.115
    5AHEP    O3 3718   5.316   4.918  13.296
    5AHEP    C4 3719   5.149   4.862  13.144
    5AHEP    H4 3720   5.085   4.936  13.198
    5AHEP    O4 3721   5.120   4.730  13.190
    5AHEP    P4 3722   5.154   4.655  13.332
    5AHEP  OP42 3723   5.300   4.611  13.328
    5AHEP  OP43 3724   5.065   4.532  13.340
    5AHEP  OP44 3725   5.131   4.752  13.447
    5AHEP    C6 3726   4.961   4.841  12.972
    5AHEP    H6 3727   4.925   4.756  13.035
    5AHEP    O6 3728   4.888   4.959  13.010
    5AHEP   HO6 3729   4.798   4.943  12.983
    5AHEP    C7 3730   4.933   4.807  12.826
    5AHEP   H71 3731   4.847   4.737  12.832
    5AHEP   H72 3732   5.016   4.749  12.780
    5AHEP    O7 3733   4.891   4.915  12.740
    6AHEP    C1 3734   5.000   4.983  12.680
    6AHEP    H1 3735   5.096   4.941  12.716
    6AHEP    C5 3736   4.893   5.020  12.469
    6AHEP    H5 3737   4.802   4.970  12.509
    6AHEP    O5 3738   5.005   4.964  12.539
    6AHEP    C2 3739   4.992   5.130  12.718
    6AHEP    H2 3740   4.979   5.137  12.828
    6AHEP    O2 3741   5.111   5.203  12.685
    6AHEP   HO2 3742   5.081   5.294  12.680
    6AHEP    C3 3743   4.872   5.191  12.651
    6AHEP    H3 3744   4.781   5.139  12.688
    6AHEP    O3 3745   4.860   5.331  12.685
    6AHEP   HO3 3746   4.768   5.357  12.675
    6AHEP    C4 3747   4.884   5.168  12.502
    6AHEP    H4 3748   4.978   5.217  12.467
    6AHEP    O4 3749   4.778   5.228  12.429
    6AHEP   HO4 3750   4.696   5.181  12.439
    6AHEP    C6 3751   4.896   4.993  12.318
    6AHEP    H6 3752   4.795   5.013  12.277
    6AHEP    O6 3753   4.984   5.086  12.254
    6AHEP   HO6 3754   4.985   5.059  12.162
    6AHEP    C7 3755   4.934   4.851  12.280
    6AHEP   H71 3756   4.918   4.834  12.171
    6AHEP   H72 3757   4.865   4.782  12.334
    6AHEP    O7 3758   5.068   4.812  12.313
    6AHEP   HO7 3759   5.122   4.861  12.252
    7AGLC    C1 3760   5.444   4.897  13.349
    7AGLC    H1 3761   5.489   4.805  13.305
    7AGLC    C5 3762   5.470   5.133  13.377
    7AGLC    H5 3763   5.367   5.144  13.336
    7AGLC    O5 3764   5.528   5.011  13.327
    7AGLC    C2 3765   5.433   4.884  13.502
    7AGLC    H2 3766   5.537   4.882  13.539
    7AGLC    O2 3767   5.377   4.762  13.550
    7AGLC   HO2 3768   5.291   4.753  13.506
    7AGLC    C3 3769   5.364   5.005  13.563
    7AGLC    H3 3770   5.267   5.017  13.511
    7AGLC    O3 3771   5.339   4.989  13.706
    7AGLC    C4 3772   5.455   5.122  13.529
    7AGLC    H4 3773   5.557   5.099  13.567
    7AGLC    O4 3774   5.415   5.244  13.589
    7AGLC   HO4 3775   5.451   5.248  13.678
    7AGLC    C6 3776   5.550   5.250  13.324
    7AGLC   H61 3777   5.595   5.223  13.226
    7AGLC   H62 3778   5.481   5.335  13.306
    7AGLC    O6 3779   5.651   5.294  13.416
    7AGLC   HO6 3780   5.605   5.309  13.499
    8AGLC    C1 3781   5.204   5.014  13.744
    8AGLC    H1 3782   5.164   5.100  13.687
    8AGLC    C5 3783   5.140   4.783  13.788
    8AGLC    H5 3784   5.243   4.750  13.764
    8AGLC    O5 3785   5.114   4.905  13.717
    8AGLC    C2 3786   5.196   5.041  13.893
    8AGLC    H2 3787   5.092   5.071  13.918
    8AGLC    O2 3788   5.285   5.145  13.935
    8AGLC    C3 3789   5.230   4.917  13.974
    8AGLC    H3 3790   5.330   4.883  13.940
    8AGLC    O3 3791   5.244   4.951  14.114
    8AGLC    C4 3792   5.131   4.808  13.939
    8AGLC    H4 3793   5.028   4.842  13.962
    8AGLC    O4 3794   5.158   4.688  14.009
    8AGLC   HO4 3795   5.107   4.623  13.960
    8AGLC    C6 3796   5.044   4.677  13.733
    8AGLC   H61 3797   4.983   4.722  13.651
    8AGLC   H62 3798   5.103   4.596  13.684
    8AGLC    O6 3799   4.956   4.619  13.830
    8AGLC   HO6 3800   4.867   4.627  13.795
    9AGAL    C1 3801   5.260   5.271  13.880
    9AGAL    H1 3802   5.250   5.267  13.769
    9AGAL    C5 3803   5.142   5.341  14.073
    9AGAL    H5 3804   5.171   5.242  14.114
    9AGAL    O5 3805   5.138   5.328  13.931
    9AGAL    C2 3806   5.378   5.359  13.914
    9AGAL    H2 3807   5.364   5.456  13.861
    9AGAL    O2 3808   5.493   5.291  13.857
    9AGAL    C3 3809   5.383   5.383  14.063
    9AGAL    H3 3810   5.400   5.287  14.116
    9AGAL    O3 3811   5.489   5.475  14.094
    9AGAL   HO3 3812   5.511   5.513  14.009
    9AGAL    C4 3813   5.251   5.440  14.112
    9AGAL    H4 3814   5.254   5.449  14.222
    9AGAL    O4 3815   5.224   5.569  14.057
    9AGAL   HO4 3816   5.132   5.565  14.029
    9AGAL    C6 3817   5.003   5.365  14.128
    9AGAL   H61 3818   4.933   5.301  14.071
    9AGAL   H62 3819   5.000   5.330  14.233
    9AGAL    O6 3820   4.960   5.501  14.123
    9AGAL   HO6 3821   4.883   5.501  14.066
   10AGAL    C1 3822   5.620   5.277  13.921
   10AGAL    H1 3823   5.662   5.379  13.938
   10AGAL    C5 3824   5.584   5.072  14.038
   10AGAL    H5 3825   5.486   5.060  13.988
   10AGAL    O5 3826   5.616   5.212  14.049
   10AGAL    C2 3827   5.720   5.208  13.830
   10AGAL    H2 3828   5.821   5.217  13.876
   10AGAL    O2 3829   5.725   5.276  13.704
   10AGAL   HO2 3830   5.800   5.249  13.651
   10AGAL    C3 3831   5.687   5.060  13.814
   10AGAL    H3 3832   5.586   5.048  13.769
   10AGAL    O3 3833   5.784   4.993  13.734
   10AGAL   HO3 3834   5.769   5.004  13.639
   10AGAL    C4 3835   5.684   4.996  13.952
   10AGAL    H4 3836   5.648   4.892  13.939
   10AGAL    O4 3837   5.814   4.990  14.010
   10AGAL   HO4 3838   5.871   4.977  13.933
   10AGAL    C6 3839   5.569   5.015  14.179
   10AGAL   H61 3840   5.475   5.054  14.223
   10AGAL   H62 3841   5.559   4.904  14.173
   10AGAL    O6 3842   5.678   5.049  14.264
   10AGAL   HO6 3843   5.758   5.026  14.217
   11BGLC    C1 3844   5.136   4.935  14.204
   11BGLC    H1 3845   5.102   4.830  14.209
   11BGLC    C5 3846   4.922   5.015  14.274
   11BGLC    H5 3847   4.891   4.908  14.281
   11BGLC    O5 3848   5.027   5.024  14.176
   11BGLC    C2 3849   5.196   4.977  14.338
   11BGLC    H2 3850   5.232   5.082  14.327
   11BGLC    O2 3851   5.309   4.897  14.374
   11BGLC   HO2 3852   5.334   4.848  14.296
   11BGLC    C3 3853   5.093   4.973  14.448
   11BGLC    H3 3854   5.060   4.869  14.470
   11BGLC    O3 3855   5.146   5.038  14.564
   11BGLC    C4 3856   4.978   5.060  14.407
   11BGLC    H4 3857   5.017   5.163  14.393
   11BGLC    O4 3858   4.877   5.068  14.507
   11BGLC   HO4 3859   4.865   5.161  14.529
   11BGLC    C6 3860   4.797   5.096  14.242
   11BGLC   H61 3861   4.711   5.056  14.300
   11BGLC   H62 3862   4.815   5.200  14.276
   11BGLC    O6 3863   4.762   5.102  14.105
   11BGLC   HO6 3864   4.737   5.016  14.070
   12BGLCN   C1 3865   5.152   4.969  14.686
   12BGLCN   H1 3866   5.245   4.908  14.687
   12BGLCN   C5 3867   5.047   4.824  14.841
   12BGLCN   H5 3868   5.138   4.761  14.845
   12BGLCN   O5 3869   5.038   4.887  14.712
   12BGLCN   C2 3870   5.158   5.083  14.787
   12BGLCN   H2 3871   5.059   5.132  14.783
   12BGLCN    N 3872   5.258   5.181  14.745
   12BGLCN   HN 3873   5.334   5.146  14.692
   12BGLCN    C 3874   5.237   5.314  14.747
   12BGLCN    O 3875   5.145   5.366  14.808
   12BGLCN   CT 3876   5.336   5.398  14.670
   12BGLCN  HT1 3877   5.371   5.481  14.734
   12BGLCN  HT2 3878   5.285   5.440  14.581
   12BGLCN  HT3 3879   5.422   5.337  14.638
   12BGLCN   C3 3880   5.175   5.024  14.926
   12BGLCN   H3 3881   5.269   4.966  14.929
   12BGLCN   O3 3882   5.177   5.128  15.027
   12BGLCN   C4 3883   5.056   4.931  14.950
   12BGLCN   H4 3884   4.963   4.992  14.946
   12BGLCN   O4 3885   5.063   4.869  15.078
   12BGLCN  HO4 3886   5.051   4.774  15.069
   12BGLCN   C6 3887   4.924   4.735  14.852
   12BGLCN  H61 3888   4.909   4.701  14.957
   12BGLCN  H62 3889   4.833   4.792  14.822
   12BGLCN   O6 3890   4.935   4.618  14.771
   12BGLCN  HO6 3891   4.934   4.644  14.678
   13AGAL    C1 3892   5.269   5.106  15.133
   13AGAL    H1 3893   5.268   4.999  15.163
   13AGAL    C5 3894   5.411   5.284  15.057
   13AGAL    H5 3895   5.333   5.303  14.981
   13AGAL    O5 3896   5.403   5.144  15.094
   13AGAL    C2 3897   5.238   5.191  15.256
   13AGAL    H2 3898   5.323   5.175  15.325
   13AGAL    O2 3899   5.119   5.146  15.324
   13AGAL    C3 3900   5.238   5.338  15.221
   13AGAL    H3 3901   5.167   5.355  15.137
   13AGAL    O3 3902   5.195   5.420  15.330
   13AGAL   HO3 3903   5.101   5.438  15.321
   13AGAL    C4 3904   5.378   5.376  15.174
   13AGAL    H4 3905   5.376   5.481  15.138
   13AGAL    O4 3906   5.476   5.368  15.277
   13AGAL   HO4 3907   5.515   5.280  15.272
   13AGAL    C6 3908   5.544   5.312  14.987
   13AGAL   H61 3909   5.559   5.237  14.906
   13AGAL   H62 3910   5.539   5.412  14.940
   13AGAL    O6 3911   5.657   5.308  15.074
   13AGAL   HO6 3912   5.648   5.379  15.138
   14ARHM    C1 3913   5.141   5.082  15.448
   14ARHM    H1 3914   5.237   5.027  15.445
   14ARHM    C5 3915   4.912   5.038  15.494
   14ARHM    H5 3916   4.878   5.085  15.399
   14ARHM    O5 3917   5.043   4.983  15.476
   14ARHM    C2 3918   5.146   5.187  15.557
   14ARHM    H2 3919   5.221   5.263  15.530
   14ARHM    O2 3920   5.175   5.139  15.690
   14ARHM    C3 3921   5.009   5.251  15.568
   14ARHM    H3 3922   4.980   5.292  15.469
   14ARHM    O3 3923   5.008   5.361  15.659
   14ARHM   HO3 3924   5.057   5.339  15.739
   14ARHM    C4 3925   4.910   5.142  15.605
   14ARHM    H4 3926   4.944   5.092  15.698
   14ARHM    O4 3927   4.779   5.191  15.630
   14ARHM   HO4 3928   4.784   5.245  15.710
   14ARHM    C6 3929   4.824   4.917  15.523
   14ARHM   H61 3930   4.825   4.849  15.435
   14ARHM   H62 3931   4.862   4.861  15.611
   14ARHM   H63 3932   4.719   4.949  15.543
   15ARHM    C1 3933   5.289   5.060  15.710
   15ARHM    H1 3934   5.370   5.089  15.640
   15ARHM    C5 3935   5.163   4.871  15.791
   15ARHM    H5 3936   5.066   4.921  15.771
   15ARHM    O5 3937   5.262   4.919  15.699
   15ARHM    C2 3938   5.332   5.091  15.852
   15ARHM    H2 3939   5.348   5.201  15.860
   15ARHM    O2 3940   5.457   5.024  15.875
   15ARHM    C3 3941   5.222   5.050  15.947
   15ARHM    H3 3942   5.128   5.097  15.913
   15ARHM    O3 3943   5.249   5.101  16.078
   15ARHM    C4 3944   5.205   4.900  15.936
   15ARHM    H4 3945   5.302   4.849  15.953
   15ARHM    O4 3946   5.112   4.848  16.032
   15ARHM   HO4 3947   5.065   4.773  15.995
   15ARHM    C6 3948   5.145   4.721  15.761
   15ARHM   H61 3949   5.067   4.675  15.825
   15ARHM   H62 3950   5.114   4.708  15.655
   15ARHM   H63 3951   5.240   4.666  15.777
   16BMANN   C1 3952   5.514   5.037  16.002
   16BMANN   H1 3953   5.455   4.980  16.076
   16BMANN   C5 3954   5.582   5.187  16.174
   16BMANN   H5 3955   5.521   5.130  16.246
   16BMANN   O5 3956   5.525   5.175  16.042
   16BMANN   C2 3957   5.652   4.978  15.991
   16BMANN   H2 3958   5.638   4.871  15.967
   16BMANN    N 3959   5.726   5.041  15.882
   16BMANN   HN 3960   5.713   5.139  15.871
   16BMANN    C 3961   5.797   4.974  15.790
   16BMANN    O 3962   5.814   4.853  15.794
   16BMANN   CT 3963   5.854   5.056  15.678
   16BMANN  HT1 3964   5.939   5.002  15.632
   16BMANN  HT2 3965   5.887   5.155  15.715
   16BMANN  HT3 3966   5.776   5.070  15.600
   16BMANN   C3 3967   5.718   4.987  16.127
   16BMANN   H3 3968   5.656   4.930  16.199
   16BMANN   O3 3969   5.847   4.926  16.125
   16BMANN  HO3 3970   5.856   4.866  16.199
   16BMANN   C4 3971   5.724   5.131  16.174
   16BMANN   H4 3972   5.787   5.190  16.103
   16BMANN   O4 3973   5.782   5.142  16.304
   16BMANN  HO4 3974   5.876   5.123  16.297
   16BMANN   C6 3975   5.574   5.334  16.212
   16BMANN  H61 3976   5.613   5.348  16.315
   16BMANN  H62 3977   5.636   5.394  16.142
   16BMANN   O6 3978   5.439   5.381  16.206
   16BMANN  HO6 3979   5.400   5.347  16.126
   17BGLCN   C1 3980   5.133   5.140  16.147
   17BGLCN   H1 3981   5.047   5.076  16.117
   17BGLCN   C5 3982   4.982   5.315  16.195
   17BGLCN   H5 3983   4.899   5.251  16.159
   17BGLCN   O5 3984   5.102   5.278  16.126
   17BGLCN   C2 3985   5.162   5.117  16.293
   17BGLCN   H2 3986   5.242   5.187  16.324
   17BGLCN    N 3987   5.214   4.981  16.309
   17BGLCN   HN 3988   5.185   4.918  16.237
   17BGLCN    C 3989   5.300   4.939  16.402
   17BGLCN    O 3990   5.349   5.011  16.489
   17BGLCN   CT 3991   5.335   4.793  16.395
   17BGLCN  HT1 3992   5.412   4.777  16.316
   17BGLCN  HT2 3993   5.245   4.733  16.371
   17BGLCN  HT3 3994   5.375   4.761  16.493
   17BGLCN   C3 3995   5.036   5.149  16.371
   17BGLCN   H3 3996   4.955   5.086  16.328
   17BGLCN   O3 3997   5.052   5.114  16.511
   17BGLCN   C4 3998   4.999   5.294  16.345
   17BGLCN   H4 3999   5.081   5.359  16.382
   17BGLCN   O4 4000   4.879   5.330  16.413
   17BGLCN  HO4 4001   4.877   5.425  16.432
   17BGLCN   C6 4002   4.946   5.458  16.157
   17BGLCN  H61 4003   4.856   5.490  16.214
   17BGLCN  H62 4004   5.029   5.527  16.183
   17BGLCN   O6 4005   4.914   5.473  16.019
   17BGLCN  HO6 4006   4.993   5.459  15.966
   18AGAL    C1 4007   4.933   5.078  16.580
   18AGAL    H1 4008   4.868   5.166  16.593
   18AGAL    C5 4009   4.935   4.854  16.494
   18AGAL    H5 4010   5.032   4.882  16.449
   18AGAL    O5 4011   4.859   4.976  16.511
   18AGAL    C2 4012   4.968   5.026  16.720
   18AGAL    H2 4013   4.870   5.002  16.768
   18AGAL    O2 4014   5.033   5.127  16.800
   18AGAL    C3 4015   5.048   4.897  16.708
   18AGAL    H3 4016   5.141   4.922  16.652
   18AGAL    O3 4017   5.087   4.844  16.834
   18AGAL   HO3 4018   5.174   4.804  16.827
   18AGAL    C4 4019   4.969   4.794  16.629
   18AGAL    H4 4020   5.034   4.706  16.613
   18AGAL    O4 4021   4.853   4.750  16.699
   18AGAL   HO4 4022   4.873   4.754  16.792
   18AGAL    C6 4023   4.875   4.754  16.394
   18AGAL   H61 4024   4.933   4.761  16.299
   18AGAL   H62 4025   4.887   4.650  16.432
   18AGAL    O6 4026   4.739   4.777  16.361
   18AGAL   HO6 4027   4.684   4.764  16.438
   19ARHM    C1 4028   5.006   5.120  16.939
   19ARHM    H1 4029   4.994   5.015  16.971
   19ARHM    C5 4030   4.888   5.327  16.945
   19ARHM    H5 4031   4.908   5.340  16.836
   19ARHM    O5 4032   4.884   5.187  16.975
   19ARHM    C2 4033   5.122   5.183  17.014
   19ARHM    H2 4034   5.215   5.140  16.972
   19ARHM    O2 4035   5.121   5.157  17.157
   19ARHM    C3 4036   5.130   5.331  16.988
   19ARHM    H3 4037   5.149   5.348  16.880
   19ARHM    O3 4038   5.240   5.389  17.059
   19ARHM   HO3 4039   5.225   5.375  17.153
   19ARHM    C4 4040   4.998   5.395  17.025
   19ARHM    H4 4041   4.978   5.376  17.133
   19ARHM    O4 4042   4.997   5.536  17.006
   19ARHM   HO4 4043   5.025   5.554  16.916
   19ARHM    C6 4044   4.747   5.378  16.973
   19ARHM   H61 4045   4.674   5.325  16.909
   19ARHM   H62 4046   4.719   5.361  17.079
   19ARHM   H63 4047   4.740   5.487  16.953
   20ARHM    C1 4048   5.156   5.025  17.189
   20ARHM    H1 4049   5.224   4.983  17.112
   20ARHM    C5 4050   4.949   4.980  17.299
   20ARHM    H5 4051   4.916   5.084  17.279
   20ARHM    O5 4052   5.041   4.939  17.197
   20ARHM    C2 4053   5.227   5.023  17.323
   20ARHM    H2 4054   5.309   5.099  17.320
   20ARHM    O2 4055   5.285   4.895  17.352
   20ARHM    C3 4056   5.135   5.064  17.435
   20ARHM    H3 4057   5.103   5.169  17.420
   20ARHM    O3 4058   5.206   5.051  17.558
   20ARHM    C4 4059   5.015   4.973  17.435
   20ARHM    H4 4060   5.050   4.868  17.452
   20ARHM    O4 4061   4.923   5.007  17.539
   20ARHM   HO4 4062   4.847   4.948  17.532
   20ARHM    C6 4063   4.827   4.887  17.284
   20ARHM   H61 4064   4.857   4.781  17.299
   20ARHM   H62 4065   4.749   4.915  17.358
   20ARHM   H63 4066   4.784   4.897  17.182
   21BMANN   C1 4067   5.395   4.861  17.271
   21BMANN   H1 4068   5.436   4.951  17.221
   21BMANN   C5 4069   5.465   4.727  17.087
   21BMANN   H5 4070   5.503   4.818  17.035
   21BMANN   O5 4071   5.356   4.764  17.174
   21BMANN   C2 4072   5.500   4.801  17.362
   21BMANN   H2 4073   5.532   4.885  17.427
   21BMANN    N 4074   5.448   4.695  17.448
   21BMANN   HN 4075   5.384   4.631  17.407
   21BMANN    C 4076   5.478   4.684  17.579
   21BMANN    O 4077   5.558   4.758  17.635
   21BMANN   CT 4078   5.408   4.575  17.655
   21BMANN  HT1 4079   5.474   4.486  17.662
   21BMANN  HT2 4080   5.313   4.547  17.604
   21BMANN  HT3 4081   5.385   4.612  17.757
   21BMANN   C3 4082   5.620   4.762  17.278
   21BMANN   H3 4083   5.662   4.852  17.230
   21BMANN   O3 4084   5.722   4.704  17.361
   21BMANN  HO3 4085   5.765   4.772  17.413
   21BMANN   C4 4086   5.577   4.665  17.170
   21BMANN   H4 4087   5.537   4.572  17.215
   21BMANN   O4 4088   5.684   4.632  17.082
   21BMANN  HO4 4089   5.739   4.564  17.123
   21BMANN   C6 4090   5.413   4.631  16.983
   21BMANN  H61 4091   5.490   4.611  16.906
   21BMANN  H62 4092   5.389   4.534  17.033
   21BMANN   O6 4093   5.295   4.680  16.919
   21BMANN  HO6 4094   5.227   4.689  16.986
   22BGLCN   C1 4095   5.182   5.147  17.657
   22BGLCN   H1 4096   5.079   5.188  17.649
   22BGLCN   C5 4097   5.269   5.344  17.755
   22BGLCN   H5 4098   5.167   5.388  17.753
   22BGLCN   O5 4099   5.281   5.249  17.649
   22BGLCN   C2 4100   5.200   5.071  17.786
   22BGLCN   H2 4101   5.304   5.030  17.785
   22BGLCN    N 4102   5.107   4.959  17.792
   22BGLCN   HN 4103   5.019   4.974  17.746
   22BGLCN    C 4104   5.135   4.839  17.844
   22BGLCN    O 4105   5.245   4.810  17.890
   22BGLCN   CT 4106   5.023   4.739  17.842
   22BGLCN  HT1 4107   5.025   4.683  17.746
   22BGLCN  HT2 4108   4.925   4.790  17.852
   22BGLCN  HT3 4109   5.036   4.668  17.926
   22BGLCN   C3 4110   5.188   5.165  17.905
   22BGLCN   H3 4111   5.086   5.209  17.906
   22BGLCN   O3 4112   5.207   5.083  18.023
   22BGLCN   C4 4113   5.291   5.275  17.889
   22BGLCN   H4 4114   5.392   5.230  17.892
   22BGLCN   O4 4115   5.281   5.373  17.992
   22BGLCN  HO4 4116   5.367   5.409  18.014
   22BGLCN   C6 4117   5.369   5.454  17.726
   22BGLCN  H61 4118   5.363   5.530  17.806
   22BGLCN  H62 4119   5.472   5.413  17.726
   22BGLCN   O6 4120   5.344   5.519  17.600
   22BGLCN  HO6 4121   5.385   5.468  17.530
   23AGAL    C1 4122   5.175   5.135  18.150
   23AGAL    H1 4123   5.247   5.215  18.177
   23AGAL    C5 4124   4.943   5.088  18.127
   23AGAL    H5 4125   4.965   5.044  18.027
   23AGAL    O5 4126   5.042   5.188  18.155
   23AGAL    C2 4127   5.187   5.026  18.255
   23AGAL    H2 4128   5.159   5.072  18.352
   23AGAL    O2 4129   5.320   4.973  18.265
   23AGAL    C3 4130   5.087   4.915  18.227
   23AGAL    H3 4131   5.109   4.872  18.127
   23AGAL    O3 4132   5.097   4.810  18.323
   23AGAL   HO3 4133   5.033   4.830  18.392
   23AGAL    C4 4134   4.948   4.974  18.229
   23AGAL    H4 4135   4.875   4.896  18.198
   23AGAL    O4 4136   4.911   5.017  18.360
   23AGAL   HO4 4137   4.849   5.089  18.345
   23AGAL    C6 4138   4.808   5.157  18.114
   23AGAL   H61 4139   4.821   5.247  18.050
   23AGAL   H62 4140   4.738   5.089  18.062
   23AGAL    O6 4141   4.749   5.197  18.238
   23AGAL   HO6 4142   4.654   5.199  18.228
   24ARHM    C1 4143   5.403   5.034  18.360
   24ARHM    H1 4144   5.378   5.142  18.365
   24ARHM    C5 4145   5.588   4.893  18.315
   24ARHM    H5 4146   5.526   4.835  18.243
   24ARHM    O5 4147   5.541   5.028  18.323
   24ARHM    C2 4148   5.382   4.971  18.496
   24ARHM    H2 4149   5.273   4.968  18.519
   24ARHM    O2 4150   5.450   5.045  18.599
   24ARHM    C3 4151   5.431   4.828  18.495
   24ARHM    H3 4152   5.372   4.771  18.420
   24ARHM    O3 4153   5.412   4.765  18.622
   24ARHM   HO3 4154   5.460   4.682  18.617
   24ARHM    C4 4155   5.576   4.828  18.453
   24ARHM    H4 4156   5.634   4.890  18.525
   24ARHM    O4 4157   5.633   4.697  18.456
   24ARHM   HO4 4158   5.714   4.701  18.508
   24ARHM    C6 4159   5.731   4.902  18.259
   24ARHM   H61 4160   5.776   4.801  18.249
   24ARHM   H62 4161   5.728   4.948  18.158
   24ARHM   H63 4162   5.795   4.965  18.324
   25ARHM    C1 4163   5.377   5.155  18.647
   25ARHM    H1 4164   5.297   5.181  18.574
   25ARHM    C5 4165   5.558   5.262  18.757
   25ARHM    H5 4166   5.624   5.177  18.733
   25ARHM    O5 4167   5.457   5.274  18.657
   25ARHM    C2 4168   5.311   5.120  18.778
   25ARHM    H2 4169   5.262   5.021  18.769
   25ARHM    O2 4170   5.213   5.218  18.816
   25ARHM    C3 4171   5.416   5.107  18.886
   25ARHM    H3 4172   5.485   5.024  18.859
   25ARHM    O3 4173   5.350   5.075  19.010
   25ARHM    C4 4174   5.493   5.237  18.893
   25ARHM    H4 4175   5.420   5.319  18.912
   25ARHM    O4 4176   5.589   5.240  18.999
   25ARHM   HO4 4177   5.585   5.328  19.037
   25ARHM    C6 4178   5.641   5.391  18.748
   25ARHM   H61 4179   5.686   5.400  18.647
   25ARHM   H62 4180   5.577   5.480  18.764
   25ARHM   H63 4181   5.723   5.392  18.823
   26BMANN   C1 4182   5.089   5.205  18.750
   26BMANN   H1 4183   5.080   5.107  18.699
   26BMANN   C5 4184   4.940   5.301  18.591
   26BMANN   H5 4185   4.936   5.204  18.538
   26BMANN   O5 4186   5.068   5.311  18.656
   26BMANN   C2 4187   4.985   5.218  18.858
   26BMANN   H2 4188   5.003   5.135  18.930
   26BMANN    N 4189   5.000   5.345  18.927
   26BMANN   HN 4190   5.032   5.419  18.870
   26BMANN    C 4191   4.976   5.365  19.057
   26BMANN    O 4192   4.940   5.276  19.133
   26BMANN   CT 4193   5.000   5.505  19.107
   26BMANN  HT1 4194   5.014   5.575  19.021
   26BMANN  HT2 4195   5.091   5.506  19.170
   26BMANN  HT3 4196   4.912   5.538  19.166
   26BMANN   C3 4197   4.849   5.197  18.794
   26BMANN   H3 4198   4.849   5.099  18.741
   26BMANN   O3 4199   4.746   5.191  18.892
   26BMANN  HO3 4200   4.750   5.106  18.937
   26BMANN   C4 4201   4.826   5.307  18.692
   26BMANN   H4 4202   4.824   5.405  18.743
   26BMANN   O4 4203   4.702   5.290  18.624
   26BMANN  HO4 4204   4.646   5.229  18.673
   26BMANN   C6 4205   4.931   5.410  18.485
   26BMANN  H61 4206   5.025   5.412  18.426
   26BMANN  H62 4207   4.848   5.387  18.415
   26BMANN   O6 4208   4.908   5.540  18.541
   26BMANN  HO6 4209   4.815   5.549  18.560
   27BGLCN   C1 4210   5.416   4.983  19.092
   27BGLCN   H1 4211   5.526   4.998  19.087
   27BGLCN   C5 4212   5.442   4.751  19.142
   27BGLCN   H5 4213   5.553   4.762  19.135
   27BGLCN   O5 4214   5.380   4.849  19.056
   27BGLCN   C2 4215   5.365   5.010  19.232
   27BGLCN   H2 4216   5.256   4.987  19.232
   27BGLCN    N 4217   5.379   5.151  19.267
   27BGLCN   HN 4218   5.452   5.201  19.221
   27BGLCN    C 4219   5.296   5.219  19.348
   27BGLCN    O 4220   5.202   5.167  19.408
   27BGLCN   CT 4221   5.324   5.366  19.363
   27BGLCN  HT1 4222   5.390   5.402  19.282
   27BGLCN  HT2 4223   5.372   5.385  19.461
   27BGLCN  HT3 4224   5.228   5.422  19.359
   27BGLCN   C3 4225   5.433   4.915  19.329
   27BGLCN   H3 4226   5.542   4.929  19.319
   27BGLCN   O3 4227   5.392   4.951  19.462
   27BGLCN   C4 4228   5.399   4.773  19.286
   27BGLCN   H4 4229   5.289   4.759  19.293
   27BGLCN   O4 4230   5.461   4.675  19.369
   27BGLCN  HO4 4231   5.556   4.684  19.363
   27BGLCN   C6 4232   5.405   4.614  19.088
   27BGLCN  H61 4233   5.444   4.535  19.155
   27BGLCN  H62 4234   5.295   4.603  19.085
   27BGLCN   O6 4235   5.459   4.593  18.957
   27BGLCN  HO6 4236   5.425   4.661  18.899
   28AGAL    C1 4237   5.463   4.897   0.098
   28AGAL    H1 4238   5.436   4.790   0.110
   28AGAL    C5 4239   5.648   5.048   0.076
   28AGAL    H5 4240   5.596   5.096  19.463
   28AGAL    O5 4241   5.606   4.910   0.084
   28AGAL    C2 4242   5.426   4.968   0.227
   28AGAL    H2 4243   5.496   4.925   0.301
   28AGAL    O2 4244   5.291   4.941   0.271
   28AGAL    C3 4245   5.458   5.116   0.217
   28AGAL    H3 4246   5.410   5.156   0.126
   28AGAL    O3 4247   5.407   5.191   0.327
   28AGAL   HO3 4248   5.314   5.205   0.308
   28AGAL    C4 4249   5.609   5.129   0.200
   28AGAL    H4 4250   5.631   5.236   0.179
   28AGAL    O4 4251   5.682   5.093   0.317
   28AGAL   HO4 4252   5.740   5.166   0.336
   28AGAL    C6 4253   5.797   5.052   0.041
   28AGAL   H61 4254   5.811   5.012  19.411
   28AGAL   H62 4255   5.831   5.157   0.041
   28AGAL    O6 4256   5.879   4.977   0.131
   28AGAL   HO6 4257   5.862   4.883   0.123
   29ARHM    C1 4258   5.286   4.897   0.405
   29ARHM    H1 4259   5.377   4.930   0.459
   29ARHM    C5 4260   5.155   4.703   0.355
   29ARHM    H5 4261   5.152   4.732   0.247
   29ARHM    O5 4262   5.277   4.753   0.413
   29ARHM    C2 4263   5.170   4.960   0.478
   29ARHM    H2 4264   5.175   5.070   0.461
   29ARHM    O2 4265   5.180   4.932   0.619
   29ARHM    C3 4266   5.039   4.913   0.419
   29ARHM    H3 4267   5.035   4.944   0.313
   29ARHM    O3 4268   4.928   4.971   0.487
   29ARHM   HO3 4269   4.850   4.923   0.456
   29ARHM    C4 4270   5.035   4.762   0.427
   29ARHM    H4 4271   5.042   4.732   0.534
   29ARHM    O4 4272   4.911   4.709   0.378
   29ARHM   HO4 4273   4.905   4.717   0.282
   29ARHM    C6 4274   5.161   4.549   0.362
   29ARHM   H61 4275   5.254   4.511   0.317
   29ARHM   H62 4276   5.153   4.515   0.468
   29ARHM   H63 4277   5.075   4.505   0.307
   30ARHM    C1 4278   5.237   5.036   0.695
   30ARHM    H1 4279   5.188   5.132   0.668
   30ARHM    C5 4280   5.454   4.932   0.711
   30ARHM    H5 4281   5.416   4.844   0.654
   30ARHM    O5 4282   5.379   5.049   0.672
   30ARHM    C2 4283   5.213   5.009   0.842
   30ARHM    H2 4284   5.105   4.991   0.857
   30ARHM    O2 4285   5.256   5.121   0.921
   30ARHM    C3 4286   5.288   4.885   0.887
   30ARHM    H3 4287   5.254   4.801   0.822
   30ARHM    O3 4288   5.250   4.848   1.021
   30ARHM    C4 4289   5.437   4.903   0.859
   30ARHM    H4 4290   5.474   4.991   0.916
   30ARHM    O4 4291   5.515   4.790   0.897
   30ARHM   HO4 4292   5.514   4.723   0.827
   30ARHM    C6 4293   5.600   4.957   0.669
   30ARHM   H61 4294   5.662   4.866   0.686
   30ARHM   H62 4295   5.605   4.982   0.561
   30ARHM   H63 4296   5.643   5.040   0.728
   31BMANN   C1 4297   5.160   5.222   0.943
   31BMANN   H1 4298   5.060   5.178   0.962
   31BMANN   C5 4299   5.062   5.422   0.856
   31BMANN   H5 4300   4.962   5.378   0.876
   31BMANN   O5 4301   5.156   5.315   0.834
   31BMANN   C2 4302   5.210   5.297   1.065
   31BMANN   H2 4303   5.204   5.225   1.150
   31BMANN    N 4304   5.348   5.340   1.052
   31BMANN   HN 4305   5.379   5.367   0.961
   31BMANN    C 4306   5.437   5.342   1.152
   31BMANN    O 4307   5.411   5.299   1.264
   31BMANN   CT 4308   5.574   5.396   1.120
   31BMANN  HT1 4309   5.564   5.486   1.055
   31BMANN  HT2 4310   5.633   5.319   1.066
   31BMANN  HT3 4311   5.626   5.424   1.214
   31BMANN   C3 4312   5.113   5.409   1.096
   31BMANN   H3 4313   5.012   5.364   1.108
   31BMANN   O3 4314   5.142   5.474   1.219
   31BMANN  HO3 4315   5.230   5.513   1.213
   31BMANN   C4 4316   5.104   5.504   0.978
   31BMANN   H4 4317   5.204   5.549   0.958
   31BMANN   O4 4318   5.012   5.610   1.003
   31BMANN  HO4 4319   5.027   5.640   1.093
   31BMANN   C6 4320   5.049   5.504   0.729
   31BMANN  H61 4321   4.978   5.589   0.744
   31BMANN  H62 4322   5.148   5.548   0.703
   31BMANN   O6 4323   5.003   5.425   0.619
   31BMANN  HO6 4324   4.910   5.405   0.628
   32BGLCN   C1 4325   5.318   4.910   1.128
   32BGLCN   H1 4326   5.340   5.017   1.106
   32BGLCN   C5 4327   5.510   4.901   1.271
   32BGLCN   H5 4328   5.530   5.008   1.249
   32BGLCN   O5 4329   5.439   4.841   1.162
   32BGLCN   C2 4330   5.225   4.900   1.248
   32BGLCN   H2 4331   5.217   4.793   1.274
   32BGLCN    N 4332   5.091   4.952   1.223
   32BGLCN   HN 4333   5.083   5.050   1.207
   32BGLCN    C 4334   4.980   4.876   1.225
   32BGLCN    O 4335   4.980   4.754   1.237
   32BGLCN   CT 4336   4.849   4.949   1.210
   32BGLCN  HT1 4337   4.866   5.055   1.180
   32BGLCN  HT2 4338   4.792   4.946   1.305
   32BGLCN  HT3 4339   4.790   4.899   1.130
   32BGLCN   C3 4340   5.294   4.970   1.364
   32BGLCN   H3 4341   5.323   5.071   1.326
   32BGLCN   O3 4342   5.213   4.988   1.482
   32BGLCN   C4 4343   5.421   4.893   1.394
   32BGLCN   H4 4344   5.394   4.786   1.412
   32BGLCN   O4 4345   5.485   4.939   1.512
   32BGLCN  HO4 4346   5.416   4.955   1.578
   32BGLCN   C6 4347   5.643   4.831   1.282
   32BGLCN  H61 4348   5.703   4.876   1.365
   32BGLCN  H62 4349   5.628   4.723   1.306
   32BGLCN   O6 4350   5.718   4.842   1.161
   32BGLCN  HO6 4351   5.659   4.824   1.087
   33AGAL    C1 4352   5.221   5.121   1.531
   33AGAL    H1 4353   5.324   5.162   1.518
   33AGAL    C5 4354   4.991   5.167   1.484
   33AGAL    H5 4355   4.976   5.063   1.447
   33AGAL    O5 4356   5.128   5.206   1.463
   33AGAL    C2 4357   5.189   5.124   1.679
   33AGAL    H2 4358   5.197   5.231   1.709
   33AGAL    O2 4359   5.289   5.050   1.752
   33AGAL    C3 4360   5.048   5.077   1.705
   33AGAL    H3 4361   5.038   4.973   1.667
   33AGAL    O3 4362   5.015   5.075   1.844
   33AGAL   HO3 4363   4.988   5.165   1.865
   33AGAL    C4 4364   4.953   5.168   1.632
   33AGAL    H4 4365   4.850   5.128   1.641
   33AGAL    O4 4366   4.952   5.300   1.685
   33AGAL   HO4 4367   4.953   5.360   1.610
   33AGAL    C6 4368   4.905   5.260   1.399
   33AGAL   H61 4369   4.925   5.241   1.292
   33AGAL   H62 4370   4.798   5.239   1.418
   33AGAL    O6 4371   4.931   5.399   1.425
   33AGAL   HO6 4372   5.009   5.426   1.378
   34ARHM    C1 4373   5.329   5.114   1.871
   34ARHM    H1 4374   5.240   5.155   1.924
   34ARHM    C5 4375   5.541   5.180   1.783
   34ARHM    H5 4376   5.518   5.135   1.683
   34ARHM    O5 4377   5.420   5.222   1.846
   34ARHM    C2 4378   5.395   5.010   1.959
   34ARHM    H2 4379   5.325   4.924   1.971
   34ARHM    O2 4380   5.427   5.062   2.088
   34ARHM    C3 4381   5.521   4.959   1.894
   34ARHM    H3 4382   5.497   4.911   1.797
   34ARHM    O3 4383   5.582   4.860   1.977
   34ARHM   HO3 4384   5.670   4.838   1.945
   34ARHM    C4 4385   5.614   5.077   1.869
   34ARHM    H4 4386   5.639   5.125   1.966
   34ARHM    O4 4387   5.735   5.035   1.807
   34ARHM   HO4 4388   5.810   5.063   1.860
   34ARHM    C6 4389   5.621   5.309   1.759
   34ARHM   H61 4390   5.646   5.358   1.855
   34ARHM   H62 4391   5.715   5.287   1.704
   34ARHM   H63 4392   5.560   5.380   1.698
   35ARHM    C1 4393   5.320   5.093   2.173
   35ARHM    H1 4394   5.233   5.028   2.152
   35ARHM    C5 4395   5.395   5.320   2.181
   35ARHM    H5 4396   5.472   5.298   2.103
   35ARHM    O5 4397   5.283   5.232   2.164
   35ARHM    C2 4398   5.375   5.067   2.312
   35ARHM    H2 4399   5.412   4.962   2.314
   35ARHM    O2 4400   5.278   5.082   2.418
   35ARHM    C3 4401   5.495   5.155   2.337
   35ARHM    H3 4402   5.575   5.131   2.264
   35ARHM    O3 4403   5.548   5.131   2.467
   35ARHM   HO3 4404   5.476   5.139   2.530
   35ARHM    C4 4405   5.456   5.301   2.319
   35ARHM    H4 4406   5.379   5.328   2.395
   35ARHM    O4 4407   5.568   5.387   2.335
   35ARHM   HO4 4408   5.615   5.361   2.415
   35ARHM    C6 4409   5.343   5.462   2.156
   35ARHM   H61 4410   5.298   5.469   2.054
   35ARHM   H62 4411   5.265   5.488   2.231
   35ARHM   H63 4412   5.425   5.536   2.164
   36BMANN   C1 4413   5.174   4.986   2.413
   36BMANN   H1 4414   5.211   4.892   2.366
   36BMANN   C5 4415   4.955   4.936   2.333
   36BMANN   H5 4416   4.996   4.847   2.282
   36BMANN   O5 4417   5.060   5.035   2.342
   36BMANN   C2 4418   5.131   4.958   2.556
   36BMANN   H2 4419   5.221   4.919   2.608
   36BMANN    N 4420   5.084   5.077   2.625
   36BMANN   HN 4421   5.029   5.140   2.570
   36BMANN    C 4422   5.099   5.098   2.757
   36BMANN    O 4423   5.169   5.025   2.826
   36BMANN   CT 4424   5.025   5.214   2.817
   36BMANN  HT1 4425   4.950   5.256   2.745
   36BMANN  HT2 4426   5.096   5.294   2.847
   36BMANN  HT3 4427   4.971   5.180   2.908
   36BMANN   C3 4428   5.027   4.847   2.552
   36BMANN   H3 4429   5.071   4.759   2.501
   36BMANN   O3 4430   4.989   4.805   2.683
   36BMANN  HO3 4431   5.061   4.816   2.745
   36BMANN   C4 4432   4.908   4.896   2.472
   36BMANN   H4 4433   4.862   4.983   2.523
   36BMANN   O4 4434   4.809   4.794   2.464
   36BMANN  HO4 4435   4.802   4.758   2.553
   36BMANN   C6 4436   4.845   4.992   2.244
   36BMANN  H61 4437   4.891   5.043   2.157
   36BMANN  H62 4438   4.786   4.907   2.203
   36BMANN   O6 4439   4.756   5.082   2.311
   36BMANN  HO6 4440   4.693   5.032   2.364
    1ECLIP HB6S 4441   2.532   4.506  11.815
    1ECLIP  OB6 4442   2.664   4.608  11.941
    1ECLIP  CB6 4443   2.554   4.610  11.846
    1ECLIP HB6R 4444   2.462   4.650  11.894
    1ECLIP  CB5 4445   2.574   4.693  11.721
    1ECLIP  OB5 4446   2.702   4.658  11.666
    1ECLIP  HB5 4447   2.574   4.801  11.749
    1ECLIP  CB1 4448   2.733   4.737  11.550
    1ECLIP  HB1 4449   2.732   4.845  11.576
    1ECLIP  OA6 4450   2.859   4.706  11.494
    1ECLIP  CA6 4451   2.914   4.580  11.536
    1ECLIP HA6R 4452   2.837   4.509  11.573
    1ECLIP HA6S 4453   2.986   4.598  11.618
    1ECLIP  CB4 4454   2.465   4.668  11.617
    1ECLIP  HB4 4455   2.474   4.561  11.587
    1ECLIP  OB4 4456   2.338   4.697  11.677
    1ECLIP   PB 4457   2.218   4.581  11.676
    1ECLIP OPB4 4458   2.127   4.608  11.797
    1ECLIP OPB3 4459   2.293   4.449  11.690
    1ECLIP OPB2 4460   2.148   4.597  11.542
    1ECLIP  CB3 4461   2.495   4.749  11.493
    1ECLIP  OB3 4462   2.405   4.719  11.386
    1ECLIP  HB3 4463   2.499   4.857  11.519
    1ECLIP  C71 4464   2.306   4.805  11.364
    1ECLIP  O71 4465   2.306   4.920  11.405
    1ECLIP  C72 4466   2.259   4.782  11.220
    1ECLIP H72R 4467   2.347   4.788  11.152
    1ECLIP H72S 4468   2.189   4.865  11.197
    1ECLIP  CB2 4469   2.631   4.706  11.443
    1ECLIP  HB2 4470   2.629   4.596  11.432
    1ECLIP  NB2 4471   2.666   4.764  11.314
    1ECLIP HNB2 4472   2.692   4.860  11.315
    1ECLIP  CA4 4473   3.075   4.604  11.341
    1ECLIP  HA4 4474   3.014   4.687  11.297
    1ECLIP  OA4 4475   3.172   4.660  11.429
    1ECLIP HOA4 4476   3.164   4.755  11.419
    1ECLIP  CA5 4477   2.981   4.515  11.418
    1ECLIP  HA5 4478   3.038   4.427  11.456
    1ECLIP  OA5 4479   2.876   4.470  11.330
    1ECLIP  CA1 4480   2.925   4.391  11.220
    1ECLIP  HA1 4481   2.838   4.374  11.153
    1ECLIP  OA1 4482   2.974   4.263  11.259
    1ECLIP OPA2 4483   2.893   4.235  11.498
    1ECLIP OPA3 4484   2.736   4.188  11.326
    1ECLIP OPA4 4485   2.933   4.029  11.359
    1ECLIP   PA 4486   2.883   4.171  11.360
    1ECLIP  CA3 4487   3.137   4.525  11.229
    1ECLIP  HA3 4488   3.183   4.435  11.275
    1ECLIP  OA3 4489   3.245   4.592  11.161
    1ECLIP  C31 4490   3.223   4.707  11.094
    1ECLIP  O31 4491   3.250   4.717  10.975
    1ECLIP  C32 4492   3.279   4.823  11.180
    1ECLIP H32R 4493   3.361   4.866  11.119
    1ECLIP H32S 4494   3.327   4.783  11.273
    1ECLIP  CA2 4495   3.025   4.474  11.138
    1ECLIP  HA2 4496   2.970   4.562  11.098
    1ECLIP  NA2 4497   3.079   4.399  11.027
    1ECLIP HNA2 4498   3.169   4.359  11.044
    1ECLIP  C73 4499   2.187   4.648  11.203
    1ECLIP H73R 4500   2.121   4.631  11.292
    1ECLIP  O73 4501   2.288   4.547  11.195
    1ECLIP  C81 4502   2.247   4.422  11.216
    1ECLIP  O81 4503   2.132   4.383  11.206
    1ECLIP  C82 4504   2.366   4.331  11.184
    1ECLIP H82R 4505   2.344   4.231  11.227
    1ECLIP H82S 4506   2.457   4.373  11.232
    1ECLIP  C83 4507   2.388   4.320  11.031
    1ECLIP H83R 4508   2.420   4.420  10.994
    1ECLIP H83S 4509   2.292   4.295  10.981
    1ECLIP  C84 4510   2.494   4.217  10.989
    1ECLIP H84R 4511   2.455   4.115  11.006
    1ECLIP H84S 4512   2.585   4.230  11.051
    1ECLIP  C85 4513   2.530   4.237  10.841
    1ECLIP H85R 4514   2.584   4.334  10.834
    1ECLIP H85S 4515   2.436   4.246  10.783
    1ECLIP  C86 4516   2.619   4.129  10.778
    1ECLIP H86R 4517   2.560   4.035  10.769
    1ECLIP H86S 4518   2.704   4.109  10.846
    1ECLIP  C87 4519   2.675   4.170  10.639
    1ECLIP H87R 4520   2.725   4.082  10.593
    1ECLIP H87S 4521   2.751   4.249  10.656
    1ECLIP  C88 4522   2.567   4.225  10.544
    1ECLIP H88R 4523   2.527   4.318  10.589
    1ECLIP H88S 4524   2.483   4.153  10.535
    1ECLIP  C89 4525   2.619   4.263  10.403
    1ECLIP H89R 4526   2.719   4.310  10.411
    1ECLIP H89S 4527   2.549   4.340  10.364
    1ECLIP C810 4528   2.621   4.145  10.304
    1ECLIPH810R 4529   2.527   4.088  10.314
    1ECLIPH810S 4530   2.704   4.078  10.334
    1ECLIP C811 4531   2.640   4.189  10.157
    1ECLIPH811R 4532   2.658   4.098  10.096
    1ECLIPH811S 4533   2.732   4.252  10.152
    1ECLIP C812 4534   2.524   4.269  10.096
    1ECLIPH812R 4535   2.553   4.302   9.994
    1ECLIPH812S 4536   2.506   4.361  10.156
    1ECLIP C813 4537   2.392   4.191  10.086
    1ECLIPH813R 4538   2.408   4.100  10.026
    1ECLIPH813S 4539   2.361   4.159  10.188
    1ECLIP C814 4540   2.278   4.274  10.026
    1ECLIPH814R 4541   2.305   4.310   9.924
    1ECLIPH814S 4542   2.257   4.362  10.090
    1ECLIPH814T 4543   2.185   4.213  10.019
    1ECLIP  C74 4544   2.097   4.648  11.076
    1ECLIP H74R 4545   2.032   4.737  11.078
    1ECLIP H74S 4546   2.029   4.560  11.085
    1ECLIP  C75 4547   2.167   4.637  10.938
    1ECLIP H75R 4548   2.097   4.582  10.872
    1ECLIP H75S 4549   2.258   4.575  10.947
    1ECLIP  C76 4550   2.199   4.770  10.870
    1ECLIP H76R 4551   2.288   4.817  10.918
    1ECLIP H76S 4552   2.114   4.840  10.884
    1ECLIP  C77 4553   2.223   4.754  10.718
    1ECLIP H77R 4554   2.136   4.700  10.675
    1ECLIP H77S 4555   2.313   4.691  10.703
    1ECLIP  C78 4556   2.240   4.888  10.645
    1ECLIP H78R 4557   2.146   4.946  10.654
    1ECLIP H78S 4558   2.319   4.946  10.698
    1ECLIP  C79 4559   2.280   4.877  10.497
    1ECLIP H79R 4560   2.388   4.850  10.493
    1ECLIP H79S 4561   2.268   4.976  10.449
    1ECLIP C710 4562   2.205   4.771  10.413
    1ECLIPH710R 4563   2.231   4.670  10.451
    1ECLIPH710S 4564   2.096   4.784  10.425
    1ECLIP C711 4565   2.244   4.780  10.264
    1ECLIPH711R 4566   2.219   4.881  10.226
    1ECLIPH711S 4567   2.355   4.768  10.257
    1ECLIP C712 4568   2.179   4.673  10.176
    1ECLIPH712R 4569   2.069   4.691  10.172
    1ECLIPH712S 4570   2.194   4.574  10.225
    1ECLIP C713 4571   2.236   4.666  10.033
    1ECLIPH713R 4572   2.344   4.643  10.041
    1ECLIPH713S 4573   2.188   4.581   9.980
    1ECLIP C714 4574   2.217   4.793   9.950
    1ECLIPH714R 4575   2.110   4.819   9.942
    1ECLIPH714S 4576   2.271   4.878   9.997
    1ECLIPH714T 4577   2.258   4.779   9.847
    1ECLIP  C51 4578   2.666   4.696  11.198
    1ECLIP  O51 4579   2.634   4.579  11.188
    1ECLIP  C52 4580   2.710   4.778  11.079
    1ECLIP H52R 4581   2.640   4.864  11.072
    1ECLIP H52S 4582   2.812   4.815  11.102
    1ECLIP  C53 4583   2.714   4.700  10.946
    1ECLIP H53R 4584   2.769   4.605  10.960
    1ECLIP  O53 4585   2.774   4.785  10.848
    1ECLIP  C61 4586   2.904   4.767  10.827
    1ECLIP  O61 4587   2.979   4.713  10.905
    1ECLIP  C62 4588   2.948   4.874  10.726
    1ECLIP H62R 4589   2.979   4.964  10.783
    1ECLIP H62S 4590   2.859   4.898  10.664
    1ECLIP  C63 4591   3.066   4.829  10.636
    1ECLIP H63R 4592   3.037   4.736  10.584
    1ECLIP H63S 4593   3.154   4.805  10.700
    1ECLIP  C64 4594   3.106   4.933  10.530
    1ECLIP H64R 4595   3.188   4.891  10.468
    1ECLIP H64S 4596   3.144   5.024  10.580
    1ECLIP  C65 4597   2.987   4.970  10.440
    1ECLIP H65R 4598   2.911   5.017  10.505
    1ECLIP H65S 4599   2.942   4.878  10.397
    1ECLIP  C66 4600   3.018   5.071  10.328
    1ECLIP H66R 4601   3.058   5.164  10.375
    1ECLIP H66S 4602   2.922   5.098  10.279
    1ECLIP  C67 4603   3.116   5.024  10.221
    1ECLIP H67R 4604   3.220   5.032  10.260
    1ECLIP H67S 4605   3.107   5.094  10.135
    1ECLIP  C68 4606   3.093   4.881  10.173
    1ECLIP H68R 4607   2.987   4.867  10.142
    1ECLIP H68S 4608   3.113   4.811  10.257
    1ECLIP  C69 4609   3.186   4.844  10.057
    1ECLIP H69R 4610   3.288   4.881  10.079
    1ECLIP H69S 4611   3.149   4.896   9.966
    1ECLIP C610 4612   3.192   4.692  10.035
    1ECLIPH610R 4613   3.090   4.655  10.014
    1ECLIPH610S 4614   3.226   4.645  10.130
    1ECLIP C611 4615   3.288   4.648   9.923
    1ECLIPH611R 4616   3.392   4.652   9.962
    1ECLIPH611S 4617   3.266   4.542   9.898
    1ECLIP C612 4618   3.279   4.735   9.798
    1ECLIPH612R 4619   3.173   4.759   9.775
    1ECLIPH612S 4620   3.332   4.831   9.816
    1ECLIPH612T 4621   3.325   4.685   9.711
    1ECLIP  C54 4622   2.574   4.667  10.891
    1ECLIP H54R 4623   2.515   4.761  10.879
    1ECLIP H54S 4624   2.522   4.604  10.966
    1ECLIP  C55 4625   2.578   4.591  10.757
    1ECLIP H55R 4626   2.482   4.535  10.745
    1ECLIP H55S 4627   2.660   4.516  10.761
    1ECLIP  C56 4628   2.598   4.679  10.633
    1ECLIP H56R 4629   2.694   4.735  10.640
    1ECLIP H56S 4630   2.516   4.754  10.629
    1ECLIP  C57 4631   2.604   4.598  10.503
    1ECLIP H57R 4632   2.508   4.544  10.490
    1ECLIP H57S 4633   2.685   4.523  10.512
    1ECLIP  C58 4634   2.631   4.688  10.382
    1ECLIP H58R 4635   2.549   4.763  10.376
    1ECLIP H58S 4636   2.727   4.742  10.395
    1ECLIP  C59 4637   2.631   4.610  10.250
    1ECLIP H59R 4638   2.537   4.552  10.244
    1ECLIP H59S 4639   2.716   4.538  10.250
    1ECLIP C510 4640   2.639   4.704  10.129
    1ECLIPH510R 4641   2.730   4.767  10.137
    1ECLIPH510S 4642   2.550   4.771  10.133
    1ECLIP C511 4643   2.637   4.628   9.997
    1ECLIPH511R 4644   2.735   4.578   9.984
    1ECLIPH511S 4645   2.560   4.549  10.002
    1ECLIP C512 4646   2.605   4.719   9.877
    1ECLIPH512R 4647   2.607   4.657   9.784
    1ECLIPH512S 4648   2.503   4.759   9.888
    1ECLIP C513 4649   2.702   4.837   9.859
    1ECLIPH513R 4650   2.806   4.799   9.859
    1ECLIPH513S 4651   2.696   4.905   9.947
    1ECLIP C514 4652   2.675   4.916   9.731
    1ECLIPH514R 4653   2.605   5.000   9.752
    1ECLIPH514S 4654   2.769   4.958   9.691
    1ECLIPH514T 4655   2.631   4.851   9.653
    1ECLIP  C33 4656   3.180   4.938  11.211
    1ECLIP H33R 4657   3.237   5.033  11.221
    1ECLIP  O33 4658   3.117   4.913  11.335
    1ECLIP HO33 4659   3.052   4.978  11.363
    1ECLIP  C34 4660   3.070   4.955  11.104
    1ECLIP H34R 4661   3.019   4.857  11.091
    1ECLIP H34S 4662   3.120   4.980  11.008
    1ECLIP  C35 4663   2.960   5.059  11.134
    1ECLIP H35R 4664   3.007   5.152  11.171
    1ECLIP H35S 4665   2.895   5.019  11.216
    1ECLIP  C36 4666   2.873   5.083  11.009
    1ECLIP H36R 4667   2.860   4.983  10.963
    1ECLIP H36S 4668   2.928   5.146  10.936
    1ECLIP  C37 4669   2.730   5.136  11.031
    1ECLIP H37R 4670   2.729   5.246  11.041
    1ECLIP H37S 4671   2.690   5.094  11.126
    1ECLIP  C38 4672   2.635   5.092  10.917
    1ECLIP H38R 4673   2.636   4.982  10.908
    1ECLIP H38S 4674   2.531   5.121  10.943
    1ECLIP  C39 4675   2.672   5.146  10.779
    1ECLIP H39R 4676   2.780   5.125  10.760
    1ECLIP H39S 4677   2.657   5.256  10.778
    1ECLIP C310 4678   2.593   5.080  10.665
    1ECLIPH310R 4679   2.484   5.097  10.681
    1ECLIPH310S 4680   2.610   4.971  10.668
    1ECLIP C311 4681   2.634   5.135  10.528
    1ECLIPH311R 4682   2.621   5.245  10.526
    1ECLIPH311S 4683   2.743   5.115  10.515
    1ECLIP C312 4684   2.559   5.069  10.411
    1ECLIPH312R 4685   2.553   4.960  10.431
    1ECLIPH312S 4686   2.455   5.108  10.407
    1ECLIP C313 4687   2.627   5.088  10.275
    1ECLIPH313R 4688   2.665   5.192  10.266
    1ECLIPH313S 4689   2.715   5.019  10.272
    1ECLIP C314 4690   2.535   5.056  10.157
    1ECLIPH314R 4691   2.459   5.137  10.144
    1ECLIPH314S 4692   2.593   5.048  10.063
    1ECLIPH314T 4693   2.479   4.962  10.175
    1ECLIP  C11 4694   3.020   4.377  10.908
    1ECLIP  O11 4695   2.911   4.423  10.876
    1ECLIP  C12 4696   3.096   4.287  10.814
    1ECLIP H12R 4697   3.061   4.183  10.832
    1ECLIP H12S 4698   3.205   4.293  10.836
    1ECLIP  C13 4699   3.072   4.326  10.667
    1ECLIP H13R 4700   2.963   4.325  10.645
    1ECLIP  O13 4701   3.136   4.228  10.587
    1ECLIP HO13 4702   3.104   4.138  10.602
    1ECLIP  C14 4703   3.130   4.465  10.631
    1ECLIP H14R 4704   3.233   4.469  10.671
    1ECLIP H14S 4705   3.071   4.543  10.685
    1ECLIP  C15 4706   3.135   4.499  10.481
    1ECLIP H15R 4707   3.198   4.421  10.432
    1ECLIP H15S 4708   3.187   4.595  10.466
    1ECLIP  C16 4709   2.998   4.505  10.409
    1ECLIP H16R 4710   2.960   4.609  10.415
    1ECLIP H16S 4711   2.924   4.439  10.461
    1ECLIP  C17 4712   3.008   4.460  10.263
    1ECLIP H17R 4713   3.100   4.507  10.220
    1ECLIP H17S 4714   2.921   4.498  10.205
    1ECLIP  C18 4715   3.018   4.308  10.248
    1ECLIP H18R 4716   3.088   4.270  10.326
    1ECLIP H18S 4717   2.920   4.261  10.267
    1ECLIP  C19 4718   3.074   4.265  10.112
    1ECLIP H19R 4719   3.105   4.158  10.117
    1ECLIP H19S 4720   3.166   4.324  10.092
    1ECLIP C110 4721   2.977   4.282   9.994
    1ECLIPH110R 4722   2.901   4.202   9.999
    1ECLIPH110S 4723   2.924   4.380  10.002
    1ECLIP C111 4724   3.053   4.277   9.862
    1ECLIPH111R 4725   3.105   4.374   9.846
    1ECLIPH111S 4726   3.132   4.199   9.870
    1ECLIP C112 4727   2.964   4.246   9.741
    1ECLIPH112R 4728   2.927   4.141   9.749
    1ECLIPH112S 4729   2.875   4.312   9.745
    1ECLIP C113 4730   3.041   4.266   9.610
    1ECLIPH113R 4731   3.082   4.369   9.606
    1ECLIPH113S 4732   3.129   4.198   9.616
    1ECLIP C114 4733   2.968   4.235   9.479
    1ECLIPH114R 4734   2.920   4.135   9.485
    1ECLIPH114S 4735   2.891   4.312   9.459
    1ECLIPH114T 4736   3.039   4.234   9.394
    2AKDO    C1 4737   2.666   4.841  11.997
    2AKDO   O11 4738   2.576   4.925  12.022
    2AKDO   O12 4739   2.783   4.868  11.957
    2AKDO    C2 4740   2.647   4.695  12.051
    2AKDO    C6 4741   2.503   4.536  12.160
    2AKDO    H6 4742   2.527   4.471  12.074
    2AKDO    O6 4743   2.520   4.673  12.117
    2AKDO    C3 4744   2.754   4.657  12.155
    2AKDO   H31 4745   2.745   4.727  12.241
    2AKDO   H32 4746   2.853   4.671  12.106
    2AKDO    C4 4747   2.742   4.518  12.206
    2AKDO    H4 4748   2.755   4.447  12.121
    2AKDO    O4 4749   2.843   4.496  12.306
    2AKDO    C5 4750   2.605   4.494  12.269
    2AKDO    H5 4751   2.597   4.383  12.276
    2AKDO    O5 4752   2.588   4.547  12.404
    2AKDO    C7 4753   2.354   4.514  12.183
    2AKDO    H7 4754   2.319   4.576  12.269
    2AKDO    O7 4755   2.326   4.376  12.204
    2AKDO   HO7 4756   2.254   4.361  12.142
    2AKDO    C8 4757   2.281   4.557  12.056
    2AKDO   H81 4758   2.298   4.665  12.037
    2AKDO   H82 4759   2.322   4.502  11.969
    2AKDO    O8 4760   2.140   4.535  12.058
    2AKDO   HO8 4761   2.122   4.549  11.965
    3AKDO    C1 4762   3.006   4.366  12.164
    3AKDO   O11 4763   3.124   4.364  12.119
    3AKDO   O12 4764   2.923   4.270  12.163
    3AKDO    C2 4765   2.979   4.478  12.271
    3AKDO    C6 4766   3.040   4.709  12.325
    3AKDO    H6 4767   2.933   4.733  12.343
    3AKDO    O6 4768   3.049   4.600  12.230
    3AKDO    C3 4769   3.036   4.435  12.406
    3AKDO   H31 4770   3.142   4.405  12.393
    3AKDO   H32 4771   2.981   4.345  12.440
    3AKDO    C4 4772   3.025   4.544  12.508
    3AKDO    H4 4773   2.918   4.573  12.521
    3AKDO    O4 4774   3.071   4.497  12.634
    3AKDO   HO4 4775   3.004   4.438  12.670
    3AKDO    C5 4776   3.101   4.665  12.457
    3AKDO    H5 4777   3.091   4.748  12.531
    3AKDO    O5 4778   3.240   4.639  12.438
    3AKDO   HO5 4779   3.245   4.576  12.366
    3AKDO    C7 4780   3.106   4.834  12.265
    3AKDO    H7 4781   3.215   4.815  12.255
    3AKDO    O7 4782   3.086   4.948  12.351
    3AKDO   HO7 4783   3.006   4.988  12.314
    3AKDO    C8 4784   3.050   4.866  12.127
    3AKDO   H81 4785   3.060   4.777  12.060
    3AKDO   H82 4786   2.942   4.887  12.137
    3AKDO    O8 4787   3.115   4.979  12.065
    3AKDO   HO8 4788   3.044   5.014  12.011
    4AHEP    C1 4789   2.505   4.467  12.488
    4AHEP    H1 4790   2.405   4.463  12.440
    4AHEP    C5 4791   2.670   4.315  12.576
    4AHEP    H5 4792   2.746   4.383  12.530
    4AHEP    O5 4793   2.549   4.330  12.499
    4AHEP    C2 4794   2.480   4.520  12.630
    4AHEP    H2 4795   2.459   4.628  12.620
    4AHEP    O2 4796   2.366   4.462  12.694
    4AHEP   HO2 4797   2.389   4.463  12.787
    4AHEP    C3 4798   2.602   4.505  12.720
    4AHEP    H3 4799   2.683   4.571  12.681
    4AHEP    O3 4800   2.564   4.538  12.856
    4AHEP    C4 4801   2.647   4.360  12.722
    4AHEP    H4 4802   2.565   4.298  12.766
    4AHEP    O4 4803   2.768   4.349  12.798
    4AHEP    P4 4804   2.794   4.241  12.921
    4AHEP  OP42 4805   2.929   4.277  12.982
    4AHEP  OP43 4806   2.797   4.102  12.860
    4AHEP  OP44 4807   2.679   4.251  13.020
    4AHEP    C6 4808   2.724   4.173  12.559
    4AHEP    H6 4809   2.830   4.173  12.591
    4AHEP    O6 4810   2.654   4.084  12.647
    4AHEP   HO6 4811   2.702   4.097  12.728
    4AHEP    C7 4812   2.718   4.119  12.417
    4AHEP   H71 4813   2.771   4.022  12.410
    4AHEP   H72 4814   2.769   4.191  12.349
    4AHEP    O7 4815   2.583   4.101  12.371
    4AHEP   HO7 4816   2.539   4.182  12.396
    5AHEP    C1 4817   2.651   4.626  12.924
    5AHEP    H1 4818   2.751   4.620  12.876
    5AHEP    C5 4819   2.481   4.786  12.983
    5AHEP    H5 4820   2.403   4.719  12.942
    5AHEP    O5 4821   2.606   4.761  12.916
    5AHEP    C2 4822   2.669   4.594  13.072
    5AHEP    H2 4823   2.692   4.486  13.079
    5AHEP    O2 4824   2.785   4.664  13.121
    5AHEP   HO2 4825   2.860   4.607  13.099
    5AHEP    C3 4826   2.541   4.615  13.153
    5AHEP    H3 4827   2.463   4.546  13.116
    5AHEP    O3 4828   2.563   4.595  13.295
    5AHEP    C4 4829   2.494   4.759  13.135
    5AHEP    H4 4830   2.571   4.827  13.176
    5AHEP    O4 4831   2.368   4.793  13.193
    5AHEP    P4 4832   2.258   4.710  13.282
    5AHEP  OP42 4833   2.231   4.579  13.208
    5AHEP  OP43 4834   2.131   4.793  13.286
    5AHEP  OP44 4835   2.308   4.686  13.423
    5AHEP    C6 4836   2.445   4.930  12.943
    5AHEP    H6 4837   2.344   4.953  12.981
    5AHEP    O6 4838   2.538   5.023  13.001
    5AHEP   HO6 4839   2.601   5.033  12.929
    5AHEP    C7 4840   2.450   4.947  12.790
    5AHEP   H71 4841   2.362   5.008  12.762
    5AHEP   H72 4842   2.437   4.849  12.738
    5AHEP    O7 4843   2.567   5.018  12.743
    6AHEP    C1 4844   2.660   4.935  12.677
    6AHEP    H1 4845   2.651   4.829  12.709
    6AHEP    C5 4846   2.656   5.063  12.474
    6AHEP    H5 4847   2.579   5.131  12.518
    6AHEP    O5 4848   2.645   4.934  12.535
    6AHEP    C2 4849   2.800   4.984  12.708
    6AHEP    H2 4850   2.810   4.989  12.819
    6AHEP    O2 4851   2.899   4.893  12.660
    6AHEP   HO2 4852   2.873   4.868  12.571
    6AHEP    C3 4853   2.817   5.125  12.652
    6AHEP    H3 4854   2.737   5.190  12.694
    6AHEP    O3 4855   2.942   5.185  12.686
    6AHEP   HO3 4856   2.966   5.232  12.607
    6AHEP    C4 4857   2.795   5.121  12.501
    6AHEP    H4 4858   2.870   5.052  12.456
    6AHEP    O4 4859   2.816   5.250  12.444
    6AHEP   HO4 4860   2.738   5.284  12.401
    6AHEP    C6 4861   2.623   5.047  12.326
    6AHEP    H6 4862   2.624   5.146  12.276
    6AHEP    O6 4863   2.725   4.972  12.260
    6AHEP   HO6 4864   2.689   4.952  12.173
    6AHEP    C7 4865   2.484   4.984  12.305
    6AHEP   H71 4866   2.450   4.997  12.200
    6AHEP   H72 4867   2.411   5.042  12.367
    6AHEP    O7 4868   2.469   4.846  12.341
    6AHEP   HO7 4869   2.502   4.797  12.265
    7AGLC    C1 4870   2.559   4.464  13.346
    7AGLC    H1 4871   2.476   4.407  13.300
    7AGLC    C5 4872   2.797   4.469  13.378
    7AGLC    H5 4873   2.799   4.571  13.335
    7AGLC    O5 4874   2.685   4.397  13.325
    7AGLC    C2 4875   2.546   4.468  13.499
    7AGLC    H2 4876   2.564   4.364  13.533
    7AGLC    O2 4877   2.414   4.495  13.546
    7AGLC   HO2 4878   2.382   4.571  13.497
    7AGLC    C3 4879   2.655   4.554  13.562
    7AGLC    H3 4880   2.650   4.654  13.514
    7AGLC    O3 4881   2.639   4.569  13.706
    7AGLC    C4 4882   2.785   4.485  13.528
    7AGLC    H4 4883   2.785   4.384  13.574
    7AGLC    O4 4884   2.899   4.557  13.575
    7AGLC   HO4 4885   2.977   4.504  13.561
    7AGLC    C6 4886   2.920   4.393  13.330
    7AGLC   H61 4887   2.893   4.329  13.243
    7AGLC   H62 4888   2.995   4.466  13.292
    7AGLC    O6 4889   2.982   4.312  13.432
    7AGLC   HO6 4890   3.065   4.352  13.456
    8AGLC    C1 4891   2.651   4.703  13.752
    8AGLC    H1 4892   2.735   4.754  13.699
    8AGLC    C5 4893   2.415   4.730  13.790
    8AGLC    H5 4894   2.403   4.624  13.758
    8AGLC    O5 4895   2.533   4.781  13.727
    8AGLC    C2 4896   2.674   4.706  13.903
    8AGLC    H2 4897   2.686   4.813  13.931
    8AGLC    O2 4898   2.789   4.635  13.949
    8AGLC    C3 4899   2.554   4.650  13.978
    8AGLC    H3 4900   2.536   4.548  13.939
    8AGLC    O3 4901   2.583   4.636  14.119
    8AGLC    C4 4902   2.433   4.733  13.942
    8AGLC    H4 4903   2.451   4.839  13.970
    8AGLC    O4 4904   2.313   4.691  14.006
    8AGLC   HO4 4905   2.244   4.737  13.958
    8AGLC    C6 4906   2.294   4.805  13.739
    8AGLC   H61 4907   2.309   4.832  13.632
    8AGLC   H62 4908   2.206   4.737  13.742
    8AGLC    O6 4909   2.261   4.922  13.815
    8AGLC   HO6 4910   2.246   4.991  13.750
    9AGAL    C1 4911   2.914   4.668  13.891
    9AGAL    H1 4912   2.907   4.671  13.780
    9AGAL    C5 4913   2.976   4.803  14.076
    9AGAL    H5 4914   2.880   4.769  14.120
    9AGAL    O5 4915   2.961   4.796  13.934
    9AGAL    C2 4916   3.011   4.558  13.930
    9AGAL    H2 4917   3.107   4.577  13.878
    9AGAL    O2 4918   2.955   4.436  13.872
    9AGAL    C3 4919   3.034   4.562  14.081
    9AGAL    H3 4920   2.937   4.541  14.132
    9AGAL    O3 4921   3.129   4.467  14.126
    9AGAL   HO3 4922   3.213   4.493  14.089
    9AGAL    C4 4923   3.082   4.702  14.120
    9AGAL    H4 4924   3.090   4.706  14.231
    9AGAL    O4 4925   3.212   4.729  14.066
    9AGAL   HO4 4926   3.205   4.753  13.974
    9AGAL    C6 4927   2.989   4.948  14.123
    9AGAL   H61 4928   2.932   5.013  14.053
    9AGAL   H62 4929   2.940   4.957  14.222
    9AGAL    O6 4930   3.122   4.998  14.138
    9AGAL   HO6 4931   3.154   5.024  14.051
   10AGAL    C1 4932   2.967   4.311  13.936
   10AGAL    H1 4933   3.074   4.291  13.958
   10AGAL    C5 4934   2.749   4.320  14.034
   10AGAL    H5 4935   2.733   4.414  13.976
   10AGAL    O5 4936   2.890   4.304  14.058
   10AGAL    C2 4937   2.918   4.200  13.843
   10AGAL    H2 4938   2.936   4.104  13.896
   10AGAL    O2 4939   2.996   4.193  13.722
   10AGAL   HO2 4940   2.970   4.262  13.661
   10AGAL    C3 4941   2.769   4.211  13.816
   10AGAL    H3 4942   2.747   4.308  13.767
   10AGAL    O3 4943   2.721   4.106  13.731
   10AGAL   HO3 4944   2.749   4.122  13.640
   10AGAL    C4 4945   2.693   4.208  13.947
   10AGAL    H4 4946   2.586   4.229  13.926
   10AGAL    O4 4947   2.700   4.080  14.012
   10AGAL   HO4 4948   2.700   4.017  13.940
   10AGAL    C6 4949   2.678   4.341  14.167
   10AGAL   H61 4950   2.724   4.428  14.218
   10AGAL   H62 4951   2.571   4.364  14.147
   10AGAL    O6 4952   2.686   4.227  14.252
   10AGAL   HO6 4953   2.700   4.153  14.193
   11BGLC    C1 4954   2.549   4.740  14.208
   11BGLC    H1 4955   2.439   4.742  14.222
   11BGLC    C5 4956   2.564   4.975  14.248
   11BGLC    H5 4957   2.454   4.978  14.267
   11BGLC    O5 4958   2.596   4.866  14.160
   11BGLC    C2 4959   2.619   4.709  14.340
   11BGLC    H2 4960   2.728   4.705  14.319
   11BGLC    O2 4961   2.580   4.582  14.392
   11BGLC   HO2 4962   2.576   4.522  14.316
   11BGLC    C3 4963   2.593   4.819  14.441
   11BGLC    H3 4964   2.485   4.823  14.467
   11BGLC    O3 4965   2.674   4.801  14.559
   11BGLC    C4 4966   2.636   4.951  14.380
   11BGLC    H4 4967   2.745   4.949  14.359
   11BGLC    O4 4968   2.610   5.059  14.470
   11BGLC   HO4 4969   2.656   5.041  14.553
   11BGLC    C6 4970   2.606   5.101  14.176
   11BGLC   H61 4971   2.619   5.183  14.250
   11BGLC   H62 4972   2.703   5.086  14.125
   11BGLC    O6 4973   2.508   5.144  14.081
   11BGLC   HO6 4974   2.515   5.094  14.000
   12BGLCN   C1 4975   2.610   4.752  14.675
   12BGLCN   H1 4976   2.562   4.654  14.654
   12BGLCN   C5 4977   2.450   4.805  14.845
   12BGLCN   H5 4978   2.399   4.708  14.828
   12BGLCN   O5 4979   2.515   4.848  14.724
   12BGLCN   C2 4980   2.721   4.737  14.779
   12BGLCN   H2 4981   2.762   4.839  14.795
   12BGLCN    N 4982   2.828   4.651  14.730
   12BGLCN   HN 4983   2.802   4.570  14.678
   12BGLCN    C 4984   2.958   4.676  14.748
   12BGLCN    O 4985   2.999   4.770  14.814
   12BGLCN   CT 4986   3.054   4.578  14.686
   12BGLCN  HT1 4987   3.151   4.584  14.739
   12BGLCN  HT2 4988   3.070   4.603  14.579
   12BGLCN  HT3 4989   3.014   4.474  14.693
   12BGLCN   C3 4990   2.663   4.690  14.913
   12BGLCN   H3 4991   2.620   4.589  14.901
   12BGLCN   O3 4992   2.767   4.688  15.014
   12BGLCN   C4 4993   2.556   4.790  14.954
   12BGLCN   H4 4994   2.606   4.889  14.966
   12BGLCN   O4 4995   2.495   4.758  15.079
   12BGLCN  HO4 4996   2.409   4.719  15.067
   12BGLCN   C6 4997   2.347   4.911  14.883
   12BGLCN  H61 4998   2.308   4.892  14.986
   12BGLCN  H62 4999   2.398   5.009  14.883
   12BGLCN   O6 5000   2.234   4.920  14.796
   12BGLCN  HO6 5001   2.187   4.837  14.787
   13AGAL    C1 5002   2.757   4.596  15.121
   13AGAL    H1 5003   2.651   4.584  15.154
   13AGAL    C5 5004   2.949   4.473  15.047
   13AGAL    H5 5005   2.958   4.545  14.963
   13AGAL    O5 5006   2.810   4.467  15.086
   13AGAL    C2 5007   2.839   4.644  15.241
   13AGAL    H2 5008   2.839   4.560  15.313
   13AGAL    O2 5009   2.781   4.758  15.307
   13AGAL    C3 5010   2.984   4.662  15.199
   13AGAL    H3 5011   2.986   4.729  15.110
   13AGAL    O3 5012   3.065   4.726  15.299
   13AGAL   HO3 5013   3.134   4.772  15.250
   13AGAL    C4 5014   3.038   4.526  15.159
   13AGAL    H4 5015   3.140   4.539  15.117
   13AGAL    O4 5016   3.047   4.434  15.267
   13AGAL   HO4 5017   3.020   4.349  15.230
   13AGAL    C6 5018   2.992   4.337  14.992
   13AGAL   H61 5019   2.930   4.315  14.903
   13AGAL   H62 5020   3.097   4.343  14.958
   13AGAL    O6 5021   2.979   4.229  15.086
   13AGAL   HO6 5022   2.958   4.149  15.037
   14ARHM    C1 5023   2.719   4.734  15.432
   14ARHM    H1 5024   2.693   4.626  15.442
   14ARHM    C5 5025   2.613   4.944  15.430
   14ARHM    H5 5026   2.656   4.966  15.329
   14ARHM    O5 5027   2.595   4.803  15.444
   14ARHM    C2 5028   2.812   4.775  15.544
   14ARHM    H2 5029   2.907   4.718  15.534
   14ARHM    O2 5030   2.761   4.755  15.678
   14ARHM    C3 5031   2.841   4.923  15.531
   14ARHM    H3 5032   2.887   4.943  15.432
   14ARHM    O3 5033   2.933   4.967  15.632
   14ARHM   HO3 5034   3.023   4.948  15.603
   14ARHM    C4 5035   2.708   4.997  15.538
   14ARHM    H4 5036   2.661   4.975  15.636
   14ARHM    O4 5037   2.726   5.138  15.529
   14ARHM   HO4 5038   2.718   5.175  15.617
   14ARHM    C6 5039   2.470   4.999  15.435
   14ARHM   H61 5040   2.400   4.931  15.382
   14ARHM   H62 5041   2.436   5.011  15.540
   14ARHM   H63 5042   2.466   5.097  15.383
   15ARHM    C1 5043   2.708   4.630  15.711
   15ARHM    H1 5044   2.754   4.551  15.647
   15ARHM    C5 5045   2.497   4.720  15.784
   15ARHM    H5 5046   2.529   4.823  15.758
   15ARHM    O5 5047   2.564   4.626  15.698
   15ARHM    C2 5048   2.746   4.604  15.855
   15ARHM    H2 5049   2.856   4.612  15.864
   15ARHM    O2 5050   2.705   4.470  15.884
   15ARHM    C3 5051   2.680   4.706  15.944
   15ARHM    H3 5052   2.710   4.807  15.909
   15ARHM    O3 5053   2.726   4.689  16.078
   15ARHM    C4 5054   2.530   4.692  15.930
   15ARHM    H4 5055   2.501   4.587  15.953
   15ARHM    O4 5056   2.458   4.776  16.020
   15ARHM   HO4 5057   2.366   4.748  16.021
   15ARHM    C6 5058   2.346   4.708  15.754
   15ARHM   H61 5059   2.288   4.782  15.814
   15ARHM   H62 5060   2.329   4.729  15.646
   15ARHM   H63 5061   2.310   4.606  15.777
   16BMANN   C1 5062   2.742   4.416  16.008
   16BMANN   H1 5063   2.683   4.464  16.090
   16BMANN   C5 5064   2.920   4.371  16.159
   16BMANN   H5 5065   2.861   4.419  16.240
   16BMANN   O5 5066   2.882   4.428  16.033
   16BMANN   C2 5067   2.704   4.271  15.998
   16BMANN   H2 5068   2.593   4.269  15.992
   16BMANN    N 5069   2.761   4.209  15.879
   16BMANN   HN 5070   2.857   4.225  15.862
   16BMANN    C 5071   2.687   4.150  15.784
   16BMANN    O 5072   2.566   4.135  15.795
   16BMANN   CT 5073   2.761   4.104  15.661
   16BMANN  HT1 5074   2.732   4.000  15.636
   16BMANN  HT2 5075   2.871   4.108  15.677
   16BMANN  HT3 5076   2.735   4.170  15.575
   16BMANN   C3 5077   2.742   4.203  16.128
   16BMANN   H3 5078   2.685   4.252  16.211
   16BMANN   O3 5079   2.703   4.066  16.126
   16BMANN  HO3 5080   2.697   4.037  16.035
   16BMANN   C4 5081   2.890   4.221  16.157
   16BMANN   H4 5082   2.950   4.174  16.077
   16BMANN   O4 5083   2.924   4.160  16.281
   16BMANN  HO4 5084   2.878   4.076  16.282
   16BMANN   C6 5085   3.067   4.403  16.183
   16BMANN  H61 5086   3.100   4.360  16.280
   16BMANN  H62 5087   3.129   4.359  16.103
   16BMANN   O6 5088   3.088   4.544  16.188
   16BMANN  HO6 5089   3.078   4.578  16.098
   17BGLCN   C1 5090   2.749   4.809  16.147
   17BGLCN   H1 5091   2.672   4.885  16.121
   17BGLCN   C5 5092   2.909   4.976  16.196
   17BGLCN   H5 5093   2.831   5.052  16.176
   17BGLCN   O5 5094   2.881   4.858  16.120
   17BGLCN   C2 5095   2.738   4.768  16.292
   17BGLCN   H2 5096   2.818   4.694  16.312
   17BGLCN    N 5097   2.610   4.702  16.311
   17BGLCN   HN 5098   2.540   4.727  16.244
   17BGLCN    C 5099   2.584   4.605  16.398
   17BGLCN    O 5100   2.667   4.561  16.477
   17BGLCN   CT 5101   2.445   4.548  16.395
   17BGLCN  HT1 5102   2.446   4.450  16.343
   17BGLCN  HT2 5103   2.376   4.617  16.341
   17BGLCN  HT3 5104   2.408   4.534  16.499
   17BGLCN   C3 5105   2.764   4.891  16.378
   17BGLCN   H3 5106   2.693   4.969  16.344
   17BGLCN   O3 5107   2.738   4.863  16.518
   17BGLCN   C4 5108   2.905   4.940  16.344
   17BGLCN   H4 5109   2.976   4.857  16.363
   17BGLCN   O4 5110   2.947   5.051  16.424
   17BGLCN  HO4 5111   3.043   5.048  16.431
   17BGLCN   C6 5112   3.040   5.033  16.143
   17BGLCN  H61 5113   3.065   5.127  16.197
   17BGLCN  H62 5114   3.122   4.960  16.160
   17BGLCN   O6 5115   3.031   5.061  16.003
   17BGLCN  HO6 5116   3.020   4.977  15.958
   18AGAL    C1 5117   2.692   4.972  16.597
   18AGAL    H1 5118   2.773   5.046  16.609
   18AGAL    C5 5119   2.464   4.951  16.525
   18AGAL    H5 5120   2.496   4.863  16.464
   18AGAL    O5 5121   2.577   5.038  16.539
   18AGAL    C2 5122   2.649   4.926  16.736
   18AGAL    H2 5123   2.607   5.018  16.781
   18AGAL    O2 5124   2.757   4.884  16.821
   18AGAL    C3 5125   2.535   4.824  16.723
   18AGAL    H3 5126   2.570   4.742  16.657
   18AGAL    O3 5127   2.499   4.763  16.848
   18AGAL   HO3 5128   2.472   4.672  16.834
   18AGAL    C4 5129   2.416   4.894  16.659
   18AGAL    H4 5130   2.337   4.819  16.638
   18AGAL    O4 5131   2.362   4.991  16.747
   18AGAL   HO4 5132   2.363   4.953  16.835
   18AGAL    C6 5133   2.360   5.021  16.439
   18AGAL   H61 5134   2.405   5.049  16.342
   18AGAL   H62 5135   2.276   4.952  16.417
   18AGAL    O6 5136   2.307   5.140  16.499
   18AGAL   HO6 5137   2.380   5.193  16.533
   19ARHM    C1 5138   2.734   4.921  16.956
   19ARHM    H1 5139   2.626   4.927  16.978
   19ARHM    C5 5140   2.932   5.056  16.974
   19ARHM    H5 5141   2.959   5.033  16.869
   19ARHM    O5 5142   2.790   5.050  16.989
   19ARHM    C2 5143   2.795   4.816  17.045
   19ARHM    H2 5144   2.763   4.717  17.005
   19ARHM    O2 5145   2.751   4.828  17.182
   19ARHM    C3 5146   2.945   4.816  17.033
   19ARHM    H3 5147   2.973   4.794  16.928
   19ARHM    O3 5148   3.002   4.713  17.115
   19ARHM   HO3 5149   2.989   4.737  17.207
   19ARHM    C4 5150   2.998   4.955  17.068
   19ARHM    H4 5151   2.967   4.979  17.172
   19ARHM    O4 5152   3.141   4.962  17.063
   19ARHM   HO4 5153   3.171   5.015  16.988
   19ARHM    C6 5154   2.970   5.202  17.004
   19ARHM   H61 5155   2.919   5.270  16.932
   19ARHM   H62 5156   2.939   5.230  17.107
   19ARHM   H63 5157   3.080   5.218  16.994
   20ARHM    C1 5158   2.629   4.762  17.211
   20ARHM    H1 5159   2.608   4.684  17.134
   20ARHM    C5 5160   2.523   4.949  17.318
   20ARHM    H5 5161   2.607   5.019  17.296
   20ARHM    O5 5162   2.515   4.849  17.216
   20ARHM    C2 5163   2.646   4.696  17.346
   20ARHM    H2 5164   2.739   4.635  17.345
   20ARHM    O2 5165   2.534   4.612  17.377
   20ARHM    C3 5166   2.661   4.798  17.454
   20ARHM    H3 5167   2.754   4.858  17.438
   20ARHM    O3 5168   2.669   4.724  17.575
   20ARHM    C4 5169   2.540   4.887  17.455
   20ARHM    H4 5170   2.450   4.824  17.477
   20ARHM    O4 5171   2.549   4.986  17.557
   20ARHM   HO4 5172   2.474   5.046  17.548
   20ARHM    C6 5173   2.388   5.022  17.304
   20ARHM   H61 5174   2.304   4.949  17.312
   20ARHM   H62 5175   2.374   5.099  17.383
   20ARHM   H63 5176   2.381   5.072  17.205
   21BMANN   C1 5177   2.530   4.495  17.301
   21BMANN   H1 5178   2.627   4.480  17.248
   21BMANN   C5 5179   2.429   4.386  17.117
   21BMANN   H5 5180   2.528   4.383  17.067
   21BMANN   O5 5181   2.426   4.502  17.203
   21BMANN   C2 5182   2.506   4.377  17.393
   21BMANN   H2 5183   2.592   4.375  17.464
   21BMANN    N 5184   2.385   4.394  17.472
   21BMANN   HN 5185   2.321   4.464  17.439
   21BMANN    C 5186   2.359   4.331  17.587
   21BMANN    O 5187   2.431   4.243  17.630
   21BMANN   CT 5188   2.236   4.375  17.661
   21BMANN  HT1 5189   2.149   4.314  17.629
   21BMANN  HT2 5190   2.215   4.483  17.642
   21BMANN  HT3 5191   2.252   4.361  17.770
   21BMANN   C3 5192   2.513   4.252  17.308
   21BMANN   H3 5193   2.614   4.248  17.260
   21BMANN   O3 5194   2.502   4.135  17.388
   21BMANN  HO3 5195   2.476   4.162  17.477
   21BMANN   C4 5196   2.408   4.259  17.198
   21BMANN   H4 5197   2.306   4.259  17.242
   21BMANN   O4 5198   2.421   4.148  17.110
   21BMANN  HO4 5199   2.350   4.084  17.126
   21BMANN   C6 5200   2.325   4.406  17.007
   21BMANN  H61 5201   2.332   4.323  16.934
   21BMANN  H62 5202   2.223   4.404  17.050
   21BMANN   O6 5203   2.345   4.529  16.937
   21BMANN  HO6 5204   2.310   4.601  16.991
   22BGLCN   C1 5205   2.767   4.760  17.668
   22BGLCN   H1 5206   2.792   4.868  17.662
   22BGLCN   C5 5207   2.979   4.695  17.756
   22BGLCN   H5 5208   3.012   4.800  17.760
   22BGLCN   O5 5209   2.882   4.677  17.651
   22BGLCN   C2 5210   2.697   4.726  17.797
   22BGLCN   H2 5211   2.669   4.618  17.794
   22BGLCN    N 5212   2.574   4.804  17.805
   22BGLCN   HN 5213   2.574   4.887  17.749
   22BGLCN    C 5214   2.457   4.767  17.858
   22BGLCN    O 5215   2.437   4.659  17.914
   22BGLCN   CT 5216   2.346   4.867  17.846
   22BGLCN  HT1 5217   2.268   4.827  17.777
   22BGLCN  HT2 5218   2.384   4.963  17.806
   22BGLCN  HT3 5219   2.300   4.883  17.946
   22BGLCN   C3 5220   2.792   4.746  17.913
   22BGLCN   H3 5221   2.824   4.853  17.914
   22BGLCN   O3 5222   2.717   4.717  18.032
   22BGLCN   C4 5223   2.915   4.660  17.891
   22BGLCN   H4 5224   2.884   4.553  17.889
   22BGLCN   O4 5225   3.010   4.679  17.994
   22BGLCN  HO4 5226   3.058   4.598  18.013
   22BGLCN   C6 5227   3.096   4.606  17.720
   22BGLCN  H61 5228   3.161   4.589  17.809
   22BGLCN  H62 5229   3.059   4.506  17.689
   22BGLCN   O6 5230   3.177   4.662  17.616
   22BGLCN  HO6 5231   3.142   4.630  17.532
   23AGAL    C1 5232   2.768   4.761  18.156
   23AGAL    H1 5233   2.860   4.705  18.182
   23AGAL    C5 5234   2.683   4.983  18.127
   23AGAL    H5 5235   2.643   4.951  18.028
   23AGAL    O5 5236   2.798   4.902  18.157
   23AGAL    C2 5237   2.663   4.733  18.262
   23AGAL    H2 5238   2.703   4.768  18.359
   23AGAL    O2 5239   2.635   4.592  18.271
   23AGAL    C3 5240   2.537   4.813  18.233
   23AGAL    H3 5241   2.498   4.782  18.133
   23AGAL    O3 5242   2.434   4.787  18.328
   23AGAL   HO3 5243   2.457   4.837  18.406
   23AGAL    C4 5244   2.572   4.960  18.230
   23AGAL    H4 5245   2.482   5.017  18.196
   23AGAL    O4 5246   2.607   5.008  18.359
   23AGAL   HO4 5247   2.669   5.080  18.344
   23AGAL    C6 5248   2.730   5.127  18.109
   23AGAL   H61 5249   2.821   5.127  18.045
   23AGAL   H62 5250   2.652   5.185  18.056
   23AGAL    O6 5251   2.760   5.192  18.233
   23AGAL   HO6 5252   2.809   5.274  18.220
   24ARHM    C1 5253   2.720   4.519  18.355
   24ARHM    H1 5254   2.818   4.571  18.363
   24ARHM    C5 5255   2.634   4.305  18.298
   24ARHM    H5 5256   2.560   4.349  18.227
   24ARHM    O5 5257   2.750   4.389  18.304
   24ARHM    C2 5258   2.657   4.514  18.493
   24ARHM    H2 5259   2.626   4.616  18.523
   24ARHM    O2 5260   2.748   4.460  18.590
   24ARHM    C3 5261   2.531   4.429  18.487
   24ARHM    H3 5262   2.459   4.475  18.416
   24ARHM    O3 5263   2.468   4.424  18.615
   24ARHM   HO3 5264   2.432   4.336  18.625
   24ARHM    C4 5265   2.570   4.292  18.436
   24ARHM    H4 5266   2.646   4.250  18.504
   24ARHM    O4 5267   2.460   4.200  18.433
   24ARHM   HO4 5268   2.487   4.123  18.484
   24ARHM    C6 5269   2.682   4.170  18.241
   24ARHM   H61 5270   2.596   4.101  18.226
   24ARHM   H62 5271   2.733   4.184  18.144
   24ARHM   H63 5272   2.753   4.122  18.312
   25ARHM    C1 5273   2.835   4.555  18.648
   25ARHM    H1 5274   2.849   4.639  18.577
   25ARHM    C5 5275   2.963   4.393  18.765
   25ARHM    H5 5276   2.896   4.313  18.725
   25ARHM    O5 5277   2.965   4.502  18.672
   25ARHM    C2 5278   2.774   4.606  18.776
   25ARHM    H2 5279   2.668   4.637  18.757
   25ARHM    O2 5280   2.847   4.719  18.827
   25ARHM    C3 5281   2.769   4.497  18.879
   25ARHM    H3 5282   2.701   4.416  18.842
   25ARHM    O3 5283   2.715   4.554  18.999
   25ARHM    C4 5284   2.909   4.442  18.900
   25ARHM    H4 5285   2.974   4.524  18.937
   25ARHM    O4 5286   2.911   4.336  18.995
   25ARHM   HO4 5287   2.999   4.327  19.031
   25ARHM    C6 5288   3.106   4.336  18.771
   25ARHM   H61 5289   3.138   4.306  18.670
   25ARHM   H62 5290   3.177   4.413  18.810
   25ARHM   H63 5291   3.110   4.247  18.837
   26BMANN   C1 5292   2.820   4.840  18.762
   26BMANN   H1 5293   2.716   4.841  18.721
   26BMANN   C5 5294   2.891   4.990  18.591
   26BMANN   H5 5295   2.787   4.988  18.552
   26BMANN   O5 5296   2.916   4.865  18.658
   26BMANN   C2 5297   2.834   4.948  18.867
   26BMANN   H2 5298   2.754   4.928  18.942
   26BMANN    N 5299   2.962   4.942  18.936
   26BMANN   HN 5300   3.038   4.900  18.887
   26BMANN    C 5301   2.979   4.978  19.064
   26BMANN    O 5302   2.887   5.021  19.132
   26BMANN   CT 5303   3.118   4.962  19.120
   26BMANN  HT1 5304   3.175   4.888  19.061
   26BMANN  HT2 5305   3.111   4.928  19.225
   26BMANN  HT3 5306   3.169   5.061  19.118
   26BMANN   C3 5307   2.802   5.081  18.801
   26BMANN   H3 5308   2.702   5.072  18.755
   26BMANN   O3 5309   2.790   5.189  18.894
   26BMANN  HO3 5310   2.867   5.193  18.952
   26BMANN   C4 5311   2.901   5.107  18.689
   26BMANN   H4 5312   3.004   5.111  18.732
   26BMANN   O4 5313   2.875   5.229  18.623
   26BMANN  HO4 5314   2.868   5.298  18.690
   26BMANN   C6 5315   2.982   5.003  18.469
   26BMANN  H61 5316   2.974   4.910  18.408
   26BMANN  H62 5317   2.947   5.087  18.406
   26BMANN   O6 5318   3.119   5.025  18.503
   26BMANN  HO6 5319   3.127   5.110  18.546
   27BGLCN   C1 5320   2.638   4.469  19.079
   27BGLCN   H1 5321   2.677   4.365  19.077
   27BGLCN   C5 5322   2.419   4.389  19.123
   27BGLCN   H5 5323   2.463   4.287  19.123
   27BGLCN   O5 5324   2.501   4.472  19.039
   27BGLCN   C2 5325   2.649   4.526  19.220
   27BGLCN   H2 5326   2.604   4.627  19.218
   27BGLCN    N 5327   2.789   4.540  19.258
   27BGLCN   HN 5328   2.855   4.488  19.206
   27BGLCN    C 5329   2.834   4.631  19.346
   27BGLCN    O 5330   2.759   4.705  19.409
   27BGLCN   CT 5331   2.983   4.639  19.362
   27BGLCN  HT1 5332   3.034   4.557  19.307
   27BGLCN  HT2 5333   3.008   4.632  19.470
   27BGLCN  HT3 5334   3.019   4.737  19.324
   27BGLCN   C3 5335   2.566   4.440  19.315
   27BGLCN   H3 5336   2.604   4.336  19.306
   27BGLCN   O3 5337   2.587   4.484  19.451
   27BGLCN   C4 5338   2.422   4.441  19.266
   27BGLCN   H4 5339   2.386   4.546  19.267
   27BGLCN   O4 5340   2.335   4.365  19.348
   27BGLCN  HO4 5341   2.354   4.271  19.340
   27BGLCN   C6 5342   2.281   4.378  19.061
   27BGLCN  H61 5343   2.212   4.330  19.133
   27BGLCN  H62 5344   2.242   4.480  19.039
   27BGLCN   O6 5345   2.282   4.299  18.942
   27BGLCN  HO6 5346   2.194   4.299  18.904
   28AGAL    C1 5347   2.547   4.400   0.085
   28AGAL    H1 5348   2.437   4.407   0.097
   28AGAL    C5 5349   2.726   4.241   0.057
   28AGAL    H5 5350   2.767   4.308  19.451
   28AGAL    O5 5351   2.582   4.261   0.061
   28AGAL    C2 5352   2.609   4.443   0.217
   28AGAL    H2 5353   2.573   4.366   0.289
   28AGAL    O2 5354   2.567   4.572   0.265
   28AGAL    C3 5355   2.760   4.430   0.211
   28AGAL    H3 5356   2.795   4.491   0.124
   28AGAL    O3 5357   2.826   4.483   0.326
   28AGAL   HO3 5358   2.874   4.562   0.302
   28AGAL    C4 5359   2.795   4.285   0.186
   28AGAL    H4 5360   2.905   4.278   0.169
   28AGAL    O4 5361   2.765   4.200   0.297
   28AGAL   HO4 5362   2.849   4.173   0.334
   28AGAL    C6 5363   2.757   4.100   0.010
   28AGAL   H61 5364   2.714   4.085  19.380
   28AGAL   H62 5365   2.867   4.088   0.002
   28AGAL    O6 5366   2.706   3.996   0.094
   28AGAL   HO6 5367   2.610   3.998   0.094
   29ARHM    C1 5368   2.536   4.572   0.403
   29ARHM    H1 5369   2.589   4.488   0.453
   29ARHM    C5 5370   2.320   4.667   0.367
   29ARHM    H5 5371   2.341   4.673   0.258
   29ARHM    O5 5372   2.394   4.558   0.424
   29ARHM    C2 5373   2.583   4.699   0.471
   29ARHM    H2 5374   2.692   4.711   0.449
   29ARHM    O2 5375   2.564   4.690   0.614
   29ARHM    C3 5376   2.511   4.819   0.414
   29ARHM    H3 5377   2.534   4.826   0.306
   29ARHM    O3 5378   2.557   4.939   0.476
   29ARHM   HO3 5379   2.572   5.007   0.410
   29ARHM    C4 5380   2.361   4.799   0.432
   29ARHM    H4 5381   2.340   4.792   0.541
   29ARHM    O4 5382   2.283   4.907   0.380
   29ARHM   HO4 5383   2.317   4.935   0.295
   29ARHM    C6 5384   2.171   4.633   0.385
   29ARHM   H61 5385   2.148   4.536   0.337
   29ARHM   H62 5386   2.146   4.627   0.493
   29ARHM   H63 5387   2.108   4.711   0.338
   30ARHM    C1 5388   2.680   4.658   0.687
   30ARHM    H1 5389   2.764   4.722   0.655
   30ARHM    C5 5390   2.615   4.428   0.714
   30ARHM    H5 5391   2.521   4.446   0.658
   30ARHM    O5 5392   2.716   4.520   0.671
   30ARHM    C2 5393   2.652   4.683   0.834
   30ARHM    H2 5394   2.618   4.788   0.845
   30ARHM    O2 5395   2.771   4.662   0.911
   30ARHM    C3 5396   2.544   4.591   0.886
   30ARHM    H3 5397   2.454   4.609   0.824
   30ARHM    O3 5398   2.507   4.628   1.021
   30ARHM    C4 5399   2.587   4.446   0.863
   30ARHM    H4 5400   2.681   4.424   0.918
   30ARHM    O4 5401   2.488   4.352   0.905
   30ARHM   HO4 5402   2.400   4.392   0.898
   30ARHM    C6 5403   2.667   4.288   0.677
   30ARHM   H61 5404   2.591   4.211   0.700
   30ARHM   H62 5405   2.692   4.284   0.569
   30ARHM   H63 5406   2.759   4.265   0.735
   31BMANN   C1 5407   2.849   4.775   0.942
   31BMANN   H1 5408   2.785   4.864   0.963
   31BMANN   C5 5409   3.035   4.911   0.877
   31BMANN   H5 5410   2.974   5.003   0.895
   31BMANN   O5 5411   2.947   4.802   0.841
   31BMANN   C2 5412   2.925   4.731   1.065
   31BMANN   H2 5413   2.849   4.712   1.144
   31BMANN    N 5414   2.995   4.606   1.040
   31BMANN   HN 5415   3.015   4.586   0.944
   31BMANN    C 5416   3.028   4.518   1.134
   31BMANN    O 5417   3.001   4.538   1.252
   31BMANN   CT 5418   3.097   4.393   1.088
   31BMANN  HT1 5419   3.186   4.419   1.027
   31BMANN  HT2 5420   3.028   4.330   1.028
   31BMANN  HT3 5421   3.130   4.335   1.177
   31BMANN   C3 5422   3.012   4.844   1.112
   31BMANN   H3 5423   2.949   4.934   1.127
   31BMANN   O3 5424   3.071   4.815   1.238
   31BMANN  HO3 5425   3.064   4.722   1.257
   31BMANN   C4 5426   3.112   4.877   1.004
   31BMANN   H4 5427   3.179   4.790   0.984
   31BMANN   O4 5428   3.194   4.987   1.043
   31BMANN  HO4 5429   3.225   4.970   1.132
   31BMANN   C6 5430   3.127   4.938   0.759
   31BMANN  H61 5431   3.203   5.014   0.786
   31BMANN  H62 5432   3.180   4.844   0.733
   31BMANN   O6 5433   3.056   4.986   0.644
   31BMANN  HO6 5434   3.027   5.076   0.660
   32BGLCN   C1 5435   2.579   4.569   1.128
   32BGLCN   H1 5436   2.687   4.561   1.103
   32BGLCN   C5 5437   2.602   4.372   1.261
   32BGLCN   H5 5438   2.709   4.366   1.231
   32BGLCN   O5 5439   2.528   4.439   1.158
   32BGLCN   C2 5440   2.562   4.653   1.253
   32BGLCN   H2 5441   2.455   4.645   1.283
   32BGLCN    N 5442   2.594   4.793   1.231
   32BGLCN   HN 5443   2.689   4.814   1.209
   32BGLCN    C 5444   2.508   4.895   1.246
   32BGLCN    O 5445   2.391   4.881   1.279
   32BGLCN   CT 5446   2.562   5.032   1.218
   32BGLCN  HT1 5447   2.647   5.027   1.147
   32BGLCN  HT2 5448   2.594   5.081   1.312
   32BGLCN  HT3 5449   2.481   5.093   1.173
   32BGLCN   C3 5450   2.645   4.591   1.363
   32BGLCN   H3 5451   2.749   4.582   1.325
   32BGLCN   O3 5452   2.647   4.669   1.484
   32BGLCN   C4 5453   2.592   4.451   1.390
   32BGLCN   H4 5454   2.485   4.459   1.420
   32BGLCN   O4 5455   2.662   4.387   1.495
   32BGLCN  HO4 5456   2.656   4.443   1.573
   32BGLCN   C6 5457   2.548   4.231   1.266
   32BGLCN  H61 5458   2.605   4.171   1.340
   32BGLCN  H62 5459   2.442   4.232   1.298
   32BGLCN   O6 5460   2.558   4.169   1.137
   32BGLCN  HO6 5461   2.529   4.233   1.072
   33AGAL    C1 5462   2.778   4.684   1.537
   33AGAL    H1 5463   2.838   4.593   1.521
   33AGAL    C5 5464   2.784   4.922   1.502
   33AGAL    H5 5465   2.680   4.922   1.462
   33AGAL    O5 5466   2.845   4.795   1.475
   33AGAL    C2 5467   2.771   4.709   1.687
   33AGAL    H2 5468   2.877   4.719   1.720
   33AGAL    O2 5469   2.714   4.596   1.754
   33AGAL    C3 5470   2.698   4.839   1.715
   33AGAL    H3 5471   2.597   4.832   1.670
   33AGAL    O3 5472   2.679   4.863   1.854
   33AGAL   HO3 5473   2.758   4.906   1.886
   33AGAL    C4 5474   2.774   4.952   1.651
   33AGAL    H4 5475   2.717   5.047   1.664
   33AGAL    O4 5476   2.902   4.971   1.710
   33AGAL   HO4 5477   2.965   4.985   1.638
   33AGAL    C6 5478   2.864   5.028   1.426
   33AGAL   H61 5479   2.844   5.018   1.317
   33AGAL   H62 5480   2.831   5.129   1.457
   33AGAL    O6 5481   3.005   5.015   1.447
   33AGAL   HO6 5482   3.034   4.935   1.403
   34ARHM    C1 5483   2.778   4.565   1.876
   34ARHM    H1 5484   2.801   4.659   1.932
   34ARHM    C5 5485   2.881   4.372   1.784
   34ARHM    H5 5486   2.840   4.395   1.683
   34ARHM    O5 5487   2.900   4.493   1.857
   34ARHM    C2 5488   2.683   4.480   1.958
   34ARHM    H2 5489   2.587   4.535   1.968
   34ARHM    O2 5490   2.733   4.451   2.090
   34ARHM    C3 5491   2.654   4.351   1.883
   34ARHM    H3 5492   2.608   4.376   1.785
   34ARHM    O3 5493   2.560   4.271   1.956
   34ARHM   HO3 5494   2.528   4.200   1.900
   34ARHM    C4 5495   2.785   4.279   1.858
   34ARHM    H4 5496   2.831   4.251   1.956
   34ARHM    O4 5497   2.764   4.160   1.781
   34ARHM   HO4 5498   2.795   4.084   1.830
   34ARHM    C6 5499   3.023   4.314   1.765
   34ARHM   H61 5500   3.069   4.294   1.864
   34ARHM   H62 5501   3.020   4.220   1.707
   34ARHM   H63 5502   3.086   4.388   1.712
   35ARHM    C1 5503   2.746   4.562   2.176
   35ARHM    H1 5504   2.669   4.638   2.151
   35ARHM    C5 5505   2.983   4.532   2.201
   35ARHM    H5 5506   2.982   4.445   2.132
   35ARHM    O5 5507   2.876   4.622   2.167
   35ARHM    C2 5508   2.723   4.510   2.316
   35ARHM    H2 5509   2.626   4.456   2.318
   35ARHM    O2 5510   2.719   4.614   2.415
   35ARHM    C3 5511   2.831   4.411   2.354
   35ARHM    H3 5512   2.831   4.327   2.280
   35ARHM    O3 5513   2.808   4.352   2.482
   35ARHM   HO3 5514   2.894   4.344   2.523
   35ARHM    C4 5515   2.964   4.483   2.345
   35ARHM    H4 5516   2.960   4.573   2.410
   35ARHM    O4 5517   3.074   4.404   2.391
   35ARHM   HO4 5518   3.084   4.326   2.337
   35ARHM    C6 5519   3.113   4.610   2.178
   35ARHM   H61 5520   3.120   4.641   2.071
   35ARHM   H62 5521   3.116   4.701   2.242
   35ARHM   H63 5522   3.202   4.546   2.201
   36BMANN   C1 5523   2.608   4.700   2.410
   36BMANN   H1 5524   2.519   4.647   2.369
   36BMANN   C5 5525   2.526   4.907   2.325
   36BMANN   H5 5526   2.438   4.854   2.283
   36BMANN   O5 5527   2.637   4.816   2.331
   36BMANN   C2 5528   2.583   4.746   2.552
   36BMANN   H2 5529   2.557   4.653   2.608
   36BMANN    N 5530   2.701   4.804   2.614
   36BMANN   HN 5531   2.762   4.855   2.553
   36BMANN    C 5532   2.729   4.797   2.745
   36BMANN    O 5533   2.660   4.732   2.825
   36BMANN   CT 5534   2.851   4.872   2.791
   36BMANN  HT1 5535   2.850   4.975   2.749
   36BMANN  HT2 5536   2.943   4.819   2.759
   36BMANN  HT3 5537   2.851   4.879   2.902
   36BMANN   C3 5538   2.462   4.837   2.553
   36BMANN   H3 5539   2.375   4.783   2.512
   36BMANN   O3 5540   2.429   4.878   2.686
   36BMANN  HO3 5541   2.369   4.815   2.727
   36BMANN   C4 5542   2.490   4.957   2.465
   36BMANN   H4 5543   2.577   5.013   2.506
   36BMANN   O4 5544   2.379   5.046   2.458
   36BMANN  HO4 5545   2.347   5.063   2.547
   36BMANN   C6 5546   2.561   5.019   2.229
   36BMANN  H61 5547   2.586   4.975   2.130
   36BMANN  H62 5548   2.474   5.086   2.214
   36BMANN   O6 5549   2.674   5.096   2.272
   36BMANN  HO6 5550   2.653   5.147   2.350
    1ECLIP HB6S 5551   4.393   2.078  11.832
    1ECLIP  OB6 5552   4.246   1.988  11.948
    1ECLIP  CB6 5553   4.346   1.979  11.845
    1ECLIP HB6R 5554   4.425   1.906  11.874
    1ECLIP  CB5 5555   4.289   1.936  11.711
    1ECLIP  OB5 5556   4.189   2.031  11.670
    1ECLIP  HB5 5557   4.240   1.837  11.727
    1ECLIP  CB1 5558   4.120   1.987  11.553
    1ECLIP  HB1 5559   4.079   1.885  11.573
    1ECLIP  OA6 5560   4.010   2.068  11.519
    1ECLIP  CA6 5561   4.033   2.209  11.522
    1ECLIP HA6R 5562   4.141   2.233  11.505
    1ECLIP HA6S 5563   4.008   2.248  11.623
    1ECLIP  CB4 5564   4.395   1.924  11.601
    1ECLIP  HB4 5565   4.441   2.023  11.583
    1ECLIP  OB4 5566   4.489   1.829  11.648
    1ECLIP   PB 5567   4.648   1.851  11.669
    1ECLIP OPB4 5568   4.691   1.724  11.738
    1ECLIP OPB3 5569   4.671   1.981  11.745
    1ECLIP OPB2 5570   4.711   1.840  11.532
    1ECLIP  CB3 5571   4.328   1.878  11.473
    1ECLIP  OB3 5572   4.416   1.877  11.361
    1ECLIP  HB3 5573   4.282   1.778  11.487
    1ECLIP  C71 5574   4.500   1.780  11.338
    1ECLIP  O71 5575   4.521   1.682  11.409
    1ECLIP  C72 5576   4.563   1.797  11.201
    1ECLIP H72R 5577   4.482   1.811  11.126
    1ECLIP H72S 5578   4.619   1.704  11.178
    1ECLIP  CB2 5579   4.217   1.976  11.437
    1ECLIP  HB2 5580   4.264   2.076  11.423
    1ECLIP  NB2 5581   4.148   1.941  11.313
    1ECLIP HNB2 5582   4.068   1.881  11.320
    1ECLIP  CA4 5583   3.857   2.189  11.335
    1ECLIP  HA4 5584   3.922   2.113  11.287
    1ECLIP  OA4 5585   3.764   2.122  11.420
    1ECLIP HOA4 5586   3.808   2.109  11.504
    1ECLIP  CA5 5587   3.947   2.281  11.418
    1ECLIP  HA5 5588   3.886   2.358  11.469
    1ECLIP  OA5 5589   4.040   2.346  11.330
    1ECLIP  CA1 5590   3.979   2.427  11.228
    1ECLIP  HA1 5591   4.059   2.473  11.167
    1ECLIP  OA1 5592   3.892   2.526  11.278
    1ECLIP OPA2 5593   3.863   2.648  11.498
    1ECLIP OPA3 5594   4.086   2.668  11.376
    1ECLIP OPA4 5595   3.868   2.775  11.300
    1ECLIP   PA 5596   3.936   2.656  11.365
    1ECLIP  CA3 5597   3.788   2.269  11.226
    1ECLIP  HA3 5598   3.733   2.351  11.278
    1ECLIP  OA3 5599   3.683   2.197  11.160
    1ECLIP  C31 5600   3.717   2.083  11.101
    1ECLIP  O31 5601   3.792   2.073  11.005
    1ECLIP  C32 5602   3.622   1.974  11.150
    1ECLIP H32R 5603   3.549   1.952  11.070
    1ECLIP H32S 5604   3.567   2.012  11.239
    1ECLIP  CA2 5605   3.897   2.333  11.139
    1ECLIP  HA2 5606   3.964   2.251  11.107
    1ECLIP  NA2 5607   3.850   2.399  11.019
    1ECLIP HNA2 5608   3.761   2.445  11.025
    1ECLIP  C73 5609   4.657   1.918  11.200
    1ECLIP H73R 5610   4.718   1.917  11.293
    1ECLIP  O73 5611   4.578   2.036  11.190
    1ECLIP  C81 5612   4.633   2.149  11.230
    1ECLIP  O81 5613   4.745   2.161  11.277
    1ECLIP  C82 5614   4.548   2.267  11.184
    1ECLIP H82R 5615   4.597   2.360  11.223
    1ECLIP H82S 5616   4.448   2.258  11.230
    1ECLIP  C83 5617   4.535   2.275  11.031
    1ECLIP H83R 5618   4.469   2.192  10.997
    1ECLIP H83S 5619   4.633   2.263  10.981
    1ECLIP  C84 5620   4.473   2.407  10.982
    1ECLIP H84R 5621   4.544   2.491  10.999
    1ECLIP H84S 5622   4.381   2.428  11.041
    1ECLIP  C85 5623   4.433   2.399  10.834
    1ECLIP H85R 5624   4.351   2.325  10.826
    1ECLIP H85S 5625   4.520   2.361  10.775
    1ECLIP  C86 5626   4.384   2.531  10.773
    1ECLIP H86R 5627   4.470   2.600  10.761
    1ECLIP H86S 5628   4.312   2.578  10.844
    1ECLIP  C87 5629   4.313   2.512  10.638
    1ECLIP H87R 5630   4.293   2.612  10.592
    1ECLIP H87S 5631   4.215   2.464  10.658
    1ECLIP  C88 5632   4.390   2.423  10.540
    1ECLIP H88R 5633   4.399   2.322  10.585
    1ECLIP H88S 5634   4.493   2.462  10.525
    1ECLIP  C89 5635   4.322   2.405  10.403
    1ECLIP H89R 5636   4.213   2.388  10.417
    1ECLIP H89S 5637   4.363   2.311  10.359
    1ECLIP C810 5638   4.346   2.521  10.306
    1ECLIPH810R 5639   4.447   2.563  10.322
    1ECLIPH810S 5640   4.273   2.602  10.329
    1ECLIP C811 5641   4.331   2.479  10.158
    1ECLIPH811R 5642   4.327   2.571  10.095
    1ECLIPH811S 5643   4.234   2.427  10.147
    1ECLIP C812 5644   4.444   2.388  10.105
    1ECLIPH812R 5645   4.415   2.352  10.004
    1ECLIPH812S 5646   4.453   2.299  10.170
    1ECLIP C813 5647   4.580   2.458  10.095
    1ECLIPH813R 5648   4.571   2.545  10.026
    1ECLIPH813S 5649   4.609   2.497  10.195
    1ECLIP C814 5650   4.691   2.365  10.045
    1ECLIPH814R 5651   4.664   2.320   9.947
    1ECLIPH814S 5652   4.708   2.283  10.118
    1ECLIPH814T 5653   4.787   2.421  10.033
    1ECLIP  C74 5654   4.755   1.914  11.080
    1ECLIP H74R 5655   4.814   1.820  11.084
    1ECLIP H74S 5656   4.826   1.998  11.093
    1ECLIP  C75 5657   4.692   1.928  10.940
    1ECLIP H75R 5658   4.768   1.973  10.873
    1ECLIP H75S 5659   4.606   1.998  10.943
    1ECLIP  C76 5660   4.647   1.796  10.874
    1ECLIP H76R 5661   4.559   1.753  10.927
    1ECLIP H76S 5662   4.729   1.722  10.880
    1ECLIP  C77 5663   4.610   1.818  10.726
    1ECLIP H77R 5664   4.697   1.869  10.678
    1ECLIP H77S 5665   4.523   1.887  10.721
    1ECLIP  C78 5666   4.579   1.689  10.649
    1ECLIP H78R 5667   4.670   1.626  10.648
    1ECLIP H78S 5668   4.499   1.633  10.702
    1ECLIP  C79 5669   4.534   1.714  10.503
    1ECLIP H79R 5670   4.428   1.749  10.504
    1ECLIP H79S 5671   4.535   1.617  10.448
    1ECLIP C710 5672   4.619   1.818  10.429
    1ECLIPH710R 5673   4.614   1.914  10.483
    1ECLIPH710S 5674   4.725   1.784  10.428
    1ECLIP C711 5675   4.572   1.845  10.286
    1ECLIPH711R 5676   4.577   1.751  10.227
    1ECLIPH711S 5677   4.466   1.878  10.289
    1ECLIP C712 5678   4.656   1.955  10.220
    1ECLIPH712R 5679   4.760   1.917  10.207
    1ECLIPH712S 5680   4.661   2.042  10.288
    1ECLIP C713 5681   4.602   2.002  10.084
    1ECLIPH713R 5682   4.506   2.054  10.101
    1ECLIPH713S 5683   4.673   2.075  10.041
    1ECLIP C714 5684   4.581   1.889   9.984
    1ECLIPH714R 5685   4.676   1.834   9.966
    1ECLIPH714S 5686   4.505   1.817  10.021
    1ECLIPH714T 5687   4.545   1.930   9.887
    1ECLIP  C51 5688   4.184   1.984  11.192
    1ECLIP  O51 5689   4.271   2.068  11.176
    1ECLIP  C52 5690   4.112   1.917  11.077
    1ECLIP H52R 5691   4.149   1.813  11.067
    1ECLIP H52S 5692   4.004   1.913  11.104
    1ECLIP  C53 5693   4.125   1.988  10.941
    1ECLIP H53R 5694   4.096   2.095  10.952
    1ECLIP  O53 5695   4.034   1.914  10.860
    1ECLIP  C61 5696   3.955   1.983  10.779
    1ECLIP  O61 5697   3.977   2.094  10.736
    1ECLIP  C62 5698   3.871   1.878  10.704
    1ECLIP H62R 5699   3.810   1.823  10.779
    1ECLIP H62S 5700   3.943   1.808  10.658
    1ECLIP  C63 5701   3.779   1.940  10.597
    1ECLIP H63R 5702   3.840   1.998  10.525
    1ECLIP H63S 5703   3.708   2.011  10.645
    1ECLIP  C64 5704   3.698   1.834  10.519
    1ECLIP H64R 5705   3.640   1.888  10.441
    1ECLIP H64S 5706   3.625   1.785  10.587
    1ECLIP  C65 5707   3.788   1.726  10.455
    1ECLIP H65R 5708   3.819   1.654  10.533
    1ECLIP H65S 5709   3.880   1.775  10.417
    1ECLIP  C66 5710   3.723   1.649  10.339
    1ECLIP H66R 5711   3.637   1.590  10.378
    1ECLIP H66S 5712   3.798   1.577  10.300
    1ECLIP  C67 5713   3.673   1.736  10.222
    1ECLIP H67R 5714   3.580   1.788  10.253
    1ECLIP H67S 5715   3.647   1.671  10.136
    1ECLIP  C68 5716   3.776   1.842  10.177
    1ECLIP H68R 5717   3.870   1.792  10.147
    1ECLIP H68S 5718   3.799   1.907  10.264
    1ECLIP  C69 5719   3.726   1.933  10.065
    1ECLIP H69R 5720   3.621   1.963  10.087
    1ECLIP H69S 5721   3.726   1.877   9.969
    1ECLIP C610 5722   3.811   2.060  10.056
    1ECLIPH610R 5723   3.917   2.033  10.038
    1ECLIPH610S 5724   3.807   2.111  10.155
    1ECLIP C611 5725   3.765   2.159   9.948
    1ECLIPH611R 5726   3.666   2.200   9.979
    1ECLIPH611S 5727   3.837   2.244   9.947
    1ECLIP C612 5728   3.752   2.101   9.808
    1ECLIPH612R 5729   3.740   2.181   9.732
    1ECLIPH612S 5730   3.843   2.041   9.783
    1ECLIPH612T 5731   3.664   2.033   9.802
    1ECLIP  C54 5732   4.268   1.978  10.882
    1ECLIP H54R 5733   4.294   1.871  10.865
    1ECLIP H54S 5734   4.340   2.017  10.957
    1ECLIP  C55 5735   4.291   2.058  10.753
    1ECLIP H55R 5736   4.397   2.092  10.748
    1ECLIP H55S 5737   4.227   2.149  10.757
    1ECLIP  C56 5738   4.259   1.977  10.628
    1ECLIP H56R 5739   4.160   1.927  10.640
    1ECLIP H56S 5740   4.333   1.895  10.617
    1ECLIP  C57 5741   4.252   2.060  10.500
    1ECLIP H57R 5742   4.355   2.094  10.474
    1ECLIP H57S 5743   4.189   2.150  10.517
    1ECLIP  C58 5744   4.193   1.975  10.388
    1ECLIP H58R 5745   4.242   1.875  10.392
    1ECLIP H58S 5746   4.084   1.959  10.408
    1ECLIP  C59 5747   4.212   2.033  10.248
    1ECLIP H59R 5748   4.318   2.067  10.237
    1ECLIP H59S 5749   4.146   2.121  10.233
    1ECLIP C510 5750   4.184   1.924  10.145
    1ECLIPH510R 5751   4.078   1.891  10.157
    1ECLIPH510S 5752   4.249   1.836  10.167
    1ECLIP C511 5753   4.209   1.969  10.002
    1ECLIPH511R 5754   4.139   2.052   9.978
    1ECLIPH511S 5755   4.312   2.008   9.993
    1ECLIP C512 5756   4.190   1.854   9.902
    1ECLIPH512R 5757   4.217   1.891   9.801
    1ECLIPH512S 5758   4.259   1.771   9.926
    1ECLIP C513 5759   4.046   1.801   9.896
    1ECLIPH513R 5760   3.974   1.886   9.900
    1ECLIPH513S 5761   4.028   1.737   9.984
    1ECLIP C514 5762   4.020   1.722   9.768
    1ECLIPH514R 5763   4.109   1.658   9.748
    1ECLIPH514S 5764   3.930   1.658   9.778
    1ECLIPH514T 5765   4.006   1.791   9.682
    1ECLIP  C33 5766   3.697   1.845  11.190
    1ECLIP H33R 5767   3.628   1.777  11.245
    1ECLIP  O33 5768   3.805   1.878  11.277
    1ECLIP HO33 5769   3.779   1.935  11.350
    1ECLIP  C34 5770   3.751   1.770  11.067
    1ECLIP H34R 5771   3.816   1.839  11.010
    1ECLIP H34S 5772   3.665   1.744  11.001
    1ECLIP  C35 5773   3.833   1.643  11.094
    1ECLIP H35R 5774   3.767   1.561  11.131
    1ECLIP H35S 5775   3.908   1.665  11.173
    1ECLIP  C36 5776   3.906   1.601  10.966
    1ECLIP H36R 5777   3.953   1.693  10.925
    1ECLIP H36S 5778   3.834   1.565  10.891
    1ECLIP  C37 5779   4.020   1.500  10.986
    1ECLIP H37R 5780   3.977   1.397  10.989
    1ECLIP H37S 5781   4.069   1.518  11.083
    1ECLIP  C38 5782   4.126   1.510  10.874
    1ECLIP H38R 5783   4.180   1.607  10.887
    1ECLIP H38S 5784   4.200   1.428  10.886
    1ECLIP  C39 5785   4.067   1.507  10.732
    1ECLIP H39R 5786   3.997   1.593  10.720
    1ECLIP H39S 5787   4.008   1.414  10.719
    1ECLIP C310 5788   4.173   1.517  10.622
    1ECLIPH310R 5789   4.233   1.424  10.622
    1ECLIPH310S 5790   4.241   1.602  10.645
    1ECLIP C311 5791   4.110   1.540  10.484
    1ECLIPH311R 5792   4.029   1.465  10.469
    1ECLIPH311S 5793   4.062   1.641  10.483
    1ECLIP C312 5794   4.210   1.530  10.369
    1ECLIPH312R 5795   4.292   1.603  10.386
    1ECLIPH312S 5796   4.256   1.428  10.370
    1ECLIP C313 5797   4.146   1.556  10.232
    1ECLIPH313R 5798   4.062   1.484  10.218
    1ECLIPH313S 5799   4.103   1.658  10.232
    1ECLIP C314 5800   4.245   1.541  10.116
    1ECLIPH314R 5801   4.287   1.439  10.113
    1ECLIPH314S 5802   4.194   1.562  10.019
    1ECLIPH314T 5803   4.329   1.613  10.128
    1ECLIP  C11 5804   3.926   2.415  10.909
    1ECLIP  O11 5805   4.036   2.361  10.896
    1ECLIP  C12 5806   3.876   2.512  10.804
    1ECLIP H12R 5807   3.936   2.604  10.816
    1ECLIP H12S 5808   3.769   2.536  10.822
    1ECLIP  C13 5809   3.895   2.458  10.661
    1ECLIP H13R 5810   3.997   2.416  10.649
    1ECLIP  O13 5811   3.883   2.569  10.574
    1ECLIP HO13 5812   3.891   2.544  10.482
    1ECLIP  C14 5813   3.791   2.353  10.617
    1ECLIP H14R 5814   3.692   2.384  10.657
    1ECLIP H14S 5815   3.817   2.256  10.664
    1ECLIP  C15 5816   3.774   2.334  10.463
    1ECLIP H15R 5817   3.728   2.427  10.423
    1ECLIP H15S 5818   3.700   2.253  10.446
    1ECLIP  C16 5819   3.902   2.302  10.384
    1ECLIP H16R 5820   3.910   2.191  10.376
    1ECLIP H16S 5821   3.993   2.336  10.440
    1ECLIP  C17 5822   3.905   2.364  10.244
    1ECLIP H17R 5823   3.807   2.343  10.194
    1ECLIP H17S 5824   3.984   2.315  10.183
    1ECLIP  C18 5825   3.930   2.516  10.244
    1ECLIP H18R 5826   3.858   2.563  10.314
    1ECLIP H18S 5827   4.033   2.538  10.281
    1ECLIP  C19 5828   3.906   2.583  10.108
    1ECLIP H19R 5829   3.892   2.692  10.123
    1ECLIP H19S 5830   3.809   2.544  10.068
    1ECLIP C110 5831   4.016   2.563  10.002
    1ECLIPH110R 5832   4.099   2.633  10.022
    1ECLIPH110S 5833   4.055   2.459  10.008
    1ECLIP C111 5834   3.956   2.586   9.863
    1ECLIPH111R 5835   3.887   2.501   9.846
    1ECLIPH111S 5836   3.896   2.679   9.864
    1ECLIP C112 5837   4.052   2.589   9.744
    1ECLIPH112R 5838   4.120   2.677   9.749
    1ECLIPH112S 5839   4.115   2.498   9.745
    1ECLIP C113 5840   3.968   2.591   9.616
    1ECLIPH113R 5841   3.882   2.522   9.634
    1ECLIPH113S 5842   3.926   2.693   9.603
    1ECLIP C114 5843   4.034   2.544   9.487
    1ECLIPH114R 5844   4.083   2.446   9.502
    1ECLIPH114S 5845   3.958   2.532   9.407
    1ECLIPH114T 5846   4.110   2.618   9.452
    2AKDO    C1 5847   4.279   1.767  12.035
    2AKDO   O11 5848   4.391   1.708  12.035
    2AKDO   O12 5849   4.166   1.712  12.033
    2AKDO    C2 5850   4.280   1.920  12.068
    2AKDO    C6 5851   4.427   2.093  12.142
    2AKDO    H6 5852   4.383   2.143  12.053
    2AKDO    O6 5853   4.412   1.954  12.115
    2AKDO    C3 5854   4.180   1.968  12.175
    2AKDO   H31 5855   4.194   1.910  12.268
    2AKDO   H32 5856   4.077   1.950  12.137
    2AKDO    C4 5857   4.197   2.116  12.203
    2AKDO    H4 5858   4.184   2.169  12.106
    2AKDO    O4 5859   4.108   2.169  12.300
    2AKDO    C5 5860   4.337   2.142  12.256
    2AKDO    H5 5861   4.347   2.252  12.266
    2AKDO    O5 5862   4.353   2.077  12.385
    2AKDO    C7 5863   4.575   2.130  12.136
    2AKDO    H7 5864   4.616   2.148  12.237
    2AKDO    O7 5865   4.591   2.249  12.055
    2AKDO   HO7 5866   4.559   2.320  12.111
    2AKDO    C8 5867   4.652   2.014  12.070
    2AKDO   H81 5868   4.662   1.933  12.145
    2AKDO   H82 5869   4.594   1.969  11.986
    2AKDO    O8 5870   4.781   2.048  12.019
    2AKDO   HO8 5871   4.827   1.964  12.011
    3AKDO    C1 5872   4.009   2.340  12.142
    3AKDO   O11 5873   3.911   2.357  12.065
    3AKDO   O12 5874   4.116   2.407  12.144
    3AKDO    C2 5875   3.990   2.236  12.260
    3AKDO    C6 5876   3.865   2.046  12.341
    3AKDO    H6 5877   3.962   1.994  12.358
    3AKDO    O6 5878   3.883   2.142  12.234
    3AKDO    C3 5879   3.957   2.310  12.390
    3AKDO   H31 5880   3.865   2.370  12.375
    3AKDO   H32 5881   4.039   2.382  12.411
    3AKDO    C4 5882   3.940   2.217  12.506
    3AKDO    H4 5883   4.033   2.158  12.522
    3AKDO    O4 5884   3.919   2.293  12.624
    3AKDO   HO4 5885   4.001   2.299  12.674
    3AKDO    C5 5886   3.828   2.118  12.472
    3AKDO    H5 5887   3.823   2.043  12.553
    3AKDO    O5 5888   3.700   2.180  12.464
    3AKDO   HO5 5889   3.701   2.241  12.391
    3AKDO    C7 5890   3.766   1.938  12.300
    3AKDO    H7 5891   3.663   1.980  12.301
    3AKDO    O7 5892   3.772   1.826  12.390
    3AKDO   HO7 5893   3.724   1.762  12.338
    3AKDO    C8 5894   3.794   1.884  12.161
    3AKDO   H81 5895   3.793   1.965  12.086
    3AKDO   H82 5896   3.895   1.837  12.159
    3AKDO    O8 5897   3.698   1.783  12.125
    3AKDO   HO8 5898   3.623   1.827  12.084
    4AHEP    C1 5899   4.452   2.126  12.474
    4AHEP    H1 5900   4.549   2.090  12.435
    4AHEP    C5 5901   4.342   2.327  12.540
    4AHEP    H5 5902   4.252   2.288  12.488
    4AHEP    O5 5903   4.459   2.268  12.478
    4AHEP    C2 5904   4.443   2.072  12.618
    4AHEP    H2 5905   4.428   1.963  12.611
    4AHEP    O2 5906   4.562   2.095  12.694
    4AHEP   HO2 5907   4.530   2.147  12.768
    4AHEP    C3 5908   4.324   2.131  12.694
    4AHEP    H3 5909   4.230   2.096  12.646
    4AHEP    O3 5910   4.332   2.093  12.834
    4AHEP    C4 5911   4.336   2.282  12.687
    4AHEP    H4 5912   4.429   2.315  12.737
    4AHEP    O4 5913   4.219   2.339  12.747
    4AHEP    P4 5914   4.231   2.449  12.869
    4AHEP  OP42 5915   4.087   2.486  12.900
    4AHEP  OP43 5916   4.312   2.566  12.815
    4AHEP  OP44 5917   4.305   2.384  12.984
    4AHEP    C6 5918   4.341   2.479  12.517
    4AHEP    H6 5919   4.244   2.519  12.551
    4AHEP    O6 5920   4.444   2.542  12.595
    4AHEP   HO6 5921   4.397   2.557  12.677
    4AHEP    C7 5922   4.357   2.520  12.370
    4AHEP   H71 5923   4.350   2.631  12.362
    4AHEP   H72 5924   4.274   2.476  12.311
    4AHEP    O7 5925   4.483   2.478  12.315
    4AHEP   HO7 5926   4.527   2.447  12.394
    5AHEP    C1 5927   4.216   2.035  12.892
    5AHEP    H1 5928   4.126   2.073  12.839
    5AHEP    C5 5929   4.329   1.833  12.958
    5AHEP    H5 5930   4.424   1.878  12.924
    5AHEP    O5 5931   4.220   1.892  12.883
    5AHEP    C2 5932   4.199   2.070  13.041
    5AHEP    H2 5933   4.206   2.180  13.051
    5AHEP    O2 5934   4.068   2.034  13.089
    5AHEP   HO2 5935   4.011   2.111  13.077
    5AHEP    C3 5936   4.309   2.010  13.127
    5AHEP    H3 5937   4.406   2.054  13.094
    5AHEP    O3 5938   4.289   2.032  13.268
    5AHEP    C4 5939   4.313   1.860  13.108
    5AHEP    H4 5940   4.218   1.816  13.145
    5AHEP    O4 5941   4.427   1.805  13.175
    5AHEP    P4 5942   4.419   1.705  13.306
    5AHEP  OP42 5943   4.564   1.684  13.347
    5AHEP  OP43 5944   4.358   1.573  13.263
    5AHEP  OP44 5945   4.341   1.773  13.416
    5AHEP    C6 5946   4.332   1.685  12.921
    5AHEP    H6 5947   4.422   1.640  12.969
    5AHEP    O6 5948   4.215   1.619  12.972
    5AHEP   HO6 5949   4.160   1.693  12.995
    5AHEP    C7 5950   4.345   1.670  12.770
    5AHEP   H71 5951   4.431   1.603  12.749
    5AHEP   H72 5952   4.369   1.767  12.721
    5AHEP    O7 5953   4.229   1.610  12.711
    6AHEP    C1 5954   4.146   1.699  12.639
    6AHEP    H1 5955   4.169   1.806  12.659
    6AHEP    C5 5956   4.139   1.532  12.467
    6AHEP    H5 5957   4.212   1.472  12.526
    6AHEP    O5 5958   4.158   1.672  12.499
    6AHEP    C2 5959   4.004   1.667  12.683
    6AHEP    H2 5960   4.004   1.679  12.794
    6AHEP    O2 5961   3.904   1.757  12.636
    6AHEP   HO2 5962   3.904   1.769  12.541
    6AHEP    C3 5963   3.976   1.521  12.654
    6AHEP    H3 5964   4.049   1.462  12.713
    6AHEP    O3 5965   3.845   1.484  12.698
    6AHEP   HO3 5966   3.790   1.561  12.684
    6AHEP    C4 5967   3.997   1.491  12.506
    6AHEP    H4 5968   3.925   1.551  12.447
    6AHEP    O4 5969   3.977   1.351  12.475
    6AHEP   HO4 5970   3.944   1.353  12.385
    6AHEP    C6 5971   4.171   1.502  12.321
    6AHEP    H6 5972   4.156   1.393  12.302
    6AHEP    O6 5973   4.077   1.572  12.238
    6AHEP   HO6 5974   4.125   1.633  12.181
    6AHEP    C7 5975   4.316   1.530  12.283
    6AHEP   H71 5976   4.331   1.507  12.175
    6AHEP   H72 5977   4.382   1.461  12.340
    6AHEP    O7 5978   4.362   1.663  12.309
    6AHEP   HO7 5979   4.365   1.705  12.223
    7AGLC    C1 5980   4.352   2.144  13.323
    7AGLC    H1 5981   4.452   2.159  13.276
    7AGLC    C5 5982   4.144   2.254  13.367
    7AGLC    H5 5983   4.093   2.164  13.326
    7AGLC    O5 5984   4.275   2.263  13.307
    7AGLC    C2 5985   4.371   2.121  13.473
    7AGLC    H2 5986   4.424   2.211  13.513
    7AGLC    O2 5987   4.457   2.010  13.498
    7AGLC   HO2 5988   4.414   1.930  13.465
    7AGLC    C3 5989   4.239   2.109  13.547
    7AGLC    H3 5990   4.184   2.022  13.506
    7AGLC    O3 5991   4.257   2.095  13.691
    7AGLC    C4 5992   4.160   2.236  13.517
    7AGLC    H4 5993   4.217   2.323  13.556
    7AGLC    O4 5994   4.032   2.235  13.581
    7AGLC   HO4 5995   4.005   2.326  13.594
    7AGLC    C6 5996   4.063   2.374  13.323
    7AGLC   H61 5997   4.071   2.384  13.213
    7AGLC   H62 5998   3.956   2.358  13.347
    7AGLC    O6 5999   4.106   2.497  13.385
    7AGLC   HO6 6000   4.084   2.567  13.323
    8AGLC    C1 6001   4.213   1.973  13.746
    8AGLC    H1 6002   4.118   1.941  13.697
    8AGLC    C5 6003   4.438   1.899  13.788
    8AGLC    H5 6004   4.470   1.998  13.749
    8AGLC    O5 6005   4.310   1.869  13.729
    8AGLC    C2 6006   4.192   1.986  13.897
    8AGLC    H2 6007   4.153   1.888  13.933
    8AGLC    O2 6008   4.099   2.089  13.934
    8AGLC    C3 6009   4.321   2.017  13.969
    8AGLC    H3 6010   4.358   2.114  13.928
    8AGLC    O3 6011   4.292   2.040  14.109
    8AGLC    C4 6012   4.424   1.910  13.940
    8AGLC    H4 6013   4.388   1.812  13.978
    8AGLC    O4 6014   4.549   1.941  14.001
    8AGLC   HO4 6015   4.597   1.999  13.942
    8AGLC    C6 6016   4.539   1.798  13.734
    8AGLC   H61 6017   4.509   1.768  13.632
    8AGLC   H62 6018   4.637   1.848  13.725
    8AGLC    O6 6019   4.556   1.682  13.816
    8AGLC   HO6 6020   4.627   1.632  13.777
    9AGAL    C1 6021   3.969   2.084  13.881
    9AGAL    H1 6022   3.971   2.085  13.770
    9AGAL    C5 6023   3.892   1.963  14.070
    9AGAL    H5 6024   3.996   1.971  14.109
    9AGAL    O5 6025   3.897   1.968  13.927
    9AGAL    C2 6026   3.900   2.211  13.930
    9AGAL    H2 6027   3.798   2.217  13.885
    9AGAL    O2 6028   3.981   2.315  13.874
    9AGAL    C3 6029   3.889   2.208  14.082
    9AGAL    H3 6030   3.992   2.204  14.124
    9AGAL    O3 6031   3.827   2.323  14.138
    9AGAL   HO3 6032   3.884   2.398  14.120
    9AGAL    C4 6033   3.816   2.082  14.126
    9AGAL    H4 6034   3.820   2.077  14.237
    9AGAL    O4 6035   3.678   2.081  14.090
    9AGAL   HO4 6036   3.668   2.123  14.003
    9AGAL    C6 6037   3.845   1.826  14.113
    9AGAL   H61 6038   3.919   1.752  14.078
    9AGAL   H62 6039   3.840   1.823  14.224
    9AGAL    O6 6040   3.717   1.788  14.060
    9AGAL   HO6 6041   3.717   1.814  13.968
   10AGAL    C1 6042   3.973   2.448  13.917
   10AGAL    H1 6043   3.866   2.480  13.920
   10AGAL    C5 6044   4.172   2.421  14.046
   10AGAL    H5 6045   4.178   2.318  14.004
   10AGAL    O5 6046   4.034   2.463  14.047
   10AGAL    C2 6047   4.047   2.535  13.816
   10AGAL    H2 6048   4.036   2.641  13.846
   10AGAL    O2 6049   3.990   2.519  13.686
   10AGAL   HO2 6050   3.974   2.603  13.643
   10AGAL    C3 6051   4.195   2.498  13.813
   10AGAL    H3 6052   4.203   2.391  13.782
   10AGAL    O3 6053   4.268   2.575  13.719
   10AGAL   HO3 6054   4.226   2.567  13.633
   10AGAL    C4 6055   4.253   2.511  13.953
   10AGAL    H4 6056   4.358   2.474  13.951
   10AGAL    O4 6057   4.256   2.645  14.003
   10AGAL   HO4 6058   4.173   2.688  13.981
   10AGAL    C6 6059   4.228   2.407  14.188
   10AGAL   H61 6060   4.167   2.332  14.243
   10AGAL   H62 6061   4.332   2.368  14.182
   10AGAL    O6 6062   4.227   2.530  14.260
   10AGAL   HO6 6063   4.247   2.598  14.196
   11BGLC    C1 6064   4.305   1.937  14.204
   11BGLC    H1 6065   4.412   1.912  14.220
   11BGLC    C5 6066   4.240   1.712  14.264
   11BGLC    H5 6067   4.346   1.688  14.284
   11BGLC    O5 6068   4.231   1.819  14.166
   11BGLC    C2 6069   4.243   1.991  14.334
   11BGLC    H2 6070   4.137   2.016  14.312
   11BGLC    O2 6071   4.304   2.112  14.382
   11BGLC   HO2 6072   4.390   2.126  14.342
   11BGLC    C3 6073   4.246   1.885  14.442
   11BGLC    H3 6074   4.351   1.861  14.468
   11BGLC    O3 6075   4.171   1.926  14.557
   11BGLC    C4 6076   4.175   1.763  14.392
   11BGLC    H4 6077   4.070   1.789  14.370
   11BGLC    O4 6078   4.175   1.662  14.493
   11BGLC   HO4 6079   4.200   1.704  14.576
   11BGLC    C6 6080   4.170   1.588  14.210
   11BGLC   H61 6081   4.141   1.520  14.293
   11BGLC   H62 6082   4.078   1.618  14.157
   11BGLC    O6 6083   4.252   1.512  14.121
   11BGLC   HO6 6084   4.325   1.473  14.169
   12BGLCN   C1 6085   4.243   1.947  14.675
   12BGLCN   H1 6086   4.311   2.034  14.661
   12BGLCN   C5 6087   4.389   1.848  14.835
   12BGLCN   H5 6088   4.460   1.933  14.821
   12BGLCN   O5 6089   4.316   1.830  14.712
   12BGLCN   C2 6090   4.139   1.975  14.782
   12BGLCN   H2 6091   4.082   1.880  14.794
   12BGLCN    N 6092   4.046   2.080  14.740
   12BGLCN   HN 6093   4.087   2.163  14.703
   12BGLCN    C 6094   3.913   2.065  14.739
   12BGLCN    O 6095   3.857   1.964  14.780
   12BGLCN   CT 6096   3.833   2.180  14.684
   12BGLCN  HT1 6097   3.753   2.208  14.755
   12BGLCN  HT2 6098   3.787   2.151  14.587
   12BGLCN  HT3 6099   3.898   2.269  14.666
   12BGLCN   C3 6100   4.207   2.002  14.915
   12BGLCN   H3 6101   4.271   2.093  14.905
   12BGLCN   O3 6102   4.108   2.022  15.018
   12BGLCN   C4 6103   4.292   1.880  14.947
   12BGLCN   H4 6104   4.223   1.793  14.959
   12BGLCN   O4 6105   4.362   1.893  15.070
   12BGLCN  HO4 6106   4.419   1.970  15.070
   12BGLCN   C6 6107   4.471   1.723  14.861
   12BGLCN  H61 6108   4.537   1.737  14.949
   12BGLCN  H62 6109   4.401   1.640  14.885
   12BGLCN   O6 6110   4.550   1.682  14.749
   12BGLCN  HO6 6111   4.626   1.740  14.735
   13AGAL    C1 6112   4.140   2.115  15.119
   13AGAL    H1 6113   4.248   2.110  15.143
   13AGAL    C5 6114   3.968   2.266  15.046
   13AGAL    H5 6115   3.940   2.188  14.972
   13AGAL    O5 6116   4.108   2.250  15.077
   13AGAL    C2 6117   4.060   2.087  15.245
   13AGAL    H2 6118   4.085   2.168  15.318
   13AGAL    O2 6119   4.098   1.961  15.303
   13AGAL    C3 6120   3.911   2.099  15.215
   13AGAL    H3 6121   3.889   2.030  15.130
   13AGAL    O3 6122   3.827   2.056  15.322
   13AGAL   HO3 6123   3.787   1.973  15.296
   13AGAL    C4 6124   3.881   2.241  15.169
   13AGAL    H4 6125   3.774   2.247  15.141
   13AGAL    O4 6126   3.906   2.338  15.271
   13AGAL   HO4 6127   3.995   2.372  15.257
   13AGAL    C6 6128   3.943   2.399  14.975
   13AGAL   H61 6129   4.011   2.405  14.887
   13AGAL   H62 6130   3.839   2.402  14.937
   13AGAL    O6 6131   3.965   2.515  15.057
   13AGAL   HO6 6132   3.897   2.516  15.124
   14ARHM    C1 6133   4.158   1.964  15.432
   14ARHM    H1 6134   4.219   2.056  15.442
   14ARHM    C5 6135   4.182   1.728  15.433
   14ARHM    H5 6136   4.142   1.721  15.330
   14ARHM    O5 6137   4.249   1.854  15.449
   14ARHM    C2 6138   4.049   1.960  15.537
   14ARHM    H2 6139   3.980   2.045  15.519
   14ARHM    O2 6140   4.093   1.969  15.674
   14ARHM    C3 6141   3.973   1.830  15.520
   14ARHM    H3 6142   3.931   1.826  15.417
   14ARHM    O3 6143   3.863   1.823  15.611
   14ARHM   HO3 6144   3.898   1.819  15.700
   14ARHM    C4 6145   4.069   1.713  15.534
   14ARHM    H4 6146   4.113   1.714  15.636
   14ARHM    O4 6147   4.002   1.588  15.516
   14ARHM   HO4 6148   4.061   1.514  15.526
   14ARHM    C6 6149   4.293   1.622  15.449
   14ARHM   H61 6150   4.373   1.639  15.374
   14ARHM   H62 6151   4.338   1.628  15.550
   14ARHM   H63 6152   4.253   1.520  15.434
   15ARHM    C1 6153   4.173   2.080  15.705
   15ARHM    H1 6154   4.151   2.165  15.636
   15ARHM    C5 6155   4.350   1.944  15.790
   15ARHM    H5 6156   4.296   1.851  15.762
   15ARHM    O5 6157   4.313   2.049  15.700
   15ARHM    C2 6158   4.140   2.124  15.847
   15ARHM    H2 6159   4.032   2.149  15.852
   15ARHM    O2 6160   4.218   2.242  15.872
   15ARHM    C3 6161   4.169   2.011  15.942
   15ARHM    H3 6162   4.113   1.921  15.908
   15ARHM    O3 6163   4.122   2.046  16.073
   15ARHM    C4 6164   4.317   1.981  15.935
   15ARHM    H4 6165   4.374   2.073  15.960
   15ARHM    O4 6166   4.356   1.879  16.026
   15ARHM   HO4 6167   4.448   1.859  16.010
   15ARHM    C6 6168   4.501   1.920  15.766
   15ARHM   H61 6169   4.539   1.835  15.826
   15ARHM   H62 6170   4.518   1.897  15.659
   15ARHM   H63 6171   4.558   2.012  15.790
   16BMANN   C1 6172   4.201   2.307  15.996
   16BMANN   H1 6173   4.244   2.244  16.078
   16BMANN   C5 6174   4.046   2.400  16.150
   16BMANN   H5 6175   4.089   2.335  16.230
   16BMANN   O5 6176   4.064   2.336  16.022
   16BMANN   C2 6177   4.281   2.436  15.989
   16BMANN   H2 6178   4.388   2.406  15.981
   16BMANN    N 6179   4.245   2.517  15.872
   16BMANN   HN 6180   4.152   2.552  15.870
   16BMANN    C 6181   4.330   2.547  15.773
   16BMANN    O 6182   4.445   2.506  15.769
   16BMANN   CT 6183   4.275   2.634  15.663
   16BMANN  HT1 6184   4.342   2.720  15.647
   16BMANN  HT2 6185   4.173   2.670  15.688
   16BMANN  HT3 6186   4.271   2.574  15.569
   16BMANN   C3 6187   4.266   2.509  16.121
   16BMANN   H3 6188   4.306   2.444  16.201
   16BMANN   O3 6189   4.342   2.629  16.121
   16BMANN  HO3 6190   4.395   2.635  16.201
   16BMANN   C4 6191   4.119   2.534  16.151
   16BMANN   H4 6192   4.075   2.598  16.071
   16BMANN   O4 6193   4.100   2.599  16.276
   16BMANN  HO4 6194   4.114   2.694  16.262
   16BMANN   C6 6195   3.896   2.409  16.174
   16BMANN  H61 6196   3.876   2.457  16.272
   16BMANN  H62 6197   3.849   2.471  16.095
   16BMANN   O6 6198   3.837   2.278  16.172
   16BMANN  HO6 6199   3.868   2.235  16.092
   17BGLCN   C1 6200   4.067   1.941  16.147
   17BGLCN   H1 6201   4.119   1.845  16.126
   17BGLCN   C5 6202   3.865   1.828  16.207
   17BGLCN   H5 6203   3.915   1.730  16.188
   17BGLCN   O5 6204   3.926   1.929  16.125
   17BGLCN   C2 6205   4.089   1.983  16.291
   17BGLCN   H2 6206   4.026   2.073  16.307
   17BGLCN    N 6207   4.227   2.023  16.314
   17BGLCN   HN 6208   4.295   1.982  16.254
   17BGLCN    C 6209   4.263   2.118  16.402
   17BGLCN    O 6210   4.182   2.181  16.469
   17BGLCN   CT 6211   4.411   2.146  16.414
   17BGLCN  HT1 6212   4.440   2.226  16.343
   17BGLCN  HT2 6213   4.470   2.054  16.392
   17BGLCN  HT3 6214   4.433   2.180  16.517
   17BGLCN   C3 6215   4.035   1.872  16.380
   17BGLCN   H3 6216   4.080   1.777  16.343
   17BGLCN   O3 6217   4.076   1.888  16.518
   17BGLCN   C4 6218   3.886   1.864  16.354
   17BGLCN   H4 6219   3.842   1.964  16.372
   17BGLCN   O4 6220   3.817   1.773  16.439
   17BGLCN  HO4 6221   3.747   1.822  16.483
   17BGLCN   C6 6222   3.720   1.813  16.166
   17BGLCN  H61 6223   3.668   1.743  16.234
   17BGLCN  H62 6224   3.668   1.911  16.173
   17BGLCN   O6 6225   3.708   1.762  16.033
   17BGLCN  HO6 6226   3.714   1.834  15.969
   18AGAL    C1 6227   4.095   1.767  16.591
   18AGAL    H1 6228   3.997   1.715  16.604
   18AGAL    C5 6229   4.317   1.735  16.509
   18AGAL    H5 6230   4.304   1.831  16.456
   18AGAL    O5 6231   4.186   1.677  16.525
   18AGAL    C2 6232   4.152   1.796  16.729
   18AGAL    H2 6233   4.169   1.696  16.774
   18AGAL    O2 6234   4.058   1.866  16.813
   18AGAL    C3 6235   4.287   1.866  16.715
   18AGAL    H3 6236   4.272   1.957  16.654
   18AGAL    O3 6237   4.342   1.907  16.840
   18AGAL   HO3 6238   4.399   1.984  16.828
   18AGAL    C4 6239   4.382   1.771  16.643
   18AGAL    H4 6240   4.476   1.825  16.621
   18AGAL    O4 6241   4.416   1.659  16.724
   18AGAL   HO4 6242   4.445   1.695  16.808
   18AGAL    C6 6243   4.401   1.651  16.412
   18AGAL   H61 6244   4.349   1.648  16.315
   18AGAL   H62 6245   4.499   1.700  16.396
   18AGAL    O6 6246   4.423   1.517  16.454
   18AGAL   HO6 6247   4.501   1.516  16.510
   19ARHM    C1 6248   4.063   1.823  16.947
   19ARHM    H1 6249   4.167   1.800  16.975
   19ARHM    C5 6250   3.846   1.722  16.946
   19ARHM    H5 6251   3.833   1.757  16.841
   19ARHM    O5 6252   3.986   1.704  16.971
   19ARHM    C2 6253   4.012   1.935  17.036
   19ARHM    H2 6254   4.060   2.028  16.999
   19ARHM    O2 6255   4.047   1.920  17.175
   19ARHM    C3 6256   3.864   1.958  17.016
   19ARHM    H3 6257   3.845   1.990  16.911
   19ARHM    O3 6258   3.820   2.062  17.103
   19ARHM   HO3 6259   3.853   2.043  17.191
   19ARHM    C4 6260   3.789   1.828  17.040
   19ARHM    H4 6261   3.810   1.795  17.144
   19ARHM    O4 6262   3.647   1.840  17.025
   19ARHM   HO4 6263   3.627   1.833  16.932
   19ARHM    C6 6264   3.780   1.584  16.959
   19ARHM   H61 6265   3.830   1.512  16.891
   19ARHM   H62 6266   3.789   1.547  17.063
   19ARHM   H63 6267   3.673   1.590  16.932
   20ARHM    C1 6268   4.186   1.935  17.199
   20ARHM    H1 6269   4.232   1.993  17.117
   20ARHM    C5 6270   4.211   1.727  17.314
   20ARHM    H5 6271   4.102   1.710  17.305
   20ARHM    O5 6272   4.255   1.810  17.205
   20ARHM    C2 6273   4.206   2.011  17.329
   20ARHM    H2 6274   4.144   2.103  17.327
   20ARHM    O2 6275   4.343   2.049  17.348
   20ARHM    C3 6276   4.162   1.928  17.447
   20ARHM    H3 6277   4.053   1.905  17.436
   20ARHM    O3 6278   4.183   2.002  17.568
   20ARHM    C4 6279   4.241   1.799  17.445
   20ARHM    H4 6280   4.349   1.824  17.446
   20ARHM    O4 6281   4.218   1.715  17.558
   20ARHM   HO4 6282   4.295   1.659  17.563
   20ARHM    C6 6283   4.282   1.592  17.299
   20ARHM   H61 6284   4.392   1.604  17.310
   20ARHM   H62 6285   4.246   1.520  17.375
   20ARHM   H63 6286   4.261   1.549  17.198
   21BMANN   C1 6287   4.392   2.149  17.262
   21BMANN   H1 6288   4.312   2.190  17.197
   21BMANN   C5 6289   4.557   2.194  17.094
   21BMANN   H5 6290   4.478   2.235  17.028
   21BMANN   O5 6291   4.499   2.095  17.182
   21BMANN   C2 6292   4.448   2.256  17.352
   21BMANN   H2 6293   4.362   2.299  17.407
   21BMANN    N 6294   4.539   2.201  17.451
   21BMANN   HN 6295   4.569   2.108  17.435
   21BMANN    C 6296   4.574   2.263  17.565
   21BMANN    O 6297   4.538   2.377  17.590
   21BMANN   CT 6298   4.658   2.184  17.661
   21BMANN  HT1 6299   4.764   2.216  17.653
   21BMANN  HT2 6300   4.650   2.075  17.641
   21BMANN  HT3 6301   4.623   2.203  17.765
   21BMANN   C3 6302   4.505   2.365  17.263
   21BMANN   H3 6303   4.425   2.398  17.194
   21BMANN   O3 6304   4.545   2.480  17.336
   21BMANN  HO3 6305   4.550   2.458  17.429
   21BMANN   C4 6306   4.616   2.308  17.176
   21BMANN   H4 6307   4.697   2.267  17.241
   21BMANN   O4 6308   4.674   2.406  17.092
   21BMANN  HO4 6309   4.729   2.464  17.146
   21BMANN   C6 6310   4.659   2.124  17.005
   21BMANN  H61 6311   4.701   2.196  16.932
   21BMANN  H62 6312   4.743   2.086  17.067
   21BMANN   O6 6313   4.600   2.016  16.933
   21BMANN  HO6 6314   4.563   1.954  16.996
   22BGLCN   C1 6315   4.082   1.992  17.665
   22BGLCN   H1 6316   4.031   1.894  17.661
   22BGLCN   C5 6317   3.895   2.110  17.759
   22BGLCN   H5 6318   3.838   2.015  17.766
   22BGLCN   O5 6319   3.990   2.101  17.651
   22BGLCN   C2 6320   4.159   2.008  17.795
   22BGLCN   H2 6321   4.209   2.107  17.791
   22BGLCN    N 6322   4.263   1.907  17.807
   22BGLCN   HN 6323   4.250   1.822  17.757
   22BGLCN    C 6324   4.381   1.928  17.869
   22BGLCN    O 6325   4.412   2.034  17.922
   22BGLCN   CT 6326   4.475   1.811  17.869
   22BGLCN  HT1 6327   4.533   1.809  17.774
   22BGLCN  HT2 6328   4.419   1.715  17.880
   22BGLCN  HT3 6329   4.546   1.821  17.954
   22BGLCN   C3 6330   4.061   2.010  17.912
   22BGLCN   H3 6331   4.000   1.917  17.908
   22BGLCN   O3 6332   4.137   2.009  18.034
   22BGLCN   C4 6333   3.971   2.130  17.890
   22BGLCN   H4 6334   4.035   2.220  17.879
   22BGLCN   O4 6335   3.882   2.157  17.999
   22BGLCN  HO4 6336   3.910   2.240  18.038
   22BGLCN   C6 6337   3.797   2.221  17.727
   22BGLCN  H61 6338   3.723   2.230  17.809
   22BGLCN  H62 6339   3.851   2.318  17.719
   22BGLCN   O6 6340   3.727   2.196  17.605
   22BGLCN  HO6 6341   3.790   2.205  17.533
   23AGAL    C1 6342   4.073   1.968  18.153
   23AGAL    H1 6343   3.994   2.041  18.180
   23AGAL    C5 6344   4.108   1.732  18.122
   23AGAL    H5 6345   4.162   1.756  18.029
   23AGAL    O5 6346   4.012   1.838  18.145
   23AGAL    C2 6347   4.176   1.969  18.264
   23AGAL    H2 6348   4.123   1.948  18.360
   23AGAL    O2 6349   4.240   2.098  18.272
   23AGAL    C3 6350   4.280   1.862  18.244
   23AGAL    H3 6351   4.334   1.882  18.149
   23AGAL    O3 6352   4.375   1.863  18.350
   23AGAL   HO3 6353   4.350   1.793  18.410
   23AGAL    C4 6354   4.211   1.728  18.236
   23AGAL    H4 6355   4.286   1.649  18.211
   23AGAL    O4 6356   4.150   1.693  18.360
   23AGAL   HO4 6357   4.076   1.636  18.337
   23AGAL    C6 6358   4.034   1.601  18.096
   23AGAL   H61 6359   3.952   1.620  18.023
   23AGAL   H62 6360   4.104   1.529  18.047
   23AGAL    O6 6361   3.979   1.538  18.213
   23AGAL   HO6 6362   4.033   1.462  18.235
   24ARHM    C1 6363   4.187   2.189  18.363
   24ARHM    H1 6364   4.078   2.171  18.374
   24ARHM    C5 6365   4.337   2.360  18.298
   24ARHM    H5 6366   4.383   2.292  18.223
   24ARHM    O5 6367   4.200   2.324  18.317
   24ARHM    C2 6368   4.257   2.170  18.495
   24ARHM    H2 6369   4.254   2.062  18.522
   24ARHM    O2 6370   4.195   2.246  18.600
   24ARHM    C3 6371   4.403   2.207  18.481
   24ARHM    H3 6372   4.450   2.140  18.407
   24ARHM    O3 6373   4.471   2.187  18.606
   24ARHM   HO3 6374   4.427   2.242  18.672
   24ARHM    C4 6375   4.412   2.350  18.430
   24ARHM    H4 6376   4.362   2.417  18.503
   24ARHM    O4 6377   4.548   2.393  18.416
   24ARHM   HO4 6378   4.555   2.483  18.450
   24ARHM    C6 6379   4.335   2.502  18.237
   24ARHM   H61 6380   4.438   2.535  18.213
   24ARHM   H62 6381   4.275   2.501  18.143
   24ARHM   H63 6382   4.288   2.574  18.308
   25ARHM    C1 6383   4.082   2.183  18.656
   25ARHM    H1 6384   4.047   2.103  18.587
   25ARHM    C5 6385   3.995   2.375  18.767
   25ARHM    H5 6386   4.082   2.436  18.733
   25ARHM    O5 6387   3.970   2.271  18.671
   25ARHM    C2 6388   4.122   2.120  18.786
   25ARHM    H2 6389   4.215   2.061  18.772
   25ARHM    O2 6390   4.019   2.035  18.836
   25ARHM    C3 6391   4.151   2.226  18.888
   25ARHM    H3 6392   4.236   2.288  18.853
   25ARHM    O3 6393   4.187   2.158  19.008
   25ARHM    C4 6394   4.028   2.314  18.904
   25ARHM    H4 6395   3.942   2.250  18.935
   25ARHM    O4 6396   4.045   2.414  19.004
   25ARHM   HO4 6397   3.974   2.479  18.997
   25ARHM    C6 6398   3.870   2.465  18.766
   25ARHM   H61 6399   3.851   2.501  18.663
   25ARHM   H62 6400   3.781   2.408  18.801
   25ARHM   H63 6401   3.885   2.553  18.832
   26BMANN   C1 6402   4.011   1.909  18.773
   26BMANN   H1 6403   4.110   1.877  18.735
   26BMANN   C5 6404   3.897   1.784  18.606
   26BMANN   H5 6405   3.996   1.752  18.565
   26BMANN   O5 6406   3.913   1.912  18.669
   26BMANN   C2 6407   3.962   1.815  18.881
   26BMANN   H2 6408   4.042   1.814  18.958
   26BMANN    N 6409   3.839   1.861  18.945
   26BMANN   HN 6410   3.780   1.921  18.891
   26BMANN    C 6411   3.802   1.826  19.068
   26BMANN    O 6412   3.872   1.753  19.137
   26BMANN   CT 6413   3.670   1.878  19.118
   26BMANN  HT1 6414   3.604   1.902  19.033
   26BMANN  HT2 6415   3.687   1.970  19.179
   26BMANN  HT3 6416   3.622   1.800  19.181
   26BMANN   C3 6417   3.952   1.676  18.821
   26BMANN   H3 6418   4.052   1.648  18.779
   26BMANN   O3 6419   3.921   1.578  18.921
   26BMANN  HO3 6420   3.902   1.624  19.003
   26BMANN   C4 6421   3.852   1.679  18.707
   26BMANN   H4 6422   3.752   1.706  18.746
   26BMANN   O4 6423   3.842   1.552  18.643
   26BMANN  HO4 6424   3.792   1.492  18.700
   26BMANN   C6 6425   3.802   1.801  18.489
   26BMANN  H61 6426   3.843   1.875  18.418
   26BMANN  H62 6427   3.792   1.705  18.434
   26BMANN   O6 6428   3.672   1.845  18.532
   26BMANN  HO6 6429   3.607   1.782  18.502
   27BGLCN   C1 6430   4.288   2.217  19.084
   27BGLCN   H1 6431   4.286   2.328  19.074
   27BGLCN   C5 6432   4.522   2.214  19.132
   27BGLCN   H5 6433   4.526   2.325  19.125
   27BGLCN   O5 6434   4.416   2.163  19.049
   27BGLCN   C2 6435   4.253   2.175  19.225
   27BGLCN   H2 6436   4.259   2.064  19.227
   27BGLCN    N 6437   4.116   2.212  19.254
   27BGLCN   HN 6438   4.077   2.283  19.195
   27BGLCN    C 6439   4.034   2.143  19.335
   27BGLCN    O 6440   4.071   2.049  19.403
   27BGLCN   CT 6441   3.891   2.187  19.337
   27BGLCN  HT1 6442   3.872   2.266  19.261
   27BGLCN  HT2 6443   3.867   2.227  19.438
   27BGLCN  HT3 6444   3.826   2.099  19.316
   27BGLCN   C3 6445   4.357   2.229  19.321
   27BGLCN   H3 6446   4.358   2.339  19.311
   27BGLCN   O3 6447   4.318   2.192  19.455
   27BGLCN   C4 6448   4.492   2.174  19.277
   27BGLCN   H4 6449   4.485   2.064  19.278
   27BGLCN   O4 6450   4.598   2.210  19.365
   27BGLCN  HO4 6451   4.607   2.306  19.368
   27BGLCN   C6 6452   4.655   2.157  19.083
   27BGLCN  H61 6453   4.736   2.187  19.153
   27BGLCN  H62 6454   4.650   2.046  19.082
   27BGLCN   O6 6455   4.692   2.204  18.952
   27BGLCN  HO6 6456   4.787   2.217  18.951
   28AGAL    C1 6457   4.371   2.266   0.091
   28AGAL    H1 6458   4.477   2.236   0.107
   28AGAL    C5 6459   4.233   2.460   0.059
   28AGAL    H5 6460   4.181   2.409  19.448
   28AGAL    O5 6461   4.368   2.408   0.067
   28AGAL    C2 6462   4.296   2.238   0.220
   28AGAL    H2 6463   4.347   2.303   0.294
   28AGAL    O2 6464   4.304   2.101   0.267
   28AGAL    C3 6465   4.152   2.283   0.208
   28AGAL    H3 6466   4.109   2.235   0.117
   28AGAL    O3 6467   4.070   2.242   0.317
   28AGAL   HO3 6468   4.035   2.155   0.297
   28AGAL    C4 6469   4.151   2.433   0.186
   28AGAL    H4 6470   4.047   2.467   0.169
   28AGAL    O4 6471   4.203   2.506   0.297
   28AGAL   HO4 6472   4.254   2.580   0.263
   28AGAL    C6 6473   4.240   2.608   0.023
   28AGAL   H61 6474   4.280   2.618  19.392
   28AGAL   H62 6475   4.137   2.650   0.023
   28AGAL    O6 6476   4.322   2.684   0.112
   28AGAL   HO6 6477   4.414   2.673   0.087
   29ARHM    C1 6478   4.337   2.094   0.404
   29ARHM    H1 6479   4.310   2.189   0.455
   29ARHM    C5 6480   4.517   1.943   0.363
   29ARHM    H5 6481   4.495   1.945   0.254
   29ARHM    O5 6482   4.477   2.068   0.422
   29ARHM    C2 6483   4.258   1.984   0.474
   29ARHM    H2 6484   4.150   2.003   0.457
   29ARHM    O2 6485   4.286   1.983   0.616
   29ARHM    C3 6486   4.293   1.851   0.413
   29ARHM    H3 6487   4.267   1.853   0.305
   29ARHM    O3 6488   4.216   1.747   0.473
   29ARHM   HO3 6489   4.264   1.717   0.551
   29ARHM    C4 6490   4.442   1.827   0.427
   29ARHM    H4 6491   4.469   1.826   0.535
   29ARHM    O4 6492   4.482   1.702   0.372
   29ARHM   HO4 6493   4.456   1.696   0.280
   29ARHM    C6 6494   4.670   1.935   0.381
   29ARHM   H61 6495   4.719   2.021   0.333
   29ARHM   H62 6496   4.695   1.935   0.490
   29ARHM   H63 6497   4.709   1.841   0.337
   30ARHM    C1 6498   4.188   2.045   0.696
   30ARHM    H1 6499   4.089   2.002   0.671
   30ARHM    C5 6500   4.307   2.254   0.710
   30ARHM    H5 6501   4.390   2.213   0.649
   30ARHM    O5 6502   4.184   2.187   0.676
   30ARHM    C2 6503   4.218   2.017   0.842
   30ARHM    H2 6504   4.229   1.907   0.856
   30ARHM    O2 6505   4.112   2.067   0.925
   30ARHM    C3 6506   4.349   2.083   0.883
   30ARHM    H3 6507   4.428   2.042   0.817
   30ARHM    O3 6508   4.386   2.045   1.017
   30ARHM    C4 6509   4.340   2.232   0.857
   30ARHM    H4 6510   4.259   2.277   0.917
   30ARHM    O4 6511   4.461   2.299   0.890
   30ARHM   HO4 6512   4.534   2.268   0.835
   30ARHM    C6 6513   4.287   2.402   0.672
   30ARHM   H61 6514   4.380   2.460   0.691
   30ARHM   H62 6515   4.262   2.411   0.564
   30ARHM   H63 6516   4.205   2.447   0.732
   31BMANN   C1 6517   4.003   1.983   0.949
   31BMANN   H1 6518   4.035   1.878   0.966
   31BMANN   C5 6519   3.787   1.913   0.870
   31BMANN   H5 6520   3.817   1.808   0.887
   31BMANN   O5 6521   3.906   1.992   0.844
   31BMANN   C2 6522   3.939   2.043   1.073
   31BMANN   H2 6523   4.012   2.034   1.156
   31BMANN    N 6524   3.912   2.185   1.055
   31BMANN   HN 6525   3.921   2.218   0.962
   31BMANN    C 6526   3.885   2.272   1.153
   31BMANN    O 6527   3.876   2.236   1.270
   31BMANN   CT 6528   3.865   2.416   1.113
   31BMANN  HT1 6529   3.778   2.425   1.046
   31BMANN  HT2 6530   3.956   2.454   1.062
   31BMANN  HT3 6531   3.847   2.477   1.204
   31BMANN   C3 6532   3.818   1.958   1.109
   31BMANN   H3 6533   3.851   1.853   1.118
   31BMANN   O3 6534   3.764   1.992   1.237
   31BMANN  HO3 6535   3.789   2.082   1.258
   31BMANN   C4 6536   3.717   1.964   0.996
   31BMANN   H4 6537   3.684   2.069   0.980
   31BMANN   O4 6538   3.603   1.885   1.026
   31BMANN  HO4 6539   3.569   1.916   1.110
   31BMANN   C6 6540   3.698   1.916   0.747
   31BMANN  H61 6541   3.602   1.864   0.769
   31BMANN  H62 6542   3.674   2.022   0.722
   31BMANN   O6 6543   3.760   1.853   0.634
   31BMANN  HO6 6544   3.772   1.760   0.654
   32BGLCN   C1 6545   4.333   2.120   1.125
   32BGLCN   H1 6546   4.231   2.157   1.100
   32BGLCN   C5 6547   4.357   2.311   1.265
   32BGLCN   H5 6548   4.258   2.348   1.230
   32BGLCN   O5 6549   4.416   2.232   1.161
   32BGLCN   C2 6550   4.324   2.028   1.246
   32BGLCN   H2 6551   4.428   2.010   1.279
   32BGLCN    N 6552   4.266   1.899   1.210
   32BGLCN   HN 6553   4.196   1.901   1.138
   32BGLCN    C 6554   4.314   1.781   1.251
   32BGLCN    O 6555   4.402   1.770   1.335
   32BGLCN   CT 6556   4.251   1.659   1.190
   32BGLCN  HT1 6557   4.198   1.685   1.096
   32BGLCN  HT2 6558   4.182   1.611   1.262
   32BGLCN  HT3 6559   4.332   1.587   1.166
   32BGLCN   C3 6560   4.253   2.104   1.357
   32BGLCN   H3 6561   4.155   2.139   1.317
   32BGLCN   O3 6562   4.230   2.026   1.475
   32BGLCN   C4 6563   4.338   2.225   1.388
   32BGLCN   H4 6564   4.438   2.188   1.420
   32BGLCN   O4 6565   4.285   2.303   1.494
   32BGLCN  HO4 6566   4.352   2.310   1.562
   32BGLCN   C6 6567   4.442   2.435   1.294
   32BGLCN  H61 6568   4.383   2.508   1.352
   32BGLCN  H62 6569   4.529   2.406   1.356
   32BGLCN   O6 6570   4.494   2.499   1.176
   32BGLCN  HO6 6571   4.428   2.501   1.105
   33AGAL    C1 6572   4.102   2.047   1.532
   33AGAL    H1 6573   4.070   2.153   1.519
   33AGAL    C5 6574   4.039   1.821   1.486
   33AGAL    H5 6575   4.142   1.805   1.450
   33AGAL    O5 6576   4.006   1.961   1.469
   33AGAL    C2 6577   4.102   2.016   1.681
   33AGAL    H2 6578   3.997   2.031   1.716
   33AGAL    O2 6579   4.186   2.110   1.752
   33AGAL    C3 6580   4.140   1.871   1.705
   33AGAL    H3 6581   4.241   1.855   1.662
   33AGAL    O3 6582   4.147   1.837   1.843
   33AGAL   HO3 6583   4.057   1.827   1.875
   33AGAL    C4 6584   4.040   1.782   1.633
   33AGAL    H4 6585   4.076   1.677   1.641
   33AGAL    O4 6586   3.910   1.788   1.691
   33AGAL   HO4 6587   3.846   1.795   1.619
   33AGAL    C6 6588   3.947   1.737   1.400
   33AGAL   H61 6589   3.969   1.758   1.293
   33AGAL   H62 6590   3.969   1.629   1.418
   33AGAL    O6 6591   3.808   1.760   1.424
   33AGAL   HO6 6592   3.784   1.846   1.388
   34ARHM    C1 6593   4.133   2.155   1.874
   34ARHM    H1 6594   4.095   2.068   1.932
   34ARHM    C5 6595   4.064   2.364   1.780
   34ARHM    H5 6596   4.099   2.334   1.680
   34ARHM    O5 6597   4.025   2.248   1.855
   34ARHM    C2 6598   4.244   2.224   1.952
   34ARHM    H2 6599   4.329   2.153   1.960
   34ARHM    O2 6600   4.205   2.263   2.085
   34ARHM    C3 6601   4.292   2.345   1.875
   34ARHM    H3 6602   4.328   2.311   1.775
   34ARHM    O3 6603   4.400   2.414   1.937
   34ARHM   HO3 6604   4.407   2.496   1.887
   34ARHM    C4 6605   4.175   2.439   1.853
   34ARHM    H4 6606   4.137   2.472   1.952
   34ARHM    O4 6607   4.216   2.554   1.779
   34ARHM   HO4 6608   4.164   2.631   1.801
   34ARHM    C6 6609   3.935   2.447   1.763
   34ARHM   H61 6610   3.896   2.478   1.863
   34ARHM   H62 6611   3.955   2.538   1.702
   34ARHM   H63 6612   3.858   2.387   1.712
   35ARHM    C1 6613   4.166   2.159   2.171
   35ARHM    H1 6614   4.227   2.068   2.152
   35ARHM    C5 6615   3.941   2.241   2.178
   35ARHM    H5 6616   3.967   2.321   2.106
   35ARHM    O5 6617   4.026   2.127   2.158
   35ARHM    C2 6618   4.190   2.209   2.313
   35ARHM    H2 6619   4.296   2.241   2.319
   35ARHM    O2 6620   4.165   2.113   2.417
   35ARHM    C3 6621   4.103   2.329   2.341
   35ARHM    H3 6622   4.129   2.411   2.271
   35ARHM    O3 6623   4.127   2.377   2.474
   35ARHM   HO3 6624   4.112   2.303   2.534
   35ARHM    C4 6625   3.958   2.291   2.320
   35ARHM    H4 6626   3.932   2.208   2.390
   35ARHM    O4 6627   3.870   2.401   2.348
   35ARHM   HO4 6628   3.921   2.464   2.398
   35ARHM    C6 6629   3.798   2.193   2.145
   35ARHM   H61 6630   3.794   2.156   2.040
   35ARHM   H62 6631   3.768   2.110   2.213
   35ARHM   H63 6632   3.725   2.276   2.155
   36BMANN   C1 6633   4.254   2.005   2.423
   36BMANN   H1 6634   4.355   2.035   2.387
   36BMANN   C5 6635   4.292   1.779   2.353
   36BMANN   H5 6636   4.391   1.809   2.313
   36BMANN   O5 6637   4.204   1.893   2.348
   36BMANN   C2 6638   4.260   1.963   2.569
   36BMANN   H2 6639   4.303   2.049   2.625
   36BMANN    N 6640   4.128   1.933   2.624
   36BMANN   HN 6641   4.064   1.890   2.560
   36BMANN    C 6642   4.088   1.961   2.749
   36BMANN    O 6643   4.154   2.030   2.827
   36BMANN   CT 6644   3.955   1.905   2.791
   36BMANN  HT1 6645   3.924   1.824   2.722
   36BMANN  HT2 6646   3.878   1.986   2.790
   36BMANN  HT3 6647   3.963   1.864   2.894
   36BMANN   C3 6648   4.359   1.847   2.580
   36BMANN   H3 6649   4.456   1.881   2.539
   36BMANN   O3 6650   4.383   1.809   2.715
   36BMANN  HO3 6651   4.444   1.735   2.711
   36BMANN   C4 6652   4.309   1.731   2.497
   36BMANN   H4 6653   4.211   1.696   2.536
   36BMANN   O4 6654   4.402   1.623   2.501
   36BMANN  HO4 6655   4.360   1.540   2.524
   36BMANN   C6 6656   4.235   1.673   2.260
   36BMANN  H61 6657   4.232   1.714   2.157
   36BMANN  H62 6658   4.301   1.584   2.258
   36BMANN   O6 6659   4.102   1.632   2.294
   36BMANN  HO6 6660   4.098   1.594   2.382
    1ECLIP HB6S 6661   4.425   5.993  11.827
    1ECLIP  OB6 6662   4.373   5.829  11.944
    1ECLIP  CB6 6663   4.461   5.891  11.849
    1ECLIP HB6R 6664   4.563   5.898  11.891
    1ECLIP  CB5 6665   4.473   5.814  11.721
    1ECLIP  OB5 6666   4.342   5.793  11.668
    1ECLIP  HB5 6667   4.519   5.716  11.744
    1ECLIP  CB1 6668   4.346   5.706  11.554
    1ECLIP  HB1 6669   4.388   5.607  11.583
    1ECLIP  OA6 6670   4.222   5.687  11.492
    1ECLIP  CA6 6671   4.118   5.772  11.538
    1ECLIP HA6R 6672   4.157   5.874  11.561
    1ECLIP HA6S 6673   4.073   5.727  11.629
    1ECLIP  CB4 6674   4.559   5.887  11.616
    1ECLIP  HB4 6675   4.506   5.980  11.587
    1ECLIP  OB4 6676   4.686   5.916  11.675
    1ECLIP   PB 6677   4.761   6.061  11.675
    1ECLIP OPB4 6678   4.847   6.082  11.799
    1ECLIP OPB3 6679   4.673   6.183  11.673
    1ECLIP OPB2 6680   4.853   6.083  11.557
    1ECLIP  CB3 6681   4.569   5.796  11.495
    1ECLIP  OB3 6682   4.637   5.863  11.389
    1ECLIP  HB3 6683   4.614   5.699  11.524
    1ECLIP  C71 6684   4.758   5.821  11.358
    1ECLIP  O71 6685   4.818   5.728  11.409
    1ECLIP  C72 6686   4.787   5.862  11.214
    1ECLIP H72R 6687   4.716   5.810  11.148
    1ECLIP H72S 6688   4.890   5.828  11.191
    1ECLIP  CB2 6689   4.428   5.770  11.445
    1ECLIP  HB2 6690   4.381   5.868  11.424
    1ECLIP  NB2 6691   4.423   5.690  11.323
    1ECLIP HNB2 6692   4.415   5.591  11.336
    1ECLIP  CA4 6693   3.978   5.656  11.363
    1ECLIP  HA4 6694   4.072   5.613  11.320
    1ECLIP  OA4 6695   3.924   5.567  11.460
    1ECLIP HOA4 6696   3.985   5.494  11.474
    1ECLIP  CA5 6697   4.014   5.786  11.431
    1ECLIP  HA5 6698   3.922   5.829  11.476
    1ECLIP  OA5 6699   4.068   5.877  11.334
    1ECLIP  CA1 6700   3.974   5.913  11.231
    1ECLIP  HA1 6701   4.028   5.980  11.161
    1ECLIP  OA1 6702   3.860   5.981  11.282
    1ECLIP OPA2 6703   3.941   6.085  11.507
    1ECLIP OPA3 6704   3.944   6.225  11.294
    1ECLIP OPA4 6705   3.737   6.173  11.392
    1ECLIP   PA 6706   3.876   6.116  11.373
    1ECLIP  CA3 6707   3.880   5.683  11.252
    1ECLIP  HA3 6708   3.791   5.730  11.297
    1ECLIP  OA3 6709   3.834   5.560  11.193
    1ECLIP  C31 6710   3.930   5.483  11.138
    1ECLIP  O31 6711   3.957   5.491  11.019
    1ECLIP  C32 6712   3.937   5.349  11.213
    1ECLIP H32R 6713   3.885   5.275  11.149
    1ECLIP H32S 6714   3.881   5.356  11.309
    1ECLIP  CA2 6715   3.939   5.784  11.153
    1ECLIP  HA2 6716   4.034   5.743  11.115
    1ECLIP  NA2 6717   3.854   5.803  11.036
    1ECLIP HNA2 6718   3.769   5.750  11.036
    1ECLIP  C73 6719   4.776   6.014  11.197
    1ECLIP H73R 6720   4.824   6.063  11.284
    1ECLIP  O73 6721   4.637   6.044  11.191
    1ECLIP  C81 6722   4.596   6.164  11.217
    1ECLIP  O81 6723   4.667   6.265  11.217
    1ECLIP  C82 6724   4.448   6.177  11.182
    1ECLIP H82R 6725   4.411   6.273  11.222
    1ECLIP H82S 6726   4.392   6.095  11.232
    1ECLIP  C83 6727   4.427   6.171  11.030
    1ECLIP H83R 6728   4.439   6.065  10.998
    1ECLIP H83S 6729   4.503   6.230  10.974
    1ECLIP  C84 6730   4.288   6.218  10.985
    1ECLIP H84R 6731   4.278   6.328  10.998
    1ECLIP H84S 6732   4.210   6.168  11.047
    1ECLIP  C85 6733   4.265   6.179  10.838
    1ECLIP H85R 6734   4.258   6.068  10.835
    1ECLIP H85S 6735   4.353   6.210  10.777
    1ECLIP  C86 6736   4.137   6.235  10.776
    1ECLIP H86R 6737   4.148   6.345  10.760
    1ECLIP H86S 6738   4.052   6.218  10.846
    1ECLIP  C87 6739   4.102   6.167  10.642
    1ECLIP H87R 6740   4.016   6.219  10.595
    1ECLIP H87S 6741   4.071   6.063  10.664
    1ECLIP  C88 6742   4.220   6.160  10.543
    1ECLIP H88R 6743   4.299   6.097  10.590
    1ECLIP H88S 6744   4.263   6.262  10.528
    1ECLIP  C89 6745   4.186   6.096  10.408
    1ECLIP H89R 6746   4.105   6.020  10.421
    1ECLIP H89S 6747   4.276   6.039  10.376
    1ECLIP C810 6748   4.150   6.196  10.297
    1ECLIPH810R 6749   4.201   6.292  10.316
    1ECLIPH810S 6750   4.041   6.215  10.302
    1ECLIP C811 6751   4.189   6.145  10.158
    1ECLIPH811R 6752   4.140   6.208  10.080
    1ECLIPH811S 6753   4.150   6.042  10.146
    1ECLIP C812 6754   4.341   6.145  10.132
    1ECLIPH812R 6755   4.363   6.086  10.040
    1ECLIPH812S 6756   4.395   6.096  10.215
    1ECLIP C813 6757   4.401   6.285  10.109
    1ECLIPH813R 6758   4.343   6.336  10.030
    1ECLIPH813S 6759   4.391   6.344  10.202
    1ECLIP C814 6760   4.548   6.279  10.067
    1ECLIPH814R 6761   4.560   6.216   9.977
    1ECLIPH814S 6762   4.609   6.234  10.149
    1ECLIPH814T 6763   4.587   6.380  10.046
    1ECLIP  C74 6764   4.847   6.062  11.068
    1ECLIP H74R 6765   4.952   6.024  11.068
    1ECLIP H74S 6766   4.853   6.173  11.072
    1ECLIP  C75 6767   4.780   6.024  10.934
    1ECLIP H75R 6768   4.798   6.107  10.863
    1ECLIP H75S 6769   4.670   6.014  10.947
    1ECLIP  C76 6770   4.835   5.897  10.867
    1ECLIP H76R 6771   4.805   5.807  10.925
    1ECLIP H76S 6772   4.946   5.901  10.866
    1ECLIP  C77 6773   4.784   5.884  10.722
    1ECLIP H77R 6774   4.807   5.978  10.668
    1ECLIP H77S 6775   4.674   5.871  10.723
    1ECLIP  C78 6776   4.849   5.767  10.646
    1ECLIP H78R 6777   4.958   5.783  10.641
    1ECLIP H78S 6778   4.831   5.673  10.703
    1ECLIP  C79 6779   4.794   5.748  10.503
    1ECLIP H79R 6780   4.687   5.720  10.508
    1ECLIP H79S 6781   4.849   5.664  10.456
    1ECLIP C710 6782   4.809   5.871  10.411
    1ECLIPH710R 6783   4.743   5.953  10.447
    1ECLIPH710S 6784   4.914   5.906  10.416
    1ECLIP C711 6785   4.774   5.838  10.265
    1ECLIPH711R 6786   4.837   5.752  10.234
    1ECLIPH711S 6787   4.668   5.806  10.259
    1ECLIP C712 6788   4.798   5.956  10.170
    1ECLIPH712R 6789   4.903   5.990  10.182
    1ECLIPH712S 6790   4.732   6.040  10.202
    1ECLIP C713 6791   4.772   5.924  10.022
    1ECLIPH713R 6792   4.665   5.896  10.010
    1ECLIPH713S 6793   4.789   6.017   9.964
    1ECLIP C714 6794   4.861   5.812   9.966
    1ECLIPH714R 6795   4.968   5.832   9.989
    1ECLIPH714S 6796   4.833   5.715  10.011
    1ECLIPH714T 6797   4.849   5.803   9.856
    1ECLIP  C51 6798   4.403   5.741  11.201
    1ECLIP  O51 6799   4.407   5.861  11.179
    1ECLIP  C52 6800   4.371   5.641  11.094
    1ECLIP H52R 6801   4.461   5.581  11.073
    1ECLIP H52S 6802   4.293   5.574  11.137
    1ECLIP  C53 6803   4.317   5.703  10.964
    1ECLIP H53R 6804   4.232   5.770  10.985
    1ECLIP  O53 6805   4.278   5.588  10.890
    1ECLIP  C61 6806   4.162   5.589  10.825
    1ECLIP  O61 6807   4.102   5.690  10.792
    1ECLIP  C62 6808   4.157   5.455  10.749
    1ECLIP H62R 6809   4.150   5.373  10.823
    1ECLIP H62S 6810   4.255   5.450  10.698
    1ECLIP  C63 6811   4.041   5.441  10.648
    1ECLIP H63R 6812   4.024   5.538  10.598
    1ECLIP H63S 6813   3.948   5.413  10.702
    1ECLIP  C64 6814   4.069   5.340  10.535
    1ECLIP H64R 6815   3.980   5.336  10.469
    1ECLIP H64S 6816   4.085   5.238  10.577
    1ECLIP  C65 6817   4.191   5.384  10.454
    1ECLIP H65R 6818   4.280   5.372  10.520
    1ECLIP H65S 6819   4.180   5.492  10.429
    1ECLIP  C66 6820   4.222   5.306  10.326
    1ECLIP H66R 6821   4.258   5.205  10.354
    1ECLIP H66S 6822   4.306   5.357  10.274
    1ECLIP  C67 6823   4.105   5.294  10.229
    1ECLIP H67R 6824   4.027   5.229  10.274
    1ECLIP H67S 6825   4.146   5.242  10.140
    1ECLIP  C68 6826   4.042   5.426  10.185
    1ECLIP H68R 6827   4.124   5.496  10.158
    1ECLIP H68S 6828   3.985   5.471  10.268
    1ECLIP  C69 6829   3.953   5.404  10.062
    1ECLIP H69R 6830   3.853   5.366  10.092
    1ECLIP H69S 6831   4.000   5.325  10.001
    1ECLIP C610 6832   3.940   5.527   9.972
    1ECLIPH610R 6833   4.034   5.587   9.975
    1ECLIPH610S 6834   3.858   5.591  10.011
    1ECLIP C611 6835   3.911   5.491   9.825
    1ECLIPH611R 6836   3.827   5.419   9.824
    1ECLIPH611S 6837   3.878   5.585   9.775
    1ECLIP C612 6838   4.029   5.435   9.745
    1ECLIPH612R 6839   4.113   5.507   9.744
    1ECLIPH612S 6840   4.064   5.339   9.789
    1ECLIPH612T 6841   3.999   5.415   9.640
    1ECLIP  C54 6842   4.428   5.779  10.887
    1ECLIP H54R 6843   4.514   5.711  10.869
    1ECLIP H54S 6844   4.465   5.861  10.951
    1ECLIP  C55 6845   4.384   5.842  10.754
    1ECLIP H55R 6846   4.439   5.937  10.739
    1ECLIP H55S 6847   4.276   5.867  10.758
    1ECLIP  C56 6848   4.412   5.751  10.634
    1ECLIP H56R 6849   4.358   5.655  10.647
    1ECLIP H56S 6850   4.521   5.728  10.634
    1ECLIP  C57 6851   4.373   5.814  10.501
    1ECLIP H57R 6852   4.429   5.909  10.486
    1ECLIP H57S 6853   4.264   5.838  10.503
    1ECLIP  C58 6854   4.402   5.718  10.386
    1ECLIP H58R 6855   4.510   5.694  10.384
    1ECLIP H58S 6856   4.348   5.623  10.407
    1ECLIP  C59 6857   4.359   5.768  10.248
    1ECLIP H59R 6858   4.416   5.860  10.222
    1ECLIP H59S 6859   4.251   5.793  10.250
    1ECLIP C510 6860   4.386   5.658  10.145
    1ECLIPH510R 6861   4.338   5.566  10.183
    1ECLIPH510S 6862   4.495   5.640  10.138
    1ECLIP C511 6863   4.330   5.689  10.006
    1ECLIPH511R 6864   4.220   5.704  10.014
    1ECLIPH511S 6865   4.375   5.785   9.971
    1ECLIP C512 6866   4.361   5.581   9.902
    1ECLIPH512R 6867   4.308   5.610   9.809
    1ECLIPH512S 6868   4.470   5.580   9.882
    1ECLIP C513 6869   4.316   5.439   9.940
    1ECLIPH513R 6870   4.206   5.440   9.954
    1ECLIPH513S 6871   4.360   5.409  10.038
    1ECLIP C514 6872   4.352   5.331   9.837
    1ECLIPH514R 6873   4.461   5.310   9.840
    1ECLIPH514S 6874   4.299   5.236   9.860
    1ECLIPH514T 6875   4.324   5.363   9.734
    1ECLIP  C33 6876   4.082   5.300  11.240
    1ECLIP H33R 6877   4.079   5.194  11.273
    1ECLIP  O33 6878   4.136   5.374  11.348
    1ECLIP HO33 6879   4.133   5.324  11.430
    1ECLIP  C34 6880   4.172   5.314  11.115
    1ECLIP H34R 6881   4.171   5.419  11.080
    1ECLIP H34S 6882   4.127   5.252  11.035
    1ECLIP  C35 6883   4.322   5.277  11.123
    1ECLIP H35R 6884   4.340   5.178  11.169
    1ECLIP H35S 6885   4.373   5.352  11.187
    1ECLIP  C36 6886   4.379   5.281  10.980
    1ECLIP H36R 6887   4.330   5.367  10.930
    1ECLIP H36S 6888   4.350   5.190  10.924
    1ECLIP  C37 6889   4.529   5.307  10.967
    1ECLIP H37R 6890   4.580   5.209  10.957
    1ECLIP H37S 6891   4.566   5.356  11.060
    1ECLIP  C38 6892   4.565   5.397  10.847
    1ECLIP H38R 6893   4.510   5.493  10.856
    1ECLIP H38S 6894   4.674   5.422  10.852
    1ECLIP  C39 6895   4.537   5.336  10.709
    1ECLIP H39R 6896   4.427   5.330  10.694
    1ECLIP H39S 6897   4.575   5.232  10.706
    1ECLIP C310 6898   4.602   5.418  10.597
    1ECLIPH310R 6899   4.712   5.405  10.603
    1ECLIPH310S 6900   4.581   5.526  10.613
    1ECLIP C311 6901   4.553   5.378  10.457
    1ECLIPH311R 6902   4.539   5.268  10.454
    1ECLIPH311S 6903   4.455   5.426  10.439
    1ECLIP C312 6904   4.647   5.421  10.345
    1ECLIPH312R 6905   4.655   5.531  10.342
    1ECLIPH312S 6906   4.747   5.379  10.369
    1ECLIP C313 6907   4.600   5.369  10.208
    1ECLIPH313R 6908   4.590   5.259  10.212
    1ECLIPH313S 6909   4.498   5.410  10.191
    1ECLIP C314 6910   4.689   5.409  10.090
    1ECLIPH314R 6911   4.787   5.358  10.097
    1ECLIPH314S 6912   4.641   5.380   9.994
    1ECLIPH314T 6913   4.706   5.519  10.090
    1ECLIP  C11 6914   3.884   5.881  10.930
    1ECLIP  O11 6915   3.990   5.942  10.921
    1ECLIP  C12 6916   3.777   5.896  10.823
    1ECLIP H12R 6917   3.745   6.003  10.828
    1ECLIP H12S 6918   3.689   5.833  10.847
    1ECLIP  C13 6919   3.826   5.865  10.680
    1ECLIP H13R 6920   3.933   5.894  10.669
    1ECLIP  O13 6921   3.750   5.943  10.590
    1ECLIP HO13 6922   3.772   5.926  10.498
    1ECLIP  C14 6923   3.808   5.718  10.637
    1ECLIP H14R 6924   3.707   5.685  10.671
    1ECLIP H14S 6925   3.882   5.657  10.694
    1ECLIP  C15 6926   3.816   5.689  10.485
    1ECLIP H15R 6927   3.725   5.732  10.438
    1ECLIP H15S 6928   3.809   5.579  10.470
    1ECLIP  C16 6929   3.940   5.741  10.410
    1ECLIP H16R 6930   4.024   5.670  10.428
    1ECLIP H16S 6931   3.972   5.840  10.448
    1ECLIP  C17 6932   3.917   5.752  10.257
    1ECLIP H17R 6933   3.860   5.662  10.225
    1ECLIP H17S 6934   4.014   5.752  10.204
    1ECLIP  C18 6935   3.839   5.879  10.218
    1ECLIP H18R 6936   3.754   5.890  10.289
    1ECLIP H18S 6937   3.904   5.968  10.229
    1ECLIP  C19 6938   3.778   5.875  10.076
    1ECLIP H19R 6939   3.705   5.959  10.068
    1ECLIP H19S 6940   3.721   5.781  10.064
    1ECLIP C110 6941   3.879   5.890   9.961
    1ECLIPH110R 6942   3.938   5.983   9.975
    1ECLIPH110S 6943   3.950   5.805   9.965
    1ECLIP C111 6944   3.810   5.893   9.823
    1ECLIPH111R 6945   3.738   5.808   9.819
    1ECLIPH111S 6946   3.751   5.987   9.813
    1ECLIP C112 6947   3.909   5.880   9.707
    1ECLIPH112R 6948   3.974   5.970   9.705
    1ECLIPH112S 6949   3.973   5.791   9.727
    1ECLIP C113 6950   3.846   5.864   9.568
    1ECLIPH113R 6951   3.768   5.785   9.573
    1ECLIPH113S 6952   3.795   5.958   9.540
    1ECLIP C114 6953   3.950   5.825   9.462
    1ECLIPH114R 6954   4.019   5.910   9.442
    1ECLIPH114S 6955   4.010   5.739   9.497
    1ECLIPH114T 6956   3.900   5.796   9.367
    2AKDO    C1 6957   4.534   5.655  12.005
    2AKDO   O11 6958   4.658   5.682  12.007
    2AKDO   O12 6959   4.479   5.544  11.985
    2AKDO    C2 6960   4.439   5.768  12.054
    2AKDO    C6 6961   4.456   5.979  12.168
    2AKDO    H6 6962   4.404   6.024  12.081
    2AKDO    O6 6963   4.521   5.860  12.127
    2AKDO    C3 6964   4.327   5.728  12.150
    2AKDO   H31 6965   4.370   5.680  12.240
    2AKDO   H32 6966   4.260   5.656  12.100
    2AKDO    C4 6967   4.252   5.847  12.198
    2AKDO    H4 6968   4.212   5.901  12.109
    2AKDO    O4 6969   4.144   5.805  12.281
    2AKDO    C5 6970   4.345   5.946  12.270
    2AKDO    H5 6971   4.283   6.038  12.284
    2AKDO    O5 6972   4.386   5.897  12.401
    2AKDO    C7 6973   4.580   6.065  12.194
    2AKDO    H7 6974   4.636   6.017  12.277
    2AKDO    O7 6975   4.549   6.200  12.230
    2AKDO   HO7 6976   4.456   6.202  12.251
    2AKDO    C8 6977   4.664   6.063  12.063
    2AKDO   H81 6978   4.688   5.959  12.034
    2AKDO   H82 6979   4.604   6.107  11.981
    2AKDO    O8 6980   4.794   6.124  12.061
    2AKDO   HO8 6981   4.818   6.108  11.969
    3AKDO    C1 6982   3.968   5.854  12.110
    3AKDO   O11 6983   3.925   5.800  12.005
    3AKDO   O12 6984   3.981   5.979  12.129
    3AKDO    C2 6985   4.022   5.760  12.223
    3AKDO    C6 6986   4.062   5.525  12.282
    3AKDO    H6 6987   4.167   5.549  12.310
    3AKDO    O6 6988   4.019   5.620  12.180
    3AKDO    C3 6989   3.935   5.771  12.348
    3AKDO   H31 6990   3.830   5.747  12.319
    3AKDO   H32 6991   3.935   5.877  12.383
    3AKDO    C4 6992   3.980   5.681  12.458
    3AKDO    H4 6993   4.086   5.702  12.485
    3AKDO    O4 6994   3.902   5.706  12.575
    3AKDO   HO4 6995   3.960   5.748  12.639
    3AKDO    C5 6996   3.974   5.537  12.408
    3AKDO    H5 6997   4.017   5.472  12.487
    3AKDO    O5 6998   3.840   5.493  12.387
    3AKDO   HO5 6999   3.807   5.531  12.305
    3AKDO    C7 7000   4.062   5.379  12.230
    3AKDO    H7 7001   3.957   5.346  12.211
    3AKDO    O7 7002   4.121   5.294  12.328
    3AKDO   HO7 7003   4.149   5.221  12.273
    3AKDO    C8 7004   4.141   5.360  12.100
    3AKDO   H81 7005   4.092   5.417  12.018
    3AKDO   H82 7006   4.244   5.400  12.113
    3AKDO    O8 7007   4.148   5.221  12.062
    3AKDO   HO8 7008   4.105   5.203  11.978
    4AHEP    C1 7009   4.428   5.995  12.494
    4AHEP    H1 7010   4.528   6.029  12.459
    4AHEP    C5 7011   4.218   6.090  12.556
    4AHEP    H5 7012   4.172   6.001  12.507
    4AHEP    O5 7013   4.347   6.113  12.495
    4AHEP    C2 7014   4.451   5.950  12.639
    4AHEP    H2 7015   4.502   5.852  12.632
    4AHEP    O2 7016   4.537   6.037  12.712
    4AHEP   HO2 7017   4.492   6.045  12.797
    4AHEP    C3 7018   4.322   5.927  12.716
    4AHEP    H3 7019   4.267   5.839  12.677
    4AHEP    O3 7020   4.358   5.911  12.857
    4AHEP    C4 7021   4.238   6.054  12.706
    4AHEP    H4 7022   4.294   6.137  12.755
    4AHEP    O4 7023   4.114   6.030  12.775
    4AHEP    P4 7024   4.021   6.147  12.847
    4AHEP  OP42 7025   3.966   6.091  12.976
    4AHEP  OP43 7026   3.910   6.179  12.749
    4AHEP  OP44 7027   4.111   6.268  12.871
    4AHEP    C6 7028   4.128   6.209  12.523
    4AHEP    H6 7029   4.023   6.180  12.544
    4AHEP    O6 7030   4.164   6.322  12.604
    4AHEP   HO6 7031   4.126   6.302  12.690
    4AHEP    C7 7032   4.129   6.250  12.375
    4AHEP   H71 7033   4.053   6.329  12.358
    4AHEP   H72 7034   4.100   6.163  12.312
    4AHEP    O7 7035   4.257   6.300  12.332
    4AHEP   HO7 7036   4.310   6.279  12.409
    5AHEP    C1 7037   4.349   5.783  12.918
    5AHEP    H1 7038   4.261   5.728  12.879
    5AHEP    C5 7039   4.589   5.762  12.951
    5AHEP    H5 7040   4.605   5.859  12.899
    5AHEP    O5 7041   4.468   5.703  12.901
    5AHEP    C2 7042   4.335   5.796  13.070
    5AHEP    H2 7043   4.246   5.860  13.088
    5AHEP    O2 7044   4.309   5.669  13.129
    5AHEP   HO2 7045   4.386   5.613  13.116
    5AHEP    C3 7046   4.457   5.864  13.133
    5AHEP    H3 7047   4.466   5.967  13.091
    5AHEP    O3 7048   4.444   5.870  13.276
    5AHEP    C4 7049   4.582   5.783  13.103
    5AHEP    H4 7050   4.582   5.687  13.158
    5AHEP    O4 7051   4.695   5.864  13.135
    5AHEP    P4 7052   4.795   5.869  13.265
    5AHEP  OP42 7053   4.872   6.000  13.247
    5AHEP  OP43 7054   4.891   5.752  13.260
    5AHEP  OP44 7055   4.716   5.876  13.394
    5AHEP    C6 7056   4.698   5.663  12.904
    5AHEP    H6 7057   4.797   5.710  12.921
    5AHEP    O6 7058   4.692   5.542  12.979
    5AHEP   HO6 7059   4.629   5.488  12.931
    5AHEP    C7 7060   4.680   5.627  12.756
    5AHEP   H71 7061   4.781   5.601  12.717
    5AHEP   H72 7062   4.646   5.715  12.697
    5AHEP    O7 7063   4.597   5.512  12.733
    6AHEP    C1 7064   4.479   5.541  12.658
    6AHEP    H1 7065   4.438   5.640  12.685
    6AHEP    C5 7066   4.547   5.419  12.464
    6AHEP    H5 7067   4.640   5.396  12.519
    6AHEP    O5 7068   4.503   5.546  12.517
    6AHEP    C2 7069   4.374   5.437  12.692
    6AHEP    H2 7070   4.366   5.431  12.802
    6AHEP    O2 7071   4.244   5.474  12.643
    6AHEP   HO2 7072   4.204   5.393  12.610
    6AHEP    C3 7073   4.418   5.302  12.641
    6AHEP    H3 7074   4.512   5.273  12.692
    6AHEP    O3 7075   4.320   5.201  12.670
    6AHEP   HO3 7076   4.338   5.127  12.611
    6AHEP    C4 7077   4.444   5.310  12.492
    6AHEP    H4 7078   4.350   5.335  12.439
    6AHEP    O4 7079   4.492   5.183  12.444
    6AHEP   HO4 7080   4.434   5.150  12.375
    6AHEP    C6 7081   4.581   5.428  12.315
    6AHEP    H6 7082   4.611   5.328  12.277
    6AHEP    O6 7083   4.464   5.463  12.242
    6AHEP   HO6 7084   4.485   5.472  12.149
    6AHEP    C7 7085   4.697   5.523  12.285
    6AHEP   H71 7086   4.722   5.515  12.177
    6AHEP   H72 7087   4.786   5.489  12.341
    6AHEP    O7 7088   4.673   5.661  12.317
    6AHEP   HO7 7089   4.597   5.680  12.261
    7AGLC    C1 7090   4.384   5.984  13.333
    7AGLC    H1 7091   4.430   6.076  13.291
    7AGLC    C5 7092   4.175   5.871  13.365
    7AGLC    H5 7093   4.222   5.780  13.322
    7AGLC    O5 7094   4.242   5.987  13.312
    7AGLC    C2 7095   4.404   5.982  13.485
    7AGLC    H2 7096   4.348   6.070  13.525
    7AGLC    O2 7097   4.539   6.005  13.523
    7AGLC   HO2 7098   4.595   5.946  13.471
    7AGLC    C3 7099   4.344   5.857  13.549
    7AGLC    H3 7100   4.389   5.769  13.499
    7AGLC    O3 7101   4.366   5.848  13.692
    7AGLC    C4 7102   4.195   5.863  13.516
    7AGLC    H4 7103   4.155   5.957  13.560
    7AGLC    O4 7104   4.121   5.756  13.572
    7AGLC   HO4 7105   4.125   5.680  13.513
    7AGLC    C6 7106   4.030   5.871  13.318
    7AGLC   H61 7107   4.027   5.907  13.213
    7AGLC   H62 7108   3.992   5.767  13.318
    7AGLC    O6 7109   3.944   5.951  13.400
    7AGLC   HO6 7110   3.875   5.988  13.345
    8AGLC    C1 7111   4.418   5.724  13.737
    8AGLC    H1 7112   4.371   5.639  13.682
    8AGLC    C5 7113   4.636   5.814  13.776
    8AGLC    H5 7114   4.596   5.913  13.743
    8AGLC    O5 7115   4.559   5.712  13.712
    8AGLC    C2 7116   4.401   5.708  13.888
    8AGLC    H2 7117   4.447   5.610  13.914
    8AGLC    O2 7118   4.266   5.704  13.936
    8AGLC    C3 7119   4.475   5.819  13.964
    8AGLC    H3 7120   4.438   5.914  13.920
    8AGLC    O3 7121   4.442   5.826  14.106
    8AGLC    C4 7122   4.621   5.805  13.927
    8AGLC    H4 7123   4.655   5.704  13.957
    8AGLC    O4 7124   4.708   5.900  13.989
    8AGLC   HO4 7125   4.792   5.868  13.953
    8AGLC    C6 7126   4.779   5.806  13.723
    8AGLC   H61 7127   4.780   5.762  13.621
    8AGLC   H62 7128   4.819   5.909  13.713
    8AGLC    O6 7129   4.865   5.731  13.810
    8AGLC   HO6 7130   4.867   5.641  13.777
    9AGAL    C1 7131   4.177   5.618  13.871
    9AGAL    H1 7132   4.185   5.625  13.760
    9AGAL    C5 7133   4.180   5.456  14.045
    9AGAL    H5 7134   4.251   5.522  14.099
    9AGAL    O5 7135   4.197   5.480  13.905
    9AGAL    C2 7136   4.038   5.663  13.909
    9AGAL    H2 7137   3.964   5.605  13.848
    9AGAL    O2 7138   4.039   5.800  13.863
    9AGAL    C3 7139   4.014   5.639  14.057
    9AGAL    H3 7140   4.084   5.702  14.116
    9AGAL    O3 7141   3.880   5.669  14.096
    9AGAL   HO3 7142   3.835   5.585  14.087
    9AGAL    C4 7143   4.039   5.492  14.088
    9AGAL    H4 7144   4.030   5.477  14.197
    9AGAL    O4 7145   3.940   5.410  14.026
    9AGAL   HO4 7146   3.986   5.344  13.973
    9AGAL    C6 7147   4.225   5.313  14.075
    9AGAL   H61 7148   4.326   5.297  14.032
    9AGAL   H62 7149   4.230   5.300  14.185
    9AGAL    O6 7150   4.138   5.213  14.022
    9AGAL   HO6 7151   4.171   5.183  13.937
   10AGAL    C1 7152   3.950   5.897  13.912
   10AGAL    H1 7153   3.847   5.857  13.900
   10AGAL    C5 7154   4.115   5.986  14.061
   10AGAL    H5 7155   4.185   5.908  14.023
   10AGAL    O5 7156   3.980   5.937  14.047
   10AGAL    C2 7157   3.963   6.022  13.826
   10AGAL    H2 7158   3.896   6.098  13.870
   10AGAL    O2 7159   3.916   6.001  13.694
   10AGAL   HO2 7160   3.964   5.932  13.648
   10AGAL    C3 7161   4.106   6.075  13.831
   10AGAL    H3 7162   4.175   5.996  13.796
   10AGAL    O3 7163   4.122   6.189  13.746
   10AGAL   HO3 7164   4.073   6.171  13.665
   10AGAL    C4 7165   4.138   6.110  13.975
   10AGAL    H4 7166   4.246   6.135  13.980
   10AGAL    O4 7167   4.066   6.225  14.022
   10AGAL   HO4 7168   4.048   6.277  13.944
   10AGAL    C6 7169   4.148   6.004  14.208
   10AGAL   H61 7170   4.141   5.906  14.259
   10AGAL   H62 7171   4.253   6.040  14.217
   10AGAL    O6 7172   4.061   6.097  14.273
   10AGAL   HO6 7173   4.041   6.162  14.205
   11BGLC    C1 7174   4.513   5.742  14.195
   11BGLC    H1 7175   4.614   5.784  14.211
   11BGLC    C5 7176   4.599   5.523  14.221
   11BGLC    H5 7177   4.700   5.566  14.241
   11BGLC    O5 7178   4.523   5.612  14.140
   11BGLC    C2 7179   4.439   5.732  14.328
   11BGLC    H2 7180   4.339   5.688  14.307
   11BGLC    O2 7181   4.416   5.861  14.386
   11BGLC   HO2 7182   4.430   5.927  14.317
   11BGLC    C3 7183   4.512   5.639  14.424
   11BGLC    H3 7184   4.613   5.679  14.447
   11BGLC    O3 7185   4.440   5.617  14.547
   11BGLC    C4 7186   4.527   5.504  14.354
   11BGLC    H4 7187   4.425   5.466  14.332
   11BGLC    O4 7188   4.593   5.406  14.433
   11BGLC   HO4 7189   4.547   5.323  14.418
   11BGLC    C6 7190   4.616   5.400  14.135
   11BGLC   H61 7191   4.658   5.317  14.196
   11BGLC   H62 7192   4.519   5.367  14.094
   11BGLC    O6 7193   4.706   5.426  14.027
   11BGLC   HO6 7194   4.705   5.355  13.963
   12BGLCN   C1 7195   4.478   5.687  14.664
   12BGLCN   H1 7196   4.467   5.796  14.649
   12BGLCN   C5 7197   4.649   5.716  14.829
   12BGLCN   H5 7198   4.640   5.827  14.820
   12BGLCN   O5 7199   4.612   5.654  14.705
   12BGLCN   C2 7200   4.381   5.636  14.771
   12BGLCN   H2 7201   4.398   5.527  14.780
   12BGLCN    N 7202   4.244   5.658  14.726
   12BGLCN   HN 7203   4.227   5.743  14.676
   12BGLCN    C 7204   4.145   5.568  14.735
   12BGLCN    O 7205   4.155   5.463  14.796
   12BGLCN   CT 7206   4.016   5.605  14.665
   12BGLCN  HT1 7207   3.932   5.552  14.715
   12BGLCN  HT2 7208   4.020   5.572  14.559
   12BGLCN  HT3 7209   3.999   5.714  14.670
   12BGLCN   C3 7210   4.412   5.699  14.907
   12BGLCN   H3 7211   4.396   5.809  14.900
   12BGLCN   O3 7212   4.328   5.644  15.012
   12BGLCN   C4 7213   4.557   5.667  14.940
   12BGLCN   H4 7214   4.567   5.557  14.947
   12BGLCN   O4 7215   4.597   5.722  15.066
   12BGLCN  HO4 7216   4.576   5.815  15.071
   12BGLCN   C6 7217   4.795   5.681  14.854
   12BGLCN  H61 7218   4.823   5.703  14.959
   12BGLCN  H62 7219   4.811   5.572  14.838
   12BGLCN   O6 7220   4.884   5.755  14.770
   12BGLCN  HO6 7221   4.861   5.739  14.678
   13AGAL    C1 7222   4.289   5.732  15.117
   13AGAL    H1 7223   4.371   5.803  15.141
   13AGAL    C5 7224   4.060   5.721  15.048
   13AGAL    H5 7225   4.095   5.648  14.972
   13AGAL    O5 7226   4.172   5.807  15.080
   13AGAL    C2 7227   4.252   5.655  15.244
   13AGAL    H2 7228   4.214   5.731  15.316
   13AGAL    O2 7229   4.365   5.589  15.304
   13AGAL    C3 7230   4.138   5.558  15.215
   13AGAL    H3 7231   4.170   5.488  15.135
   13AGAL    O3 7232   4.103   5.481  15.330
   13AGAL   HO3 7233   4.132   5.390  15.317
   13AGAL    C4 7234   4.018   5.637  15.169
   13AGAL    H4 7235   3.942   5.564  15.135
   13AGAL    O4 7236   3.962   5.714  15.276
   13AGAL   HO4 7237   3.977   5.663  15.355
   13AGAL    C6 7238   3.949   5.800  14.981
   13AGAL   H61 7239   3.993   5.871  14.908
   13AGAL   H62 7240   3.883   5.731  14.925
   13AGAL    O6 7241   3.869   5.872  15.074
   13AGAL   HO6 7242   3.899   5.847  15.162
   14ARHM    C1 7243   4.409   5.632  15.431
   14ARHM    H1 7244   4.400   5.743  15.437
   14ARHM    C5 7245   4.569   5.460  15.442
   14ARHM    H5 7246   4.534   5.423  15.343
   14ARHM    O5 7247   4.547   5.601  15.451
   14ARHM    C2 7248   4.326   5.569  15.542
   14ARHM    H2 7249   4.219   5.593  15.525
   14ARHM    O2 7250   4.362   5.609  15.675
   14ARHM    C3 7251   4.345   5.419  15.536
   14ARHM    H3 7252   4.315   5.383  15.435
   14ARHM    O3 7253   4.261   5.352  15.631
   14ARHM   HO3 7254   4.252   5.262  15.601
   14ARHM    C4 7255   4.493   5.386  15.552
   14ARHM    H4 7256   4.527   5.423  15.651
   14ARHM    O4 7257   4.518   5.245  15.547
   14ARHM   HO4 7258   4.612   5.231  15.560
   14ARHM    C6 7259   4.722   5.442  15.445
   14ARHM   H61 7260   4.769   5.507  15.367
   14ARHM   H62 7261   4.763   5.470  15.544
   14ARHM   H63 7262   4.749   5.337  15.422
   15ARHM    C1 7263   4.339   5.743  15.710
   15ARHM    H1 7264   4.271   5.792  15.637
   15ARHM    C5 7265   4.556   5.757  15.809
   15ARHM    H5 7266   4.576   5.653  15.776
   15ARHM    O5 7267   4.462   5.818  15.719
   15ARHM    C2 7268   4.274   5.740  15.847
   15ARHM    H2 7269   4.182   5.679  15.842
   15ARHM    O2 7270   4.238   5.877  15.876
   15ARHM    C3 7271   4.368   5.676  15.947
   15ARHM    H3 7272   4.389   5.573  15.912
   15ARHM    O3 7273   4.301   5.667  16.074
   15ARHM    C4 7274   4.498   5.754  15.950
   15ARHM    H4 7275   4.475   5.859  15.980
   15ARHM    O4 7276   4.590   5.703  16.046
   15ARHM   HO4 7277   4.655   5.648  16.003
   15ARHM    C6 7278   4.688   5.834  15.796
   15ARHM   H61 7279   4.768   5.788  15.858
   15ARHM   H62 7280   4.722   5.834  15.690
   15ARHM   H63 7281   4.675   5.940  15.828
   16BMANN   C1 7282   4.177   5.909  15.998
   16BMANN   H1 7283   4.251   5.902  16.081
   16BMANN   C5 7284   4.001   5.862  16.152
   16BMANN   H5 7285   4.076   5.856  16.233
   16BMANN   O5 7286   4.063   5.826  16.027
   16BMANN   C2 7287   4.132   6.053  15.983
   16BMANN   H2 7288   4.224   6.114  15.973
   16BMANN    N 7289   4.049   6.073  15.863
   16BMANN   HN 7290   3.955   6.043  15.867
   16BMANN    C 7291   4.093   6.133  15.752
   16BMANN    O 7292   4.207   6.175  15.740
   16BMANN   CT 7293   3.994   6.145  15.639
   16BMANN  HT1 7294   3.984   6.251  15.609
   16BMANN  HT2 7295   3.894   6.108  15.670
   16BMANN  HT3 7296   4.029   6.085  15.553
   16BMANN   C3 7297   4.065   6.097  16.111
   16BMANN   H3 7298   4.138   6.093  16.194
   16BMANN   O3 7299   4.020   6.232  16.100
   16BMANN  HO3 7300   4.092   6.292  16.079
   16BMANN   C4 7301   3.949   6.005  16.143
   16BMANN   H4 7302   3.873   6.010  16.062
   16BMANN   O4 7303   3.884   6.041  16.266
   16BMANN  HO4 7304   3.852   6.131  16.255
   16BMANN   C6 7305   3.893   5.760  16.182
   16BMANN  H61 7306   3.837   5.790  16.273
   16BMANN  H62 7307   3.820   5.757  16.097
   16BMANN   O6 7308   3.947   5.629  16.204
   16BMANN  HO6 7309   4.004   5.609  16.129
   17BGLCN   C1 7310   4.336   5.557  16.152
   17BGLCN   H1 7311   4.441   5.525  16.134
   17BGLCN   C5 7312   4.276   5.335  16.216
   17BGLCN   H5 7313   4.381   5.301  16.199
   17BGLCN   O5 7314   4.246   5.447  16.131
   17BGLCN   C2 7315   4.318   5.606  16.294
   17BGLCN   H2 7316   4.209   5.622  16.308
   17BGLCN    N 7317   4.383   5.734  16.315
   17BGLCN   HN 7318   4.461   5.753  16.257
   17BGLCN    C 7319   4.338   5.827  16.401
   17BGLCN    O 7320   4.236   5.812  16.467
   17BGLCN   CT 7321   4.420   5.952  16.413
   17BGLCN  HT1 7322   4.367   6.037  16.365
   17BGLCN  HT2 7323   4.520   5.939  16.366
   17BGLCN  HT3 7324   4.434   5.976  16.521
   17BGLCN   C3 7325   4.359   5.493  16.388
   17BGLCN   H3 7326   4.460   5.459  16.355
   17BGLCN   O3 7327   4.369   5.535  16.526
   17BGLCN   C4 7328   4.262   5.379  16.362
   17BGLCN   H4 7329   4.158   5.415  16.378
   17BGLCN   O4 7330   4.282   5.269  16.450
   17BGLCN  HO4 7331   4.269   5.299  16.540
   17BGLCN   C6 7332   4.183   5.222  16.177
   17BGLCN  H61 7333   4.194   5.138  16.248
   17BGLCN  H62 7334   4.078   5.258  16.179
   17BGLCN   O6 7335   4.212   5.171  16.046
   17BGLCN  HO6 7336   4.215   5.244  15.983
   18AGAL    C1 7337   4.475   5.476  16.599
   18AGAL    H1 7338   4.460   5.366  16.605
   18AGAL    C5 7339   4.640   5.637  16.532
   18AGAL    H5 7340   4.555   5.691  16.484
   18AGAL    O5 7341   4.604   5.498  16.537
   18AGAL    C2 7342   4.485   5.530  16.741
   18AGAL    H2 7343   4.573   5.476  16.783
   18AGAL    O2 7344   4.370   5.496  16.824
   18AGAL    C3 7345   4.518   5.679  16.740
   18AGAL    H3 7346   4.439   5.731  16.682
   18AGAL    O3 7347   4.519   5.737  16.871
   18AGAL   HO3 7348   4.524   5.832  16.865
   18AGAL    C4 7349   4.652   5.699  16.671
   18AGAL    H4 7350   4.670   5.808  16.658
   18AGAL    O4 7351   4.761   5.646  16.747
   18AGAL   HO4 7352   4.751   5.680  16.836
   18AGAL    C6 7353   4.756   5.659  16.436
   18AGAL   H61 7354   4.730   5.613  16.338
   18AGAL   H62 7355   4.769   5.768  16.418
   18AGAL    O6 7356   4.881   5.606  16.480
   18AGAL   HO6 7357   4.917   5.667  16.545
   19ARHM    C1 7358   4.406   5.466  16.958
   19ARHM    H1 7359   4.506   5.508  16.981
   19ARHM    C5 7360   4.287   5.258  16.968
   19ARHM    H5 7361   4.249   5.275  16.864
   19ARHM    O5 7362   4.413   5.324  16.983
   19ARHM    C2 7363   4.309   5.526  17.056
   19ARHM    H2 7364   4.294   5.632  17.027
   19ARHM    O2 7365   4.362   5.520  17.191
   19ARHM    C3 7366   4.172   5.462  17.048
   19ARHM    H3 7367   4.129   5.481  16.948
   19ARHM    O3 7368   4.087   5.520  17.148
   19ARHM   HO3 7369   4.118   5.487  17.232
   19ARHM    C4 7370   4.188   5.313  17.070
   19ARHM    H4 7371   4.232   5.296  17.171
   19ARHM    O4 7372   4.064   5.242  17.065
   19ARHM   HO4 7373   4.032   5.241  16.974
   19ARHM    C6 7374   4.314   5.108  16.986
   19ARHM   H61 7375   4.406   5.080  16.930
   19ARHM   H62 7376   4.331   5.083  17.093
   19ARHM   H63 7377   4.229   5.047  16.948
   20ARHM    C1 7378   4.457   5.620  17.217
   20ARHM    H1 7379   4.464   5.690  17.130
   20ARHM    C5 7380   4.607   5.494  17.355
   20ARHM    H5 7381   4.541   5.404  17.348
   20ARHM    O5 7382   4.591   5.573  17.236
   20ARHM    C2 7383   4.409   5.700  17.335
   20ARHM    H2 7384   4.301   5.722  17.323
   20ARHM    O2 7385   4.480   5.824  17.346
   20ARHM    C3 7386   4.423   5.618  17.461
   20ARHM    H3 7387   4.359   5.527  17.450
   20ARHM    O3 7388   4.378   5.697  17.571
   20ARHM    C4 7389   4.567   5.576  17.476
   20ARHM    H4 7390   4.630   5.668  17.478
   20ARHM    O4 7391   4.591   5.505  17.598
   20ARHM   HO4 7392   4.686   5.495  17.606
   20ARHM    C6 7393   4.753   5.446  17.360
   20ARHM   H61 7394   4.822   5.533  17.360
   20ARHM   H62 7395   4.772   5.385  17.451
   20ARHM   H63 7396   4.777   5.383  17.272
   21BMANN   C1 7397   4.429   5.925  17.261
   21BMANN   H1 7398   4.352   5.884  17.193
   21BMANN   C5 7399   4.484   6.081  17.091
   21BMANN   H5 7400   4.401   6.039  17.031
   21BMANN   O5 7401   4.534   5.980  17.181
   21BMANN   C2 7402   4.369   6.031  17.350
   21BMANN   H2 7403   4.283   5.984  17.402
   21BMANN    N 7404   4.463   6.076  17.452
   21BMANN   HN 7405   4.559   6.062  17.430
   21BMANN    C 7406   4.429   6.122  17.573
   21BMANN    O 7407   4.312   6.138  17.608
   21BMANN   CT 7408   4.543   6.155  17.666
   21BMANN  HT1 7409   4.583   6.256  17.642
   21BMANN  HT2 7410   4.624   6.080  17.656
   21BMANN  HT3 7411   4.506   6.156  17.771
   21BMANN   C3 7412   4.315   6.140  17.259
   21BMANN   H3 7413   4.243   6.093  17.189
   21BMANN   O3 7414   4.241   6.238  17.331
   21BMANN  HO3 7415   4.291   6.266  17.408
   21BMANN   C4 7416   4.428   6.197  17.174
   21BMANN   H4 7417   4.508   6.236  17.239
   21BMANN   O4 7418   4.384   6.303  17.091
   21BMANN  HO4 7419   4.377   6.383  17.144
   21BMANN   C6 7420   4.593   6.118  16.993
   21BMANN  H61 7421   4.554   6.193  16.921
   21BMANN  H62 7422   4.679   6.164  17.047
   21BMANN   O6 7423   4.638   6.003  16.920
   21BMANN  HO6 7424   4.695   5.952  16.978
   22BGLCN   C1 7425   4.306   5.625  17.668
   22BGLCN   H1 7426   4.336   5.518  17.670
   22BGLCN   C5 7427   4.087   5.576  17.747
   22BGLCN   H5 7428   4.115   5.469  17.752
   22BGLCN   O5 7429   4.166   5.641  17.646
   22BGLCN   C2 7430   4.343   5.692  17.798
   22BGLCN   H2 7431   4.312   5.798  17.793
   22BGLCN    N 7432   4.488   5.690  17.815
   22BGLCN   HN 7433   4.535   5.618  17.764
   22BGLCN    C 7434   4.562   5.782  17.877
   22BGLCN    O 7435   4.517   5.883  17.931
   22BGLCN   CT 7436   4.710   5.757  17.878
   22BGLCN  HT1 7437   4.754   5.790  17.781
   22BGLCN  HT2 7438   4.730   5.649  17.892
   22BGLCN  HT3 7439   4.758   5.813  17.961
   22BGLCN   C3 7440   4.266   5.625  17.910
   22BGLCN   H3 7441   4.289   5.516  17.908
   22BGLCN   O3 7442   4.313   5.679  18.034
   22BGLCN   C4 7443   4.117   5.641  17.882
   22BGLCN   H4 7444   4.094   5.749  17.876
   22BGLCN   O4 7445   4.034   5.584  17.982
   22BGLCN  HO4 7446   3.968   5.646  18.012
   22BGLCN   C6 7447   3.942   5.584  17.704
   22BGLCN  H61 7448   3.881   5.510  17.760
   22BGLCN  H62 7449   3.902   5.685  17.727
   22BGLCN   O6 7450   3.930   5.560  17.564
   22BGLCN  HO6 7451   4.014   5.590  17.528
   23AGAL    C1 7452   4.288   5.607  18.152
   23AGAL    H1 7453   4.180   5.613  18.178
   23AGAL    C5 7454   4.465   5.452  18.117
   23AGAL    H5 7455   4.491   5.509  18.025
   23AGAL    O5 7456   4.325   5.469  18.143
   23AGAL    C2 7457   4.367   5.672  18.263
   23AGAL    H2 7458   4.342   5.619  18.357
   23AGAL    O2 7459   4.331   5.810  18.274
   23AGAL    C3 7460   4.516   5.658  18.240
   23AGAL    H3 7461   4.540   5.707  18.143
   23AGAL    O3 7462   4.594   5.726  18.339
   23AGAL   HO3 7463   4.591   5.673  18.420
   23AGAL    C4 7464   4.551   5.511  18.230
   23AGAL    H4 7465   4.658   5.500  18.203
   23AGAL    O4 7466   4.529   5.445  18.354
   23AGAL   HO4 7467   4.540   5.350  18.340
   23AGAL    C6 7468   4.487   5.306  18.082
   23AGAL   H61 7469   4.414   5.277  18.004
   23AGAL   H62 7470   4.589   5.294  18.038
   23AGAL    O6 7471   4.473   5.217  18.193
   23AGAL   HO6 7472   4.379   5.200  18.206
   24ARHM    C1 7473   4.234   5.841  18.369
   24ARHM    H1 7474   4.160   5.759  18.374
   24ARHM    C5 7475   4.252   6.071  18.317
   24ARHM    H5 7476   4.325   6.048  18.236
   24ARHM    O5 7477   4.162   5.961  18.334
   24ARHM    C2 7478   4.304   5.858  18.501
   24ARHM    H2 7479   4.364   5.767  18.522
   24ARHM    O2 7480   4.210   5.877  18.608
   24ARHM    C3 7481   4.401   5.972  18.489
   24ARHM    H3 7482   4.474   5.948  18.408
   24ARHM    O3 7483   4.478   5.987  18.609
   24ARHM   HO3 7484   4.434   6.050  18.667
   24ARHM    C4 7485   4.327   6.098  18.447
   24ARHM    H4 7486   4.254   6.126  18.526
   24ARHM    O4 7487   4.419   6.206  18.429
   24ARHM   HO4 7488   4.371   6.289  18.420
   24ARHM    C6 7489   4.165   6.189  18.268
   24ARHM   H61 7490   4.228   6.276  18.242
   24ARHM   H62 7491   4.109   6.158  18.177
   24ARHM   H63 7492   4.092   6.219  18.347
   25ARHM    C1 7493   4.160   5.755  18.658
   25ARHM    H1 7494   4.181   5.673  18.586
   25ARHM    C5 7495   3.973   5.845  18.774
   25ARHM    H5 7496   4.003   5.948  18.748
   25ARHM    O5 7497   4.018   5.754  18.672
   25ARHM    C2 7498   4.232   5.722  18.786
   25ARHM    H2 7499   4.341   5.737  18.773
   25ARHM    O2 7500   4.205   5.588  18.829
   25ARHM    C3 7501   4.188   5.818  18.894
   25ARHM    H3 7502   4.214   5.921  18.863
   25ARHM    O3 7503   4.258   5.783  19.013
   25ARHM    C4 7504   4.038   5.806  18.907
   25ARHM    H4 7505   4.014   5.699  18.927
   25ARHM    O4 7506   3.984   5.879  19.017
   25ARHM   HO4 7507   3.909   5.828  19.048
   25ARHM    C6 7508   3.819   5.838  18.775
   25ARHM   H61 7509   3.779   5.862  18.674
   25ARHM   H62 7510   3.786   5.736  18.803
   25ARHM   H63 7511   3.777   5.910  18.847
   26BMANN   C1 7512   4.289   5.491  18.774
   26BMANN   H1 7513   4.384   5.535  18.738
   26BMANN   C5 7514   4.306   5.322  18.607
   26BMANN   H5 7515   4.398   5.372  18.571
   26BMANN   O5 7516   4.222   5.423  18.666
   26BMANN   C2 7517   4.319   5.391  18.884
   26BMANN   H2 7518   4.373   5.447  18.964
   26BMANN    N 7519   4.197   5.338  18.946
   26BMANN   HN 7520   4.112   5.352  18.895
   26BMANN    C 7521   4.191   5.281  19.067
   26BMANN    O 7522   4.288   5.268  19.141
   26BMANN   CT 7523   4.056   5.232  19.111
   26BMANN  HT1 7524   3.979   5.256  19.034
   26BMANN  HT2 7525   4.029   5.280  19.207
   26BMANN  HT3 7526   4.060   5.122  19.126
   26BMANN   C3 7527   4.414   5.289  18.825
   26BMANN   H3 7528   4.501   5.344  18.785
   26BMANN   O3 7529   4.464   5.198  18.921
   26BMANN  HO3 7530   4.559   5.211  18.930
   26BMANN   C4 7531   4.346   5.218  18.710
   26BMANN   H4 7532   4.255   5.167  18.748
   26BMANN   O4 7533   4.431   5.119  18.652
   26BMANN  HO4 7534   4.446   5.053  18.719
   26BMANN   C6 7535   4.237   5.265  18.484
   26BMANN  H61 7536   4.186   5.346  18.428
   26BMANN  H62 7537   4.314   5.221  18.417
   26BMANN   O6 7538   4.142   5.162  18.515
   26BMANN  HO6 7539   4.191   5.083  18.539
   27BGLCN   C1 7540   4.299   5.893  19.088
   27BGLCN   H1 7541   4.220   5.972  19.087
   27BGLCN   C5 7542   4.469   6.056  19.121
   27BGLCN   H5 7543   4.392   6.135  19.117
   27BGLCN   O5 7544   4.424   5.944  19.042
   27BGLCN   C2 7545   4.318   5.839  19.228
   27BGLCN   H2 7546   4.403   5.768  19.224
   27BGLCN    N 7547   4.200   5.765  19.272
   27BGLCN   HN 7548   4.116   5.781  19.221
   27BGLCN    C 7549   4.205   5.664  19.360
   27BGLCN    O 7550   4.308   5.633  19.419
   27BGLCN   CT 7551   4.077   5.588  19.383
   27BGLCN  HT1 7552   3.991   5.643  19.340
   27BGLCN  HT2 7553   4.061   5.574   0.019
   27BGLCN  HT3 7554   4.084   5.489  19.334
   27BGLCN   C3 7555   4.357   5.955  19.318
   27BGLCN   H3 7556   4.279   6.033  19.306
   27BGLCN   O3 7557   4.358   5.909  19.455
   27BGLCN   C4 7558   4.488   6.012  19.267
   27BGLCN   H4 7559   4.566   5.934  19.270
   27BGLCN   O4 7560   4.533   6.122  19.345
   27BGLCN  HO4 7561   4.457   6.171  19.378
   27BGLCN   C6 7562   4.596   6.111  19.057
   27BGLCN  H61 7563   4.640   6.189  19.123
   27BGLCN  H62 7564   4.671   6.029  19.046
   27BGLCN   O6 7565   4.571   6.170  18.929
   27BGLCN  HO6 7566   4.641   6.232  18.908
   28AGAL    C1 7567   4.351   6.005   0.086
   28AGAL    H1 7568   4.452   6.048   0.101
   28AGAL    C5 7569   4.122   6.069   0.047
   28AGAL    H5 7570   4.113   5.991  19.441
   28AGAL    O5 7571   4.260   6.112   0.054
   28AGAL    C2 7572   4.309   5.941   0.218
   28AGAL    H2 7573   4.311   6.026   0.290
   28AGAL    O2 7574   4.399   5.839   0.264
   28AGAL    C3 7575   4.167   5.889   0.210
   28AGAL    H3 7576   4.162   5.814   0.128
   28AGAL    O3 7577   4.127   5.824   0.331
   28AGAL   HO3 7578   4.085   5.740   0.311
   28AGAL    C4 7579   4.074   6.004   0.177
   28AGAL    H4 7580   3.972   5.964   0.160
   28AGAL    O4 7581   4.066   6.096   0.286
   28AGAL   HO4 7582   4.056   6.042   0.365
   28AGAL    C6 7583   4.037   6.186   0.001
   28AGAL   H61 7584   4.074   6.224  19.376
   28AGAL   H62 7585   3.932   6.152  19.459
   28AGAL    O6 7586   4.038   6.293   0.096
   28AGAL   HO6 7587   4.043   6.251   0.182
   29ARHM    C1 7588   4.431   5.854   0.401
   29ARHM    H1 7589   4.348   5.906   0.453
   29ARHM    C5 7590   4.664   5.866   0.353
   29ARHM    H5 7591   4.644   5.855   0.245
   29ARHM    O5 7592   4.552   5.929   0.417
   29ARHM    C2 7593   4.447   5.719   0.468
   29ARHM    H2 7594   4.354   5.661   0.451
   29ARHM    O2 7595   4.471   5.734   0.610
   29ARHM    C3 7596   4.561   5.645   0.401
   29ARHM    H3 7597   4.537   5.632   0.293
   29ARHM    O3 7598   4.580   5.515   0.456
   29ARHM   HO3 7599   4.676   5.506   0.462
   29ARHM    C4 7600   4.687   5.728   0.414
   29ARHM    H4 7601   4.709   5.742   0.522
   29ARHM    O4 7602   4.799   5.663   0.355
   29ARHM   HO4 7603   4.796   5.674   0.260
   29ARHM    C6 7604   4.784   5.960   0.370
   29ARHM   H61 7605   4.764   6.055   0.316
   29ARHM   H62 7606   4.800   5.982   0.478
   29ARHM   H63 7607   4.876   5.914   0.329
   30ARHM    C1 7608   4.357   5.710   0.690
   30ARHM    H1 7609   4.315   5.610   0.663
   30ARHM    C5 7610   4.295   5.941   0.708
   30ARHM    H5 7611   4.386   5.972   0.651
   30ARHM    O5 7612   4.255   5.809   0.669
   30ARHM    C2 7613   4.394   5.708   0.838
   30ARHM    H2 7614   4.477   5.637   0.853
   30ARHM    O2 7615   4.280   5.670   0.917
   30ARHM    C3 7616   4.439   5.846   0.884
   30ARHM    H3 7617   4.526   5.874   0.820
   30ARHM    O3 7618   4.487   5.845   1.020
   30ARHM    C4 7619   4.329   5.947   0.856
   30ARHM    H4 7620   4.237   5.920   0.912
   30ARHM    O4 7621   4.366   6.079   0.892
   30ARHM   HO4 7622   4.454   6.098   0.861
   30ARHM    C6 7623   4.179   6.033   0.667
   30ARHM   H61 7624   4.203   6.139   0.689
   30ARHM   H62 7625   4.159   6.023   0.558
   30ARHM   H63 7626   4.087   6.005   0.722
   31BMANN   C1 7627   4.256   5.533   0.936
   31BMANN   H1 7628   4.350   5.476   0.945
   31BMANN   C5 7629   4.135   5.343   0.854
   31BMANN   H5 7630   4.228   5.282   0.860
   31BMANN   O5 7631   4.171   5.481   0.833
   31BMANN   C2 7632   4.175   5.530   1.064
   31BMANN   H2 7633   4.239   5.569   1.146
   31BMANN    N 7634   4.060   5.621   1.052
   31BMANN   HN 7635   4.042   5.651   0.959
   31BMANN    C 7636   3.984   5.669   1.151
   31BMANN    O 7637   3.995   5.631   1.267
   31BMANN   CT 7638   3.884   5.774   1.111
   31BMANN  HT1 7639   3.840   5.750   1.012
   31BMANN  HT2 7640   3.934   5.873   1.105
   31BMANN  HT3 7641   3.803   5.779   1.187
   31BMANN   C3 7642   4.141   5.386   1.097
   31BMANN   H3 7643   4.237   5.329   1.100
   31BMANN   O3 7644   4.084   5.372   1.227
   31BMANN  HO3 7645   4.035   5.452   1.246
   31BMANN   C4 7646   4.057   5.329   0.985
   31BMANN   H4 7647   3.962   5.386   0.977
   31BMANN   O4 7648   4.022   5.192   1.008
   31BMANN  HO4 7649   4.079   5.155   1.076
   31BMANN   C6 7650   4.053   5.292   0.736
   31BMANN  H61 7651   4.041   5.182   0.741
   31BMANN  H62 7652   3.951   5.334   0.744
   31BMANN   O6 7653   4.104   5.329   0.608
   31BMANN  HO6 7654   4.195   5.299   0.595
   32BGLCN   C1 7655   4.392   5.854   1.125
   32BGLCN   H1 7656   4.299   5.798   1.100
   32BGLCN   C5 7657   4.260   5.999   1.260
   32BGLCN   H5 7658   4.169   5.941   1.232
   32BGLCN   O5 7659   4.358   5.989   1.156
   32BGLCN   C2 7660   4.456   5.794   1.249
   32BGLCN   H2 7661   4.536   5.865   1.279
   32BGLCN    N 7662   4.516   5.665   1.221
   32BGLCN   HN 7663   4.471   5.606   1.155
   32BGLCN    C 7664   4.637   5.627   1.267
   32BGLCN    O 7665   4.702   5.696   1.345
   32BGLCN   CT 7666   4.688   5.495   1.218
   32BGLCN  HT1 7667   4.631   5.461   1.129
   32BGLCN  HT2 7668   4.678   5.419   1.299
   32BGLCN  HT3 7669   4.795   5.505   1.191
   32BGLCN   C3 7670   4.352   5.795   1.360
   32BGLCN   H3 7671   4.262   5.743   1.320
   32BGLCN   O3 7672   4.393   5.729   1.481
   32BGLCN   C4 7673   4.317   5.940   1.387
   32BGLCN   H4 7674   4.409   5.996   1.414
   32BGLCN   O4 7675   4.226   5.953   1.495
   32BGLCN  HO4 7676   4.276   5.939   1.576
   32BGLCN   C6 7677   4.220   6.145   1.269
   32BGLCN  H61 7678   4.155   6.162   1.357
   32BGLCN  H62 7679   4.311   6.208   1.280
   32BGLCN   O6 7680   4.149   6.185   1.151
   32BGLCN  HO6 7681   4.209   6.178   1.077
   33AGAL    C1 7682   4.289   5.650   1.536
   33AGAL    H1 7683   4.190   5.699   1.523
   33AGAL    C5 7684   4.407   5.447   1.492
   33AGAL    H5 7685   4.492   5.508   1.455
   33AGAL    O5 7686   4.285   5.522   1.472
   33AGAL    C2 7687   4.310   5.628   1.685
   33AGAL    H2 7688   4.226   5.565   1.719
   33AGAL    O2 7689   4.302   5.755   1.754
   33AGAL    C3 7690   4.440   5.554   1.710
   33AGAL    H3 7691   4.523   5.614   1.666
   33AGAL    O3 7692   4.469   5.538   1.848
   33AGAL   HO3 7693   4.410   5.469   1.881
   33AGAL    C4 7694   4.434   5.420   1.639
   33AGAL    H4 7695   4.533   5.370   1.649
   33AGAL    O4 7696   4.337   5.332   1.697
   33AGAL   HO4 7697   4.284   5.298   1.624
   33AGAL    C6 7698   4.400   5.323   1.404
   33AGAL   H61 7699   4.405   5.354   1.298
   33AGAL   H62 7700   4.488   5.258   1.425
   33AGAL    O6 7701   4.281   5.248   1.424
   33AGAL   HO6 7702   4.207   5.295   1.384
   34ARHM    C1 7703   4.236   5.747   1.878
   34ARHM    H1 7704   4.271   5.658   1.935
   34ARHM    C5 7705   4.035   5.850   1.797
   34ARHM    H5 7706   4.076   5.858   1.694
   34ARHM    O5 7707   4.094   5.737   1.863
   34ARHM    C2 7708   4.274   5.873   1.955
   34ARHM    H2 7709   4.384   5.881   1.955
   34ARHM    O2 7710   4.229   5.876   2.092
   34ARHM    C3 7711   4.217   5.993   1.883
   34ARHM    H3 7712   4.257   5.995   1.779
   34ARHM    O3 7713   4.257   6.116   1.944
   34ARHM   HO3 7714   4.301   6.169   1.877
   34ARHM    C4 7715   4.066   5.978   1.874
   34ARHM    H4 7716   4.026   5.968   1.977
   34ARHM    O4 7717   4.003   6.090   1.813
   34ARHM   HO4 7718   4.054   6.168   1.834
   34ARHM    C6 7719   3.885   5.819   1.786
   34ARHM   H61 7720   3.842   5.803   1.887
   34ARHM   H62 7721   3.831   5.903   1.737
   34ARHM   H63 7722   3.868   5.727   1.726
   35ARHM    C1 7723   4.269   5.771   2.177
   35ARHM    H1 7724   4.375   5.744   2.156
   35ARHM    C5 7725   4.046   5.687   2.183
   35ARHM    H5 7726   4.013   5.763   2.109
   35ARHM    O5 7727   4.185   5.656   2.164
   35ARHM    C2 7728   4.256   5.825   2.319
   35ARHM    H2 7729   4.315   5.919   2.325
   35ARHM    O2 7730   4.301   5.737   2.423
   35ARHM    C3 7731   4.111   5.863   2.344
   35ARHM    H3 7732   4.080   5.940   2.271
   35ARHM    O3 7733   4.096   5.921   2.474
   35ARHM   HO3 7734   4.080   5.850   2.537
   35ARHM    C4 7735   4.023   5.741   2.324
   35ARHM    H4 7736   4.052   5.662   2.397
   35ARHM    O4 7737   3.885   5.772   2.341
   35ARHM   HO4 7738   3.875   5.817   2.425
   35ARHM    C6 7739   3.970   5.556   2.153
   35ARHM   H61 7740   3.991   5.523   2.049
   35ARHM   H62 7741   4.001   5.476   2.224
   35ARHM   H63 7742   3.860   5.572   2.164
   36BMANN   C1 7743   4.439   5.709   2.428
   36BMANN   H1 7744   4.497   5.800   2.402
   36BMANN   C5 7745   4.609   5.567   2.338
   36BMANN   H5 7746   4.667   5.658   2.310
   36BMANN   O5 7747   4.470   5.601   2.338
   36BMANN   C2 7748   4.472   5.664   2.570
   36BMANN   H2 7749   4.454   5.752   2.636
   36BMANN    N 7750   4.387   5.555   2.616
   36BMANN   HN 7751   4.355   5.493   2.545
   36BMANN    C 7752   4.350   5.536   2.744
   36BMANN    O 7753   4.377   5.613   2.835
   36BMANN   CT 7754   4.269   5.411   2.770
   36BMANN  HT1 7755   4.313   5.325   2.716
   36BMANN  HT2 7756   4.164   5.426   2.737
   36BMANN  HT3 7757   4.269   5.389   2.879
   36BMANN   C3 7758   4.622   5.633   2.576
   36BMANN   H3 7759   4.677   5.724   2.547
   36BMANN   O3 7760   4.664   5.598   2.708
   36BMANN  HO3 7761   4.752   5.632   2.727
   36BMANN   C4 7762   4.653   5.523   2.476
   36BMANN   H4 7763   4.597   5.431   2.503
   36BMANN   O4 7764   4.793   5.490   2.475
   36BMANN  HO4 7765   4.806   5.433   2.550
   36BMANN   C6 7766   4.633   5.463   2.228
   36BMANN  H61 7767   4.589   5.501   2.133
   36BMANN  H62 7768   4.742   5.450   2.212
   36BMANN   O6 7769   4.575   5.336   2.257
   36BMANN  HO6 7770   4.641   5.275   2.291
    1ECLIP HB6S 7771   2.918   5.734  11.832
    1ECLIP  OB6 7772   2.747   5.748  11.949
    1ECLIP  CB6 7773   2.829   5.672  11.858
    1ECLIP HB6R 7774   2.865   5.579  11.906
    1ECLIP  CB5 7775   2.762   5.631  11.728
    1ECLIP  OB5 7776   2.689   5.743  11.676
    1ECLIP  HB5 7777   2.691   5.549  11.751
    1ECLIP  CB1 7778   2.616   5.710  11.557
    1ECLIP  HB1 7779   2.547   5.626  11.578
    1ECLIP  OA6 7780   2.541   5.819  11.507
    1ECLIP  CA6 7781   2.598   5.946  11.541
    1ECLIP HA6R 7782   2.706   5.938  11.562
    1ECLIP HA6S 7783   2.547   5.984  11.632
    1ECLIP  CB4 7784   2.866   5.585  11.624
    1ECLIP  HB4 7785   2.929   5.673  11.602
    1ECLIP  OB4 7786   2.941   5.477  11.684
    1ECLIP   PB 7787   3.106   5.472  11.672
    1ECLIP OPB4 7788   3.179   5.399  11.784
    1ECLIP OPB3 7789   3.159   5.615  11.666
    1ECLIP OPB2 7790   3.147   5.415  11.538
    1ECLIP  CB3 7791   2.793   5.548  11.495
    1ECLIP  OB3 7792   2.886   5.510  11.393
    1ECLIP  HB3 7793   2.723   5.465  11.522
    1ECLIP  C71 7794   2.842   5.421  11.304
    1ECLIP  O71 7795   2.730   5.372  11.304
    1ECLIP  C72 7796   2.921   5.430  11.175
    1ECLIP H72R 7797   2.865   5.495  11.105
    1ECLIP H72S 7798   2.922   5.328  11.130
    1ECLIP  CB2 7799   2.713   5.670  11.447
    1ECLIP  HB2 7800   2.785   5.754  11.435
    1ECLIP  NB2 7801   2.645   5.652  11.319
    1ECLIP HNB2 7802   2.562   5.597  11.322
    1ECLIP  CA4 7803   2.453   6.046  11.353
    1ECLIP  HA4 7804   2.438   5.945  11.309
    1ECLIP  OA4 7805   2.349   6.072  11.447
    1ECLIP HOA4 7806   2.339   5.994  11.501
    1ECLIP  CA5 7807   2.584   6.044  11.427
    1ECLIP  HA5 7808   2.603   6.145  11.468
    1ECLIP  OA5 7809   2.689   6.011  11.335
    1ECLIP  CA1 7810   2.708   6.110  11.233
    1ECLIP  HA1 7811   2.789   6.074  11.166
    1ECLIP  OA1 7812   2.748   6.235  11.289
    1ECLIP OPA2 7813   2.865   6.361  11.476
    1ECLIP OPA3 7814   2.891   6.128  11.476
    1ECLIP OPA4 7815   3.007   6.261  11.291
    1ECLIP   PA 7816   2.886   6.246  11.379
    1ECLIP  CA3 7817   2.461   6.150  11.241
    1ECLIP  HA3 7818   2.485   6.247  11.290
    1ECLIP  OA3 7819   2.340   6.172  11.168
    1ECLIP  C31 7820   2.277   6.071  11.103
    1ECLIP  O31 7821   2.242   6.085  10.986
    1ECLIP  C32 7822   2.162   6.027  11.196
    1ECLIP H32R 7823   2.071   6.057  11.141
    1ECLIP H32S 7824   2.164   6.089  11.288
    1ECLIP  CA2 7825   2.580   6.118  11.150
    1ECLIP  HA2 7826   2.563   6.017  11.107
    1ECLIP  NA2 7827   2.595   6.214  11.041
    1ECLIP HNA2 7828   2.594   6.309  11.070
    1ECLIP  C73 7829   3.063   5.482  11.194
    1ECLIP H73R 7830   3.103   5.445  11.291
    1ECLIP  O73 7831   3.053   5.623  11.189
    1ECLIP  C81 7832   3.130   5.698  11.264
    1ECLIP  O81 7833   3.223   5.655  11.334
    1ECLIP  C82 7834   3.125   5.841  11.209
    1ECLIP H82R 7835   3.217   5.894  11.242
    1ECLIP H82S 7836   3.037   5.891  11.253
    1ECLIP  C83 7837   3.114   5.844  11.055
    1ECLIP H83R 7838   3.016   5.800  11.027
    1ECLIP H83S 7839   3.193   5.782  11.008
    1ECLIP  C84 7840   3.118   5.984  10.993
    1ECLIP H84R 7841   3.220   6.027  11.001
    1ECLIP H84S 7842   3.048   6.051  11.049
    1ECLIP  C85 7843   3.073   5.978  10.846
    1ECLIP H85R 7844   2.967   5.947  10.845
    1ECLIP H85S 7845   3.132   5.899  10.795
    1ECLIP  C86 7846   3.085   6.110  10.769
    1ECLIP H86R 7847   3.193   6.134  10.756
    1ECLIP H86S 7848   3.039   6.191  10.829
    1ECLIP  C87 7849   3.017   6.106  10.631
    1ECLIP H87R 7850   3.040   6.200  10.577
    1ECLIP H87S 7851   2.907   6.102  10.647
    1ECLIP  C88 7852   3.057   5.985  10.545
    1ECLIP H88R 7853   3.019   5.893  10.595
    1ECLIP H88S 7854   3.168   5.976  10.542
    1ECLIP  C89 7855   3.002   5.986  10.402
    1ECLIP H89R 7856   2.895   6.019  10.404
    1ECLIP H89S 7857   3.004   5.882  10.364
    1ECLIP C810 7858   3.082   6.075  10.306
    1ECLIPH810R 7859   3.190   6.051  10.315
    1ECLIPH810S 7860   3.069   6.181  10.337
    1ECLIP C811 7861   3.038   6.061  10.159
    1ECLIPH811R 7862   3.084   6.143  10.099
    1ECLIPH811S 7863   2.928   6.076  10.156
    1ECLIP C812 7864   3.071   5.926  10.092
    1ECLIPH812R 7865   3.018   5.921   9.995
    1ECLIPH812S 7866   3.032   5.843  10.155
    1ECLIP C813 7867   3.221   5.906  10.067
    1ECLIPH813R 7868   3.258   5.991  10.005
    1ECLIPH813S 7869   3.275   5.910  10.164
    1ECLIP C814 7870   3.255   5.774   9.997
    1ECLIPH814R 7871   3.198   5.765   9.902
    1ECLIPH814S 7872   3.228   5.688  10.062
    1ECLIPH814T 7873   3.364   5.769   9.975
    1ECLIP  C74 7874   3.158   5.436  11.080
    1ECLIP H74R 7875   3.163   5.325  11.079
    1ECLIP H74S 7876   3.259   5.474  11.106
    1ECLIP  C75 7877   3.125   5.486  10.938
    1ECLIP H75R 7878   3.220   5.500  10.883
    1ECLIP H75S 7879   3.075   5.586  10.942
    1ECLIP  C76 7880   3.038   5.391  10.854
    1ECLIP H76R 7881   2.937   5.382  10.899
    1ECLIP H76S 7882   3.085   5.290  10.855
    1ECLIP  C77 7883   3.023   5.435  10.707
    1ECLIP H77R 7884   3.123   5.445  10.660
    1ECLIP H77S 7885   2.974   5.535  10.705
    1ECLIP  C78 7886   2.937   5.337  10.627
    1ECLIP H78R 7887   2.993   5.241  10.615
    1ECLIP H78S 7888   2.847   5.316  10.688
    1ECLIP  C79 7889   2.888   5.386  10.491
    1ECLIP H79R 7890   2.811   5.466  10.504
    1ECLIP H79S 7891   2.836   5.301  10.442
    1ECLIP C710 7892   2.996   5.437  10.395
    1ECLIPH710R 7893   3.029   5.539  10.426
    1ECLIPH710S 7894   3.084   5.370  10.400
    1ECLIP C711 7895   2.941   5.439  10.252
    1ECLIPH711R 7896   2.890   5.342  10.234
    1ECLIPH711S 7897   2.864   5.519  10.244
    1ECLIP C712 7898   3.049   5.458  10.145
    1ECLIPH712R 7899   3.114   5.368  10.145
    1ECLIPH712S 7900   3.112   5.546  10.173
    1ECLIP C713 7901   2.990   5.479  10.005
    1ECLIPH713R 7902   2.950   5.582   9.998
    1ECLIPH713S 7903   3.072   5.471   9.931
    1ECLIP C714 7904   2.878   5.380   9.969
    1ECLIPH714R 7905   2.911   5.276   9.988
    1ECLIPH714S 7906   2.788   5.399  10.032
    1ECLIPH714T 7907   2.849   5.389   9.862
    1ECLIP  C51 7908   2.691   5.693  11.199
    1ECLIP  O51 7909   2.794   5.755  11.184
    1ECLIP  C52 7910   2.606   5.652  11.081
    1ECLIP H52R 7911   2.611   5.542  11.066
    1ECLIP H52S 7912   2.502   5.680  11.110
    1ECLIP  C53 7913   2.639   5.726  10.950
    1ECLIP H53R 7914   2.655   5.834  10.971
    1ECLIP  O53 7915   2.532   5.702  10.857
    1ECLIP  C61 7916   2.443   5.802  10.854
    1ECLIP  O61 7917   2.425   5.880  10.945
    1ECLIP  C62 7918   2.337   5.770  10.747
    1ECLIP H62R 7919   2.249   5.726  10.798
    1ECLIP H62S 7920   2.380   5.694  10.677
    1ECLIP  C63 7921   2.294   5.894  10.666
    1ECLIP H63R 7922   2.384   5.941  10.621
    1ECLIP H63S 7923   2.249   5.968  10.736
    1ECLIP  C64 7924   2.193   5.865  10.553
    1ECLIP H64R 7925   2.149   5.961  10.520
    1ECLIP H64S 7926   2.111   5.802  10.593
    1ECLIP  C65 7927   2.257   5.796  10.432
    1ECLIP H65R 7928   2.303   5.701  10.466
    1ECLIP H65S 7929   2.338   5.859  10.389
    1ECLIP  C66 7930   2.157   5.762  10.321
    1ECLIP H66R 7931   2.069   5.714  10.367
    1ECLIP H66S 7932   2.205   5.689  10.252
    1ECLIP  C67 7933   2.109   5.880  10.235
    1ECLIP H67R 7934   2.067   5.960  10.299
    1ECLIP H67S 7935   2.027   5.842  10.170
    1ECLIP  C68 7936   2.218   5.937  10.143
    1ECLIP H68R 7937   2.272   5.855  10.092
    1ECLIP H68S 7938   2.291   5.994  10.205
    1ECLIP  C69 7939   2.156   6.030  10.037
    1ECLIP H69R 7940   2.087   6.100  10.088
    1ECLIP H69S 7941   2.096   5.969   9.966
    1ECLIP C610 7942   2.260   6.111   9.960
    1ECLIPH610R 7943   2.336   6.044   9.913
    1ECLIPH610S 7944   2.313   6.176  10.032
    1ECLIP C611 7945   2.194   6.199   9.853
    1ECLIPH611R 7946   2.093   6.229   9.889
    1ECLIPH611S 7947   2.253   6.292   9.842
    1ECLIP C612 7948   2.183   6.131   9.716
    1ECLIPH612R 7949   2.280   6.085   9.687
    1ECLIPH612S 7950   2.105   6.052   9.718
    1ECLIPH612T 7951   2.156   6.205   9.638
    1ECLIP  C54 7952   2.766   5.675  10.879
    1ECLIP H54R 7953   2.756   5.566  10.859
    1ECLIP H54S 7954   2.852   5.689  10.949
    1ECLIP  C55 7955   2.797   5.750  10.748
    1ECLIP H55R 7956   2.904   5.732  10.722
    1ECLIP H55S 7957   2.784   5.859  10.764
    1ECLIP  C56 7958   2.709   5.706  10.630
    1ECLIP H56R 7959   2.606   5.743  10.644
    1ECLIP H56S 7960   2.704   5.595  10.628
    1ECLIP  C57 7961   2.755   5.758  10.494
    1ECLIP H57R 7962   2.856   5.718  10.470
    1ECLIP H57S 7963   2.762   5.869  10.500
    1ECLIP  C58 7964   2.655   5.719  10.385
    1ECLIP H58R 7965   2.645   5.609  10.386
    1ECLIP H58S 7966   2.556   5.763  10.409
    1ECLIP  C59 7967   2.697   5.764  10.244
    1ECLIP H59R 7968   2.799   5.723  10.224
    1ECLIP H59S 7969   2.706   5.874  10.239
    1ECLIP C510 7970   2.599   5.711  10.139
    1ECLIPH510R 7971   2.503   5.768  10.143
    1ECLIPH510S 7972   2.575   5.606  10.168
    1ECLIP C511 7973   2.656   5.708   9.997
    1ECLIPH511R 7974   2.636   5.804   9.944
    1ECLIPH511S 7975   2.766   5.697  10.005
    1ECLIP C512 7976   2.604   5.588   9.917
    1ECLIPH512R 7977   2.676   5.565   9.835
    1ECLIPH512S 7978   2.602   5.498   9.983
    1ECLIP C513 7979   2.465   5.608   9.857
    1ECLIPH513R 7980   2.467   5.696   9.789
    1ECLIPH513S 7981   2.394   5.632   9.939
    1ECLIP C514 7982   2.415   5.485   9.781
    1ECLIPH514R 7983   2.415   5.396   9.847
    1ECLIPH514S 7984   2.311   5.501   9.744
    1ECLIPH514T 7985   2.481   5.464   9.694
    1ECLIP  C33 7986   2.146   5.875  11.225
    1ECLIP H33R 7987   2.046   5.844  11.188
    1ECLIP  O33 7988   2.150   5.860  11.365
    1ECLIP HO33 7989   2.178   5.773  11.396
    1ECLIP  C34 7990   2.252   5.783  11.160
    1ECLIP H34R 7991   2.355   5.821  11.178
    1ECLIP H34S 7992   2.233   5.793  11.051
    1ECLIP  C35 7993   2.252   5.631  11.190
    1ECLIP H35R 7994   2.158   5.598  11.239
    1ECLIP H35S 7995   2.334   5.608  11.261
    1ECLIP  C36 7996   2.273   5.549  11.061
    1ECLIP H36R 7997   2.353   5.599  11.001
    1ECLIP H36S 7998   2.181   5.554  11.000
    1ECLIP  C37 7999   2.313   5.401  11.071
    1ECLIP H37R 8000   2.224   5.342  11.100
    1ECLIP H37S 8001   2.390   5.387  11.150
    1ECLIP  C38 8002   2.370   5.345  10.937
    1ECLIP H38R 8003   2.479   5.367  10.934
    1ECLIP H38S 8004   2.357   5.235  10.938
    1ECLIP  C39 8005   2.306   5.402  10.809
    1ECLIP H39R 8006   2.325   5.511  10.805
    1ECLIP H39S 8007   2.197   5.384  10.816
    1ECLIP C310 8008   2.359   5.343  10.677
    1ECLIPH310R 8009   2.313   5.243  10.660
    1ECLIPH310S 8010   2.469   5.329  10.686
    1ECLIP C311 8011   2.335   5.433  10.554
    1ECLIPH311R 8012   2.230   5.470  10.555
    1ECLIPH311S 8013   2.402   5.521  10.562
    1ECLIP C312 8014   2.362   5.364  10.419
    1ECLIPH312R 8015   2.469   5.334  10.415
    1ECLIPH312S 8016   2.299   5.273  10.411
    1ECLIP C313 8017   2.335   5.454  10.298
    1ECLIPH313R 8018   2.227   5.481  10.297
    1ECLIPH313S 8019   2.393   5.549  10.309
    1ECLIP C314 8020   2.369   5.391  10.163
    1ECLIPH314R 8021   2.311   5.297  10.149
    1ECLIPH314S 8022   2.345   5.460  10.080
    1ECLIPH314T 8023   2.478   5.366  10.158
    1ECLIP  C11 8024   2.614   6.185  10.911
    1ECLIP  O11 8025   2.624   6.071  10.868
    1ECLIP  C12 8026   2.626   6.304  10.818
    1ECLIP H12R 8027   2.727   6.348  10.835
    1ECLIP H12S 8028   2.549   6.379  10.843
    1ECLIP  C13 8029   2.613   6.260  10.671
    1ECLIP H13R 8030   2.681   6.175  10.651
    1ECLIP  O13 8031   2.654   6.369  10.590
    1ECLIP HO13 8032   2.649   6.350  10.496
    1ECLIP  C14 8033   2.469   6.224  10.630
    1ECLIP H14R 8034   2.402   6.305  10.666
    1ECLIP H14S 8035   2.440   6.132  10.685
    1ECLIP  C15 8036   2.444   6.206  10.478
    1ECLIP H15R 8037   2.463   6.303  10.428
    1ECLIP H15S 8038   2.337   6.181  10.462
    1ECLIP  C16 8039   2.529   6.097  10.410
    1ECLIP H16R 8040   2.481   5.999  10.427
    1ECLIP H16S 8041   2.631   6.091  10.455
    1ECLIP  C17 8042   2.546   6.122  10.259
    1ECLIP H17R 8043   2.456   6.174  10.219
    1ECLIP H17S 8044   2.555   6.025  10.206
    1ECLIP  C18 8045   2.673   6.204  10.232
    1ECLIP H18R 8046   2.667   6.298  10.291
    1ECLIP H18S 8047   2.760   6.148  10.270
    1ECLIP  C19 8048   2.698   6.243  10.086
    1ECLIP H19R 8049   2.793   6.301  10.084
    1ECLIP H19S 8050   2.618   6.313  10.053
    1ECLIP C110 8051   2.711   6.127   9.985
    1ECLIPH110R 8052   2.759   6.040  10.034
    1ECLIPH110S 8053   2.610   6.095   9.952
    1ECLIP C111 8054   2.795   6.171   9.864
    1ECLIPH111R 8055   2.747   6.261   9.820
    1ECLIPH111S 8056   2.896   6.203   9.900
    1ECLIP C112 8057   2.814   6.068   9.752
    1ECLIPH112R 8058   2.897   5.999   9.780
    1ECLIPH112S 8059   2.722   6.007   9.739
    1ECLIP C113 8060   2.846   6.140   9.620
    1ECLIPH113R 8061   2.752   6.184   9.582
    1ECLIPH113S 8062   2.914   6.226   9.643
    1ECLIP C114 8063   2.910   6.055   9.510
    1ECLIPH114R 8064   2.994   5.996   9.551
    1ECLIPH114S 8065   2.834   5.987   9.467
    1ECLIPH114T 8066   2.948   6.120   9.429
    2AKDO    C1 8067   2.624   5.562  12.048
    2AKDO   O11 8068   2.671   5.447  12.067
    2AKDO   O12 8069   2.502   5.595  12.055
    2AKDO    C2 8070   2.724   5.680  12.073
    2AKDO    C6 8071   2.941   5.733  12.161
    2AKDO    H6 8072   2.957   5.791  12.068
    2AKDO    O6 8073   2.844   5.631  12.133
    2AKDO    C3 8074   2.667   5.785  12.169
    2AKDO   H31 8075   2.638   5.732  12.262
    2AKDO   H32 8076   2.576   5.828  12.122
    2AKDO    C4 8077   2.764   5.894  12.201
    2AKDO    H4 8078   2.793   5.944  12.105
    2AKDO    O4 8079   2.706   5.989  12.291
    2AKDO    C5 8080   2.890   5.836  12.264
    2AKDO    H5 8081   2.964   5.918  12.269
    2AKDO    O5 8082   2.864   5.788  12.399
    2AKDO    C7 8083   3.070   5.656  12.182
    2AKDO    H7 8084   3.059   5.586  12.268
    2AKDO    O7 8085   3.182   5.743  12.201
    2AKDO   HO7 8086   3.250   5.687  12.163
    2AKDO    C8 8087   3.096   5.574  12.055
    2AKDO   H81 8088   3.017   5.497  12.044
    2AKDO   H82 8089   3.089   5.640  11.966
    2AKDO    O8 8090   3.222   5.507  12.049
    2AKDO   HO8 8091   3.213   5.456  11.968
    3AKDO    C1 8092   2.658   6.190  12.140
    3AKDO   O11 8093   2.580   6.289  12.127
    3AKDO   O12 8094   2.767   6.172  12.078
    3AKDO    C2 8095   2.615   6.090  12.253
    3AKDO    C6 8096   2.422   5.955  12.316
    3AKDO    H6 8097   2.483   5.863  12.327
    3AKDO    O6 8098   2.481   6.044  12.220
    3AKDO    C3 8099   2.605   6.159  12.391
    3AKDO   H31 8100   2.541   6.249  12.381
    3AKDO   H32 8101   2.706   6.194  12.419
    3AKDO    C4 8102   2.550   6.067  12.495
    3AKDO    H4 8103   2.614   5.976  12.506
    3AKDO    O4 8104   2.549   6.133  12.621
    3AKDO   HO4 8105   2.631   6.114  12.667
    3AKDO    C5 8106   2.412   6.021  12.452
    3AKDO    H5 8107   2.379   5.944  12.525
    3AKDO    O5 8108   2.316   6.127  12.451
    3AKDO   HO5 8109   2.340   6.178  12.373
    3AKDO    C7 8110   2.285   5.914  12.259
    3AKDO    H7 8111   2.220   6.004  12.255
    3AKDO    O7 8112   2.224   5.817  12.345
    3AKDO   HO7 8113   2.252   5.732  12.309
    3AKDO    C8 8114   2.297   5.860  12.118
    3AKDO   H81 8115   2.355   5.931  12.054
    3AKDO   H82 8116   2.352   5.763  12.116
    3AKDO    O8 8117   2.168   5.843  12.058
    3AKDO   HO8 8118   2.146   5.749  12.064
    4AHEP    C1 8119   2.974   5.795  12.488
    4AHEP    H1 8120   3.056   5.735  12.444
    4AHEP    C5 8121   2.932   6.018  12.572
    4AHEP    H5 8122   2.839   6.015  12.512
    4AHEP    O5 8123   3.025   5.928  12.508
    4AHEP    C2 8124   2.944   5.737  12.626
    4AHEP    H2 8125   2.894   5.640  12.608
    4AHEP    O2 8126   3.065   5.709  12.699
    4AHEP   HO2 8127   3.045   5.638  12.760
    4AHEP    C3 8128   2.846   5.825  12.703
    4AHEP    H3 8129   2.749   5.823  12.649
    4AHEP    O3 8130   2.830   5.769  12.836
    4AHEP    C4 8131   2.899   5.967  12.714
    4AHEP    H4 8132   2.990   5.968  12.779
    4AHEP    O4 8133   2.794   6.049  12.766
    4AHEP    P4 8134   2.799   6.166  12.881
    4AHEP  OP42 8135   2.667   6.155  12.957
    4AHEP  OP43 8136   2.810   6.296  12.806
    4AHEP  OP44 8137   2.920   6.144  12.969
    4AHEP    C6 8138   2.985   6.163  12.564
    4AHEP    H6 8139   2.897   6.231  12.570
    4AHEP    O6 8140   3.072   6.194  12.675
    4AHEP   HO6 8141   3.012   6.191  12.751
    4AHEP    C7 8142   3.060   6.192  12.434
    4AHEP   H71 8143   3.087   6.299  12.429
    4AHEP   H72 8144   2.993   6.170  12.348
    4AHEP    O7 8145   3.179   6.113  12.420
    4AHEP   HO7 8146   3.146   6.025  12.440
    5AHEP    C1 8147   2.706   5.791  12.900
    5AHEP    H1 8148   2.648   5.866  12.843
    5AHEP    C5 8149   2.683   5.565  12.980
    5AHEP    H5 8150   2.782   5.542  12.937
    5AHEP    O5 8151   2.624   5.673  12.904
    5AHEP    C2 8152   2.724   5.843  13.042
    5AHEP    H2 8153   2.806   5.919  13.037
    5AHEP    O2 8154   2.611   5.917  13.088
    5AHEP   HO2 8155   2.623   6.004  13.050
    5AHEP    C3 8156   2.784   5.735  13.132
    5AHEP    H3 8157   2.888   5.714  13.098
    5AHEP    O3 8158   2.781   5.763  13.273
    5AHEP    C4 8159   2.700   5.610  13.125
    5AHEP    H4 8160   2.601   5.625  13.174
    5AHEP    O4 8161   2.778   5.507  13.186
    5AHEP    P4 8162   2.746   5.437  13.330
    5AHEP  OP42 8163   2.872   5.355  13.357
    5AHEP  OP43 8164   2.620   5.357  13.309
    5AHEP  OP44 8165   2.727   5.547  13.432
    5AHEP    C6 8166   2.596   5.438  12.967
    5AHEP    H6 8167   2.644   5.358  13.027
    5AHEP    O6 8168   2.466   5.462  13.023
    5AHEP   HO6 8169   2.477   5.431  13.113
    5AHEP    C7 8170   2.587   5.388  12.822
    5AHEP   H71 8171   2.598   5.278  12.830
    5AHEP   H72 8172   2.672   5.424  12.762
    5AHEP    O7 8173   2.462   5.406  12.752
    6AHEP    C1 8174   2.454   5.531  12.688
    6AHEP    H1 8175   2.543   5.594  12.712
    6AHEP    C5 8176   2.341   5.445  12.493
    6AHEP    H5 8177   2.349   5.341  12.532
    6AHEP    O5 8178   2.451   5.523  12.545
    6AHEP    C2 8179   2.329   5.601  12.735
    6AHEP    H2 8180   2.330   5.607  12.846
    6AHEP    O2 8181   2.326   5.735  12.682
    6AHEP   HO2 8182   2.362   5.724  12.594
    6AHEP    C3 8183   2.208   5.519  12.691
    6AHEP    H3 8184   2.217   5.417  12.735
    6AHEP    O3 8185   2.084   5.575  12.735
    6AHEP   HO3 8186   2.020   5.529  12.681
    6AHEP    C4 8187   2.210   5.507  12.540
    6AHEP    H4 8188   2.200   5.608  12.495
    6AHEP    O4 8189   2.097   5.429  12.497
    6AHEP   HO4 8190   2.082   5.438  12.402
    6AHEP    C6 8191   2.348   5.440  12.340
    6AHEP    H6 8192   2.256   5.393  12.301
    6AHEP    O6 8193   2.356   5.573  12.285
    6AHEP   HO6 8194   2.417   5.565  12.211
    6AHEP    C7 8195   2.463   5.356  12.288
    6AHEP   H71 8196   2.456   5.347  12.177
    6AHEP   H72 8197   2.448   5.254  12.329
    6AHEP    O7 8198   2.594   5.401  12.323
    6AHEP   HO7 8199   2.631   5.429  12.239
    7AGLC    C1 8200   2.882   5.837  13.333
    7AGLC    H1 8201   2.980   5.813  13.287
    7AGLC    C5 8202   2.721   6.007  13.372
    7AGLC    H5 8203   2.644   5.939  13.330
    7AGLC    O5 8204   2.851   5.976  13.318
    7AGLC    C2 8205   2.887   5.808  13.484
    7AGLC    H2 8206   2.963   5.876  13.527
    7AGLC    O2 8207   2.935   5.677  13.514
    7AGLC   HO2 8208   2.866   5.618  13.483
    7AGLC    C3 8209   2.754   5.836  13.553
    7AGLC    H3 8210   2.676   5.773  13.506
    7AGLC    O3 8211   2.759   5.811  13.697
    7AGLC    C4 8212   2.724   5.982  13.522
    7AGLC    H4 8213   2.807   6.043  13.563
    7AGLC    O4 8214   2.603   6.032  13.580
    7AGLC   HO4 8215   2.603   6.126  13.559
    7AGLC    C6 8216   2.684   6.147  13.329
    7AGLC   H61 8217   2.704   6.158  13.220
    7AGLC   H62 8218   2.575   6.162  13.343
    7AGLC    O6 8219   2.756   6.247  13.402
    7AGLC   HO6 8220   2.838   6.261  13.354
    8AGLC    C1 8221   2.664   5.716  13.744
    8AGLC    H1 8222   2.567   5.729  13.690
    8AGLC    C5 8223   2.823   5.540  13.793
    8AGLC    H5 8224   2.905   5.608  13.763
    8AGLC    O5 8225   2.703   5.580  13.726
    8AGLC    C2 8226   2.641   5.729  13.895
    8AGLC    H2 8227   2.560   5.658  13.922
    8AGLC    O2 8228   2.605   5.860  13.939
    8AGLC    C3 8229   2.765   5.693  13.975
    8AGLC    H3 8230   2.847   5.758  13.938
    8AGLC    O3 8231   2.746   5.727  14.116
    8AGLC    C4 8232   2.802   5.551  13.944
    8AGLC    H4 8233   2.720   5.482  13.972
    8AGLC    O4 8234   2.921   5.513  14.013
    8AGLC   HO4 8235   2.955   5.443  13.957
    8AGLC    C6 8236   2.854   5.400  13.740
    8AGLC   H61 8237   2.769   5.362  13.680
    8AGLC   H62 8238   2.938   5.409  13.667
    8AGLC    O6 8239   2.889   5.303  13.840
    8AGLC   HO6 8240   2.906   5.221  13.794
    9AGAL    C1 8241   2.496   5.921  13.877
    9AGAL    H1 8242   2.504   5.919  13.766
    9AGAL    C5 8243   2.357   5.851  14.058
    9AGAL    H5 8244   2.443   5.795  14.101
    9AGAL    O5 8245   2.372   5.861  13.916
    9AGAL    C2 8246   2.503   6.063  13.928
    9AGAL    H2 8247   2.421   6.122  13.881
    9AGAL    O2 8248   2.629   6.110  13.876
    9AGAL    C3 8249   2.486   6.062  14.079
    9AGAL    H3 8250   2.571   6.007  14.124
    9AGAL    O3 8251   2.486   6.195  14.133
    9AGAL   HO3 8252   2.402   6.231  14.104
    9AGAL    C4 8253   2.356   5.992  14.118
    9AGAL    H4 8254   2.352   5.982  14.228
    9AGAL    O4 8255   2.239   6.062  14.076
    9AGAL   HO4 8256   2.196   6.001  14.016
    9AGAL    C6 8257   2.233   5.767  14.085
    9AGAL   H61 8258   2.255   5.662  14.055
    9AGAL   H62 8259   2.210   5.767  14.194
    9AGAL    O6 8260   2.118   5.811  14.012
    9AGAL   HO6 8261   2.123   5.768  13.927
   10AGAL    C1 8262   2.699   6.223  13.920
   10AGAL    H1 8263   2.628   6.309  13.925
   10AGAL    C5 8264   2.848   6.084  14.042
   10AGAL    H5 8265   2.788   5.997  14.009
   10AGAL    O5 8266   2.764   6.203  14.047
   10AGAL    C2 8267   2.808   6.250  13.816
   10AGAL    H2 8268   2.871   6.335  13.851
   10AGAL    O2 8269   2.748   6.292  13.693
   10AGAL   HO2 8270   2.806   6.276  13.618
   10AGAL    C3 8271   2.900   6.129  13.803
   10AGAL    H3 8272   2.843   6.039  13.770
   10AGAL    O3 8273   3.006   6.157  13.711
   10AGAL   HO3 8274   2.993   6.124  13.622
   10AGAL    C4 8275   2.961   6.099  13.939
   10AGAL    H4 8276   3.011   6.000  13.931
   10AGAL    O4 8277   3.062   6.192  13.976
   10AGAL   HO4 8278   3.112   6.204  13.895
   10AGAL    C6 8279   2.895   6.050  14.183
   10AGAL   H61 8280   2.810   6.006  14.239
   10AGAL   H62 8281   2.975   5.973  14.179
   10AGAL    O6 8282   2.941   6.165  14.256
   10AGAL   HO6 8283   3.037   6.165  14.260
   11BGLC    C1 8284   2.695   5.629  14.203
   11BGLC    H1 8285   2.764   5.542  14.208
   11BGLC    C5 8286   2.512   5.480  14.249
   11BGLC    H5 8287   2.585   5.397  14.249
   11BGLC    O5 8288   2.564   5.585  14.164
   11BGLC    C2 8289   2.682   5.691  14.342
   11BGLC    H2 8290   2.609   5.774  14.334
   11BGLC    O2 8291   2.805   5.748  14.389
   11BGLC   HO2 8292   2.877   5.707  14.340
   11BGLC    C3 8293   2.629   5.589  14.441
   11BGLC    H3 8294   2.702   5.507  14.457
   11BGLC    O3 8295   2.595   5.655  14.563
   11BGLC    C4 8296   2.498   5.537  14.389
   11BGLC    H4 8297   2.425   5.621  14.384
   11BGLC    O4 8298   2.442   5.439  14.477
   11BGLC   HO4 8299   2.509   5.375  14.502
   11BGLC    C6 8300   2.379   5.427  14.198
   11BGLC   H61 8301   2.358   5.328  14.244
   11BGLC   H62 8302   2.298   5.496  14.228
   11BGLC    O6 8303   2.373   5.414  14.056
   11BGLC   HO6 8304   2.422   5.337  14.026
   12BGLCN   C1 8305   2.672   5.628  14.676
   12BGLCN   H1 8306   2.777   5.662  14.658
   12BGLCN   C5 8307   2.748   5.463  14.828
   12BGLCN   H5 8308   2.852   5.496  14.806
   12BGLCN   O5 8309   2.669   5.490  14.711
   12BGLCN   C2 8310   2.608   5.709  14.787
   12BGLCN   H2 8311   2.506   5.667  14.802
   12BGLCN    N 8312   2.595   5.847  14.741
   12BGLCN   HN 8313   2.672   5.881  14.687
   12BGLCN    C 8314   2.482   5.919  14.743
   12BGLCN    O 8315   2.386   5.893  14.815
   12BGLCN   CT 8316   2.479   6.040  14.654
   12BGLCN  HT1 8317   2.407   6.113  14.696
   12BGLCN  HT2 8318   2.446   6.010  14.553
   12BGLCN  HT3 8319   2.580   6.086  14.648
   12BGLCN   C3 8320   2.686   5.691  14.916
   12BGLCN   H3 8321   2.787   5.736  14.907
   12BGLCN   O3 8322   2.610   5.755  15.022
   12BGLCN   C4 8323   2.691   5.542  14.945
   12BGLCN   H4 8324   2.588   5.506  14.966
   12BGLCN   O4 8325   2.772   5.516  15.060
   12BGLCN  HO4 8326   2.864   5.517  15.035
   12BGLCN   C6 8327   2.750   5.313  14.853
   12BGLCN  H61 8328   2.823   5.287  14.932
   12BGLCN  H62 8329   2.649   5.282  14.890
   12BGLCN   O6 8330   2.777   5.234  14.737
   12BGLCN  HO6 8331   2.871   5.232  14.714
   13AGAL    C1 8332   2.681   5.819  15.126
   13AGAL    H1 8333   2.767   5.756  15.157
   13AGAL    C5 8334   2.620   6.037  15.047
   13AGAL    H5 8335   2.555   5.979  14.977
   13AGAL    O5 8336   2.728   5.949  15.083
   13AGAL    C2 8337   2.589   5.842  15.248
   13AGAL    H2 8338   2.652   5.893  15.324
   13AGAL    O2 8339   2.540   5.720  15.306
   13AGAL    C3 8340   2.474   5.934  15.213
   13AGAL    H3 8341   2.418   5.888  15.129
   13AGAL    O3 8342   2.381   5.951  15.319
   13AGAL   HO3 8343   2.303   5.899  15.298
   13AGAL    C4 8344   2.531   6.067  15.167
   13AGAL    H4 8345   2.447   6.132  15.136
   13AGAL    O4 8346   2.606   6.135  15.269
   13AGAL   HO4 8347   2.689   6.088  15.281
   13AGAL    C6 8348   2.666   6.157  14.965
   13AGAL   H61 8349   2.760   6.132  14.911
   13AGAL   H62 8350   2.589   6.179  14.888
   13AGAL    O6 8351   2.685   6.276  15.042
   13AGAL   HO6 8352   2.670   6.254  15.134
   14ARHM    C1 8353   2.584   5.690  15.437
   14ARHM    H1 8354   2.689   5.724  15.447
   14ARHM    C5 8355   2.459   5.491  15.447
   14ARHM    H5 8356   2.416   5.511  15.346
   14ARHM    O5 8357   2.589   5.549  15.458
   14ARHM    C2 8358   2.499   5.754  15.545
   14ARHM    H2 8359   2.493   5.864  15.527
   14ARHM    O2 8360   2.550   5.733  15.677
   14ARHM    C3 8361   2.359   5.697  15.538
   14ARHM    H3 8362   2.316   5.718  15.438
   14ARHM    O3 8363   2.273   5.753  15.637
   14ARHM   HO3 8364   2.195   5.696  15.634
   14ARHM    C4 8365   2.367   5.546  15.555
   14ARHM    H4 8366   2.412   5.523  15.654
   14ARHM    O4 8367   2.237   5.488  15.549
   14ARHM   HO4 8368   2.240   5.393  15.560
   14ARHM    C6 8369   2.484   5.341  15.459
   14ARHM   H61 8370   2.560   5.309  15.384
   14ARHM   H62 8371   2.523   5.316  15.560
   14ARHM   H63 8372   2.391   5.285  15.441
   15ARHM    C1 8373   2.677   5.787  15.702
   15ARHM    H1 8374   2.697   5.872  15.633
   15ARHM    C5 8375   2.766   5.579  15.781
   15ARHM    H5 8376   2.672   5.525  15.759
   15ARHM    O5 8377   2.781   5.689  15.689
   15ARHM    C2 8378   2.675   5.840  15.843
   15ARHM    H2 8379   2.594   5.915  15.852
   15ARHM    O2 8380   2.802   5.905  15.861
   15ARHM    C3 8381   2.649   5.727  15.939
   15ARHM    H3 8382   2.555   5.676  15.908
   15ARHM    O3 8383   2.629   5.779  16.071
   15ARHM    C4 8384   2.763   5.628  15.926
   15ARHM    H4 8385   2.859   5.680  15.947
   15ARHM    O4 8386   2.752   5.521  16.019
   15ARHM   HO4 8387   2.811   5.451  15.991
   15ARHM    C6 8388   2.884   5.484  15.753
   15ARHM   H61 8389   2.877   5.391  15.814
   15ARHM   H62 8390   2.884   5.455  15.646
   15ARHM   H63 8391   2.980   5.534  15.775
   16BMANN   C1 8392   2.829   5.962  15.986
   16BMANN   H1 8393   2.849   5.881  16.060
   16BMANN   C5 8394   2.750   6.103  16.159
   16BMANN   H5 8395   2.768   6.021  16.233
   16BMANN   O5 8396   2.722   6.046  16.031
   16BMANN   C2 8397   2.953   6.046  15.966
   16BMANN   H2 8398   3.034   5.978  15.934
   16BMANN    N 8399   2.929   6.143  15.860
   16BMANN   HN 8400   2.835   6.174  15.851
   16BMANN    C 8401   3.019   6.184  15.770
   16BMANN    O 8402   3.136   6.147  15.769
   16BMANN   CT 8403   2.966   6.278  15.665
   16BMANN  HT1 8404   3.045   6.350  15.636
   16BMANN  HT2 8405   2.878   6.334  15.704
   16BMANN  HT3 8406   2.935   6.220  15.575
   16BMANN   C3 8407   2.991   6.106  16.100
   16BMANN   H3 8408   3.007   6.023  16.172
   16BMANN   O3 8409   3.113   6.178  16.092
   16BMANN  HO3 8410   3.161   6.169  16.174
   16BMANN   C4 8411   2.875   6.191  16.151
   16BMANN   H4 8412   2.856   6.273  16.079
   16BMANN   O4 8413   2.901   6.249  16.279
   16BMANN  HO4 8414   2.858   6.334  16.283
   16BMANN   C6 8415   2.627   6.179  16.202
   16BMANN  H61 8416   2.646   6.223  16.302
   16BMANN  H62 8417   2.605   6.260  16.130
   16BMANN   O6 8418   2.512   6.095  16.214
   16BMANN  HO6 8419   2.501   6.046  16.132
   17BGLCN   C1 8420   2.531   5.712  16.146
   17BGLCN   H1 8421   2.535   5.603  16.126
   17BGLCN   C5 8422   2.297   5.698  16.200
   17BGLCN   H5 8423   2.298   5.589  16.179
   17BGLCN   O5 8424   2.399   5.763  16.120
   17BGLCN   C2 8425   2.565   5.741  16.290
   17BGLCN   H2 8426   2.544   5.849  16.306
   17BGLCN    N 8427   2.706   5.725  16.318
   17BGLCN   HN 8428   2.757   5.669  16.252
   17BGLCN    C 8429   2.770   5.786  16.419
   17BGLCN    O 8430   2.713   5.860  16.498
   17BGLCN   CT 8431   2.917   5.758  16.431
   17BGLCN  HT1 8432   2.974   5.837  16.378
   17BGLCN  HT2 8433   2.942   5.659  16.389
   17BGLCN  HT3 8434   2.946   5.761  16.539
   17BGLCN   C3 8435   2.467   5.663  16.377
   17BGLCN   H3 8436   2.468   5.558  16.339
   17BGLCN   O3 8437   2.505   5.659  16.516
   17BGLCN   C4 8438   2.329   5.719  16.348
   17BGLCN   H4 8439   2.330   5.828  16.368
   17BGLCN   O4 8440   2.228   5.662  16.430
   17BGLCN  HO4 8441   2.224   5.714  16.511
   17BGLCN   C6 8442   2.163   5.754  16.156
   17BGLCN  H61 8443   2.082   5.713  16.221
   17BGLCN  H62 8444   2.163   5.865  16.167
   17BGLCN   O6 8445   2.135   5.719  16.021
   17BGLCN  HO6 8446   2.205   5.752  15.965
   18AGAL    C1 8447   2.474   5.539  16.586
   18AGAL    H1 8448   2.364   5.529  16.597
   18AGAL    C5 8449   2.667   5.422  16.503
   18AGAL    H5 8450   2.692   5.517  16.451
   18AGAL    O5 8451   2.523   5.420  16.520
   18AGAL    C2 8452   2.537   5.543  16.724
   18AGAL    H2 8453   2.510   5.446  16.772
   18AGAL    O2 8454   2.482   5.649  16.803
   18AGAL    C3 8455   2.688   5.551  16.711
   18AGAL    H3 8456   2.712   5.641  16.650
   18AGAL    O3 8457   2.756   5.568  16.836
   18AGAL   HO3 8458   2.800   5.653  16.833
   18AGAL    C4 8459   2.738   5.428  16.637
   18AGAL    H4 8460   2.847   5.440  16.619
   18AGAL    O4 8461   2.720   5.308  16.713
   18AGAL   HO4 8462   2.741   5.329  16.804
   18AGAL    C6 8463   2.720   5.313  16.409
   18AGAL   H61 8464   2.772   5.361  16.324
   18AGAL   H62 8465   2.794   5.251  16.463
   18AGAL    O6 8466   2.619   5.228  16.356
   18AGAL   HO6 8467   2.590   5.171  16.428
   19ARHM    C1 8468   2.471   5.617  16.939
   19ARHM    H1 8469   2.551   5.546  16.969
   19ARHM    C5 8470   2.233   5.640  16.937
   19ARHM    H5 8471   2.237   5.665  16.829
   19ARHM    O5 8472   2.345   5.557  16.971
   19ARHM    C2 8473   2.485   5.746  17.017
   19ARHM    H2 8474   2.576   5.798  16.978
   19ARHM    O2 8475   2.502   5.725  17.159
   19ARHM    C3 8476   2.370   5.840  16.987
   19ARHM    H3 8477   2.372   5.867  16.880
   19ARHM    O3 8478   2.385   5.960  17.063
   19ARHM   HO3 8479   2.376   5.936  17.156
   19ARHM    C4 8480   2.240   5.769  17.019
   19ARHM    H4 8481   2.239   5.741  17.126
   19ARHM    O4 8482   2.124   5.850  16.996
   19ARHM   HO4 8483   2.120   5.875  16.903
   19ARHM    C6 8484   2.108   5.555  16.963
   19ARHM   H61 8485   2.113   5.461  16.903
   19ARHM   H62 8486   2.100   5.528  17.070
   19ARHM   H63 8487   2.017   5.611  16.932
   20ARHM    C1 8488   2.629   5.671  17.190
   20ARHM    H1 8489   2.703   5.698  17.112
   20ARHM    C5 8490   2.539   5.481  17.303
   20ARHM    H5 8491   2.435   5.515  17.280
   20ARHM    O5 8492   2.627   5.528  17.201
   20ARHM    C2 8493   2.673   5.729  17.322
   20ARHM    H2 8494   2.665   5.840  17.317
   20ARHM    O2 8495   2.809   5.694  17.351
   20ARHM    C3 8496   2.583   5.684  17.434
   20ARHM    H3 8497   2.480   5.722  17.416
   20ARHM    O3 8498   2.635   5.738  17.556
   20ARHM    C4 8499   2.582   5.533  17.439
   20ARHM    H4 8500   2.686   5.498  17.458
   20ARHM    O4 8501   2.499   5.483  17.543
   20ARHM   HO4 8502   2.407   5.496  17.520
   20ARHM    C6 8503   2.542   5.328  17.293
   20ARHM   H61 8504   2.646   5.291  17.308
   20ARHM   H62 8505   2.477   5.283  17.371
   20ARHM   H63 8506   2.507   5.295  17.193
   21BMANN   C1 8507   2.904   5.761  17.273
   21BMANN   H1 8508   2.857   5.838  17.208
   21BMANN   C5 8509   3.080   5.736  17.113
   21BMANN   H5 8510   3.031   5.809  17.046
   21BMANN   O5 8511   2.980   5.669  17.193
   21BMANN   C2 8512   2.997   5.828  17.372
   21BMANN   H2 8513   2.935   5.901  17.429
   21BMANN    N 8514   3.051   5.733  17.469
   21BMANN   HN 8515   3.043   5.637  17.442
   21BMANN    C 8516   3.099   5.765  17.589
   21BMANN    O 8517   3.105   5.882  17.627
   21BMANN   CT 8518   3.147   5.652  17.676
   21BMANN  HT1 8519   3.257   5.639  17.663
   21BMANN  HT2 8520   3.095   5.558  17.650
   21BMANN  HT3 8521   3.126   5.677  17.783
   21BMANN   C3 8522   3.101   5.905  17.294
   21BMANN   H3 8523   3.048   5.976  17.227
   21BMANN   O3 8524   3.184   5.982  17.380
   21BMANN  HO3 8525   3.166   5.955  17.470
   21BMANN   C4 8526   3.178   5.809  17.205
   21BMANN   H4 8527   3.230   5.733  17.269
   21BMANN   O4 8528   3.278   5.876  17.129
   21BMANN  HO4 8529   3.273   5.970  17.147
   21BMANN   C6 8530   3.147   5.630  17.027
   21BMANN  H61 8531   3.228   5.676  16.967
   21BMANN  H62 8532   3.193   5.552  17.091
   21BMANN   O6 8533   3.055   5.569  16.937
   21BMANN  HO6 8534   2.977   5.541  16.984
   22BGLCN   C1 8535   2.541   5.771  17.655
   22BGLCN   H1 8536   2.449   5.709  17.646
   22BGLCN   C5 8537   2.421   5.950  17.753
   22BGLCN   H5 8538   2.329   5.888  17.749
   22BGLCN   O5 8539   2.510   5.910  17.648
   22BGLCN   C2 8540   2.614   5.742  17.784
   22BGLCN   H2 8541   2.704   5.806  17.787
   22BGLCN    N 8542   2.657   5.603  17.786
   22BGLCN   HN 8543   2.606   5.541  17.726
   22BGLCN    C 8544   2.769   5.558  17.844
   22BGLCN    O 8545   2.845   5.630  17.908
   22BGLCN   CT 8546   2.798   5.411  17.828
   22BGLCN  HT1 8547   2.848   5.395  17.730
   22BGLCN  HT2 8548   2.704   5.352  17.833
   22BGLCN  HT3 8549   2.867   5.379  17.910
   22BGLCN   C3 8550   2.525   5.781  17.902
   22BGLCN   H3 8551   2.433   5.720  17.897
   22BGLCN   O3 8552   2.598   5.748  18.021
   22BGLCN   C4 8553   2.488   5.928  17.888
   22BGLCN   H4 8554   2.582   5.988  17.891
   22BGLCN   O4 8555   2.402   5.974  17.992
   22BGLCN  HO4 8556   2.414   6.069  18.002
   22BGLCN   C6 8557   2.383   6.094  17.724
   22BGLCN  H61 8558   2.319   6.134  17.806
   22BGLCN  H62 8559   2.474   6.157  17.718
   22BGLCN   O6 8560   2.308   6.104  17.603
   22BGLCN  HO6 8561   2.363   6.075  17.530
   23AGAL    C1 8562   2.530   5.743  18.145
   23AGAL    H1 8563   2.501   5.845  18.176
   23AGAL    C5 8564   2.444   5.523  18.107
   23AGAL    H5 8565   2.501   5.523  18.012
   23AGAL    O5 8566   2.412   5.660  18.139
   23AGAL    C2 8567   2.626   5.689  18.251
   23AGAL    H2 8568   2.574   5.693  18.349
   23AGAL    O2 8569   2.747   5.766  18.258
   23AGAL    C3 8570   2.661   5.544  18.221
   23AGAL    H3 8571   2.713   5.541  18.123
   23AGAL    O3 8572   2.751   5.489  18.317
   23AGAL   HO3 8573   2.700   5.462  18.393
   23AGAL    C4 8574   2.534   5.462  18.214
   23AGAL    H4 8575   2.559   5.359  18.183
   23AGAL    O4 8576   2.468   5.455  18.340
   23AGAL   HO4 8577   2.375   5.442  18.321
   23AGAL    C6 8578   2.316   5.444  18.078
   23AGAL   H61 8579   2.258   5.496  17.999
   23AGAL   H62 8580   2.345   5.345  18.037
   23AGAL    O6 8581   2.233   5.424  18.193
   23AGAL   HO6 8582   2.172   5.498  18.199
   24ARHM    C1 8583   2.749   5.875  18.347
   24ARHM    H1 8584   2.645   5.913  18.360
   24ARHM    C5 8585   2.964   5.951  18.279
   24ARHM    H5 8586   2.973   5.868  18.205
   24ARHM    O5 8587   2.825   5.985  18.295
   24ARHM    C2 8588   2.802   5.828  18.482
   24ARHM    H2 8589   2.748   5.735  18.510
   24ARHM    O2 8590   2.782   5.925  18.586
   24ARHM    C3 8591   2.947   5.789  18.467
   24ARHM    H3 8592   2.954   5.705  18.394
   24ARHM    O3 8593   3.000   5.742  18.591
   24ARHM   HO3 8594   3.014   5.817  18.648
   24ARHM    C4 8595   3.026   5.906  18.411
   24ARHM    H4 8596   3.019   5.991  18.483
   24ARHM    O4 8597   3.163   5.873  18.391
   24ARHM   HO4 8598   3.220   5.944  18.420
   24ARHM    C6 8599   3.032   6.076  18.220
   24ARHM   H61 8600   3.142   6.060  18.211
   24ARHM   H62 8601   2.992   6.099  18.119
   24ARHM   H63 8602   3.015   6.163  18.287
   25ARHM    C1 8603   2.652   5.923  18.642
   25ARHM    H1 8604   2.583   5.872  18.571
   25ARHM    C5 8605   2.661   6.128  18.762
   25ARHM    H5 8606   2.769   6.139  18.737
   25ARHM    O5 8607   2.595   6.053  18.659
   25ARHM    C2 8608   2.651   5.842  18.770
   25ARHM    H2 8609   2.704   5.746  18.755
   25ARHM    O2 8610   2.517   5.817  18.814
   25ARHM    C3 8611   2.721   5.919  18.879
   25ARHM    H3 8612   2.826   5.937  18.848
   25ARHM    O3 8613   2.721   5.838  18.997
   25ARHM    C4 8614   2.649   6.052  18.895
   25ARHM    H4 8615   2.541   6.032  18.914
   25ARHM    O4 8616   2.696   6.129  19.006
   25ARHM   HO4 8617   2.634   6.200  19.022
   25ARHM    C6 8618   2.599   6.268  18.764
   25ARHM   H61 8619   2.608   6.315  18.663
   25ARHM   H62 8620   2.491   6.263  18.791
   25ARHM   H63 8621   2.651   6.333  18.837
   26BMANN   C1 8622   2.451   5.709  18.755
   26BMANN   H1 8623   2.522   5.634  18.714
   26BMANN   C5 8624   2.281   5.649  18.597
   26BMANN   H5 8625   2.352   5.575  18.554
   26BMANN   O5 8626   2.359   5.756  18.654
   26BMANN   C2 8627   2.369   5.650  18.868
   26BMANN   H2 8628   2.443   5.613  18.942
   26BMANN    N 8629   2.288   5.751  18.933
   26BMANN   HN 8630   2.270   5.833  18.879
   26BMANN    C 8631   2.244   5.743  19.059
   26BMANN    O 8632   2.270   5.648  19.132
   26BMANN   CT 8633   2.161   5.859  19.108
   26BMANN  HT1 8634   2.108   5.907  19.023
   26BMANN  HT2 8635   2.226   5.933  19.158
   26BMANN  HT3 8636   2.085   5.821  19.180
   26BMANN   C3 8637   2.291   5.532  18.814
   26BMANN   H3 8638   2.363   5.460  18.769
   26BMANN   O3 8639   2.221   5.462  18.916
   26BMANN  HO3 8640   2.227   5.512  18.998
   26BMANN   C4 8641   2.198   5.581  18.705
   26BMANN   H4 8642   2.127   5.654  18.749
   26BMANN   O4 8643   2.122   5.473  18.651
   26BMANN  HO4 8644   2.111   5.411  18.723
   26BMANN   C6 8645   2.199   5.704  18.481
   26BMANN  H61 8646   2.259   5.780  18.426
   26BMANN  H62 8647   2.177   5.622  18.410
   26BMANN   O6 8648   2.075   5.762  18.522
   26BMANN  HO6 8649   2.017   5.691  18.550
   27BGLCN   C1 8650   2.834   5.852  19.078
   27BGLCN   H1 8651   2.874   5.955  19.072
   27BGLCN   C5 8652   3.051   5.768  19.130
   27BGLCN   H5 8653   3.089   5.873  19.125
   27BGLCN   O5 8654   2.936   5.757  19.044
   27BGLCN   C2 8655   2.784   5.824  19.218
   27BGLCN   H2 8656   2.746   5.719  19.220
   27BGLCN    N 8657   2.674   5.914  19.248
   27BGLCN   HN 8658   2.672   5.997  19.193
   27BGLCN    C 8659   2.573   5.887  19.332
   27BGLCN    O 8660   2.561   5.782  19.393
   27BGLCN   CT 8661   2.471   5.996  19.347
   27BGLCN  HT1 8662   2.480   6.070  19.265
   27BGLCN  HT2 8663   2.487   6.047  19.445
   27BGLCN  HT3 8664   2.369   5.951  19.346
   27BGLCN   C3 8665   2.900   5.836  19.315
   27BGLCN   H3 8666   2.940   5.939  19.303
   27BGLCN   O3 8667   2.846   5.821  19.449
   27BGLCN   C4 8668   3.010   5.740  19.274
   27BGLCN   H4 8669   2.972   5.636  19.281
   27BGLCN   O4 8670   3.124   5.752  19.359
   27BGLCN  HO4 8671   3.139   5.845  19.378
   27BGLCN   C6 8672   3.160   5.676  19.076
   27BGLCN  H61 8673   3.234   5.654  19.156
   27BGLCN  H62 8674   3.116   5.579  19.044
   27BGLCN   O6 8675   3.232   5.736  18.966
   27BGLCN  HO6 8676   3.218   5.683  18.887
   28AGAL    C1 8677   2.929   5.854   0.086
   28AGAL    H1 8678   3.002   5.772   0.102
   28AGAL    C5 8679   2.914   6.091   0.052
   28AGAL    H5 8680   2.839   6.071  19.445
   28AGAL    O5 8681   3.001   5.976   0.062
   28AGAL    C2 8682   2.852   5.871   0.217
   28AGAL    H2 8683   2.932   5.899   0.289
   28AGAL    O2 8684   2.788   5.751   0.266
   28AGAL    C3 8685   2.754   5.987   0.207
   28AGAL    H3 8686   2.685   5.966   0.122
   28AGAL    O3 8687   2.675   6.001   0.325
   28AGAL   HO3 8688   2.582   5.990   0.304
   28AGAL    C4 8689   2.833   6.114   0.179
   28AGAL    H4 8690   2.760   6.195   0.160
   28AGAL    O4 8691   2.911   6.153   0.292
   28AGAL   HO4 8692   2.855   6.132   0.368
   28AGAL    C6 8693   2.994   6.211   0.003
   28AGAL   H61 8694   3.016   6.197  19.368
   28AGAL   H62 8695   2.933   6.303   0.012
   28AGAL    O6 8696   3.119   6.228   0.072
   28AGAL   HO6 8697   3.168   6.146   0.063
   29ARHM    C1 8698   2.814   5.730   0.404
   29ARHM    H1 8699   2.836   5.826   0.453
   29ARHM    C5 8700   2.900   5.510   0.371
   29ARHM    H5 8701   2.881   5.514   0.262
   29ARHM    O5 8702   2.925   5.641   0.422
   29ARHM    C2 8703   2.694   5.672   0.476
   29ARHM    H2 8704   2.607   5.739   0.457
   29ARHM    O2 8705   2.722   5.663   0.617
   29ARHM    C3 8706   2.661   5.535   0.422
   29ARHM    H3 8707   2.638   5.543   0.314
   29ARHM    O3 8708   2.545   5.481   0.487
   29ARHM   HO3 8709   2.536   5.392   0.452
   29ARHM    C4 8710   2.781   5.445   0.441
   29ARHM    H4 8711   2.804   5.436   0.549
   29ARHM    O4 8712   2.755   5.314   0.388
   29ARHM   HO4 8713   2.836   5.262   0.387
   29ARHM    C6 8714   3.031   5.435   0.397
   29ARHM   H61 8715   3.112   5.481   0.336
   29ARHM   H62 8716   3.057   5.439   0.505
   29ARHM   H63 8717   3.021   5.328   0.367
   30ARHM    C1 8718   2.668   5.768   0.693
   30ARHM    H1 8719   2.561   5.782   0.667
   30ARHM    C5 8720   2.876   5.887   0.715
   30ARHM    H5 8721   2.929   5.810   0.656
   30ARHM    O5 8722   2.737   5.892   0.675
   30ARHM    C2 8723   2.677   5.727   0.839
   30ARHM    H2 8724   2.631   5.627   0.851
   30ARHM    O2 8725   2.609   5.823   0.920
   30ARHM    C3 8726   2.821   5.717   0.884
   30ARHM    H3 8727   2.871   5.644   0.817
   30ARHM    O3 8728   2.832   5.662   1.017
   30ARHM    C4 8729   2.888   5.851   0.863
   30ARHM    H4 8730   2.837   5.930   0.922
   30ARHM    O4 8731   3.025   5.846   0.904
   30ARHM   HO4 8732   3.028   5.793   0.984
   30ARHM    C6 8733   2.934   6.024   0.680
   30ARHM   H61 8734   3.043   6.027   0.704
   30ARHM   H62 8735   2.922   6.044   0.572
   30ARHM   H63 8736   2.882   6.104   0.738
   31BMANN   C1 8737   2.472   5.801   0.945
   31BMANN   H1 8738   2.450   5.692   0.955
   31BMANN   C5 8739   2.248   5.854   0.879
   31BMANN   H5 8740   2.222   5.747   0.889
   31BMANN   O5 8741   2.389   5.864   0.847
   31BMANN   C2 8742   2.452   5.874   1.076
   31BMANN   H2 8743   2.515   5.825   1.153
   31BMANN    N 8744   2.497   6.013   1.063
   31BMANN   HN 8745   2.509   6.044   0.970
   31BMANN    C 8746   2.522   6.096   1.164
   31BMANN    O 8747   2.507   6.063   1.281
   31BMANN   CT 8748   2.570   6.233   1.126
   31BMANN  HT1 8749   2.506   6.276   1.046
   31BMANN  HT2 8750   2.675   6.228   1.089
   31BMANN  HT3 8751   2.567   6.300   1.215
   31BMANN   C3 8752   2.308   5.858   1.116
   31BMANN   H3 8753   2.285   5.749   1.117
   31BMANN   O3 8754   2.283   5.903   1.249
   31BMANN  HO3 8755   2.349   5.969   1.272
   31BMANN   C4 8756   2.221   5.922   1.012
   31BMANN   H4 8757   2.243   6.031   1.003
   31BMANN   O4 8758   2.084   5.910   1.050
   31BMANN  HO4 8759   2.085   5.914   1.146
   31BMANN   C6 8760   2.167   5.913   0.764
   31BMANN  H61 8761   2.063   5.932   0.798
   31BMANN  H62 8762   2.211   6.011   0.735
   31BMANN   O6 8763   2.162   5.827   0.650
   31BMANN  HO6 8764   2.123   5.743   0.676
   32BGLCN   C1 8765   2.817   5.749   1.127
   32BGLCN   H1 8766   2.741   5.827   1.105
   32BGLCN   C5 8767   2.923   5.907   1.270
   32BGLCN   H5 8768   2.848   5.983   1.242
   32BGLCN   O5 8769   2.940   5.814   1.161
   32BGLCN   C2 8770   2.771   5.666   1.245
   32BGLCN   H2 8771   2.856   5.601   1.275
   32BGLCN    N 8772   2.662   5.578   1.206
   32BGLCN   HN 8773   2.619   5.599   1.118
   32BGLCN    C 8774   2.633   5.460   1.263
   32BGLCN    O 8775   2.685   5.418   1.365
   32BGLCN   CT 8776   2.529   5.379   1.192
   32BGLCN  HT1 8777   2.457   5.446   1.139
   32BGLCN  HT2 8778   2.473   5.318   1.266
   32BGLCN  HT3 8779   2.578   5.312   1.118
   32BGLCN   C3 8780   2.743   5.764   1.359
   32BGLCN   H3 8781   2.672   5.840   1.320
   32BGLCN   O3 8782   2.684   5.706   1.477
   32BGLCN   C4 8783   2.874   5.832   1.393
   32BGLCN   H4 8784   2.949   5.755   1.420
   32BGLCN   O4 8785   2.860   5.920   1.503
   32BGLCN  HO4 8786   2.832   5.867   1.579
   32BGLCN   C6 8787   3.056   5.978   1.288
   32BGLCN  H61 8788   3.049   6.050   1.373
   32BGLCN  H62 8789   3.135   5.904   1.313
   32BGLCN   O6 8790   3.093   6.050   1.170
   32BGLCN  HO6 8791   3.096   5.988   1.097
   33AGAL    C1 8792   2.581   5.786   1.533
   33AGAL    H1 8793   2.602   5.894   1.519
   33AGAL    C5 8794   2.413   5.619   1.497
   33AGAL    H5 8795   2.491   5.551   1.457
   33AGAL    O5 8796   2.454   5.755   1.474
   33AGAL    C2 8797   2.572   5.760   1.683
   33AGAL    H2 8798   2.489   5.824   1.721
   33AGAL    O2 8799   2.693   5.802   1.748
   33AGAL    C3 8800   2.536   5.614   1.709
   33AGAL    H3 8801   2.613   5.551   1.659
   33AGAL    O3 8802   2.537   5.578   1.846
   33AGAL   HO3 8803   2.446   5.575   1.877
   33AGAL    C4 8804   2.401   5.586   1.645
   33AGAL    H4 8805   2.377   5.478   1.655
   33AGAL    O4 8806   2.296   5.660   1.705
   33AGAL   HO4 8807   2.239   5.688   1.633
   33AGAL    C6 8808   2.286   5.591   1.417
   33AGAL   H61 8809   2.308   5.599   1.309
   33AGAL   H62 8810   2.252   5.487   1.437
   33AGAL    O6 8811   2.180   5.682   1.449
   33AGAL   HO6 8812   2.199   5.765   1.405
   34ARHM    C1 8813   2.671   5.861   1.874
   34ARHM    H1 8814   2.599   5.801   1.933
   34ARHM    C5 8815   2.706   6.082   1.790
   34ARHM    H5 8816   2.718   6.045   1.686
   34ARHM    O5 8817   2.619   5.995   1.863
   34ARHM    C2 8818   2.804   5.866   1.948
   34ARHM    H2 8819   2.845   5.762   1.950
   34ARHM    O2 8820   2.796   5.913   2.084
   34ARHM    C3 8821   2.901   5.953   1.870
   34ARHM    H3 8822   2.914   5.910   1.768
   34ARHM    O3 8823   3.031   5.954   1.931
   34ARHM   HO3 8824   3.097   5.969   1.864
   34ARHM    C4 8825   2.842   6.092   1.857
   34ARHM    H4 8826   2.830   6.137   1.958
   34ARHM    O4 8827   2.924   6.179   1.778
   34ARHM   HO4 8828   3.015   6.181   1.810
   34ARHM    C6 8829   2.630   6.216   1.783
   34ARHM   H61 8830   2.612   6.256   1.885
   34ARHM   H62 8831   2.688   6.291   1.725
   34ARHM   H63 8832   2.531   6.202   1.733
   35ARHM    C1 8833   2.708   5.846   2.171
   35ARHM    H1 8834   2.712   5.736   2.152
   35ARHM    C5 8835   2.562   6.035   2.172
   35ARHM    H5 8836   2.625   6.087   2.096
   35ARHM    O5 8837   2.573   5.893   2.157
   35ARHM    C2 8838   2.755   5.877   2.312
   35ARHM    H2 8839   2.861   5.847   2.320
   35ARHM    O2 8840   2.681   5.812   2.417
   35ARHM    C3 8841   2.749   6.026   2.336
   35ARHM    H3 8842   2.818   6.076   2.264
   35ARHM    O3 8843   2.793   6.057   2.468
   35ARHM   HO3 8844   2.749   5.995   2.526
   35ARHM    C4 8845   2.607   6.075   2.312
   35ARHM    H4 8846   2.538   6.028   2.385
   35ARHM    O4 8847   2.598   6.217   2.326
   35ARHM   HO4 8848   2.680   6.254   2.292
   35ARHM    C6 8849   2.415   6.068   2.142
   35ARHM   H61 8850   2.389   6.036   2.039
   35ARHM   H62 8851   2.348   6.013   2.213
   35ARHM   H63 8852   2.396   6.177   2.152
   36BMANN   C1 8853   2.699   5.672   2.423
   36BMANN   H1 8854   2.800   5.644   2.386
   36BMANN   C5 8855   2.612   5.461   2.352
   36BMANN   H5 8856   2.713   5.437   2.312
   36BMANN   O5 8857   2.597   5.604   2.348
   36BMANN   C2 8858   2.683   5.632   2.568
   36BMANN   H2 8859   2.762   5.685   2.625
   36BMANN    N 8860   2.554   5.674   2.622
   36BMANN   HN 8861   2.482   5.688   2.554
   36BMANN    C 8862   2.527   5.691   2.752
   36BMANN    O 8863   2.614   5.680   2.839
   36BMANN   CT 8864   2.385   5.723   2.789
   36BMANN  HT1 8865   2.316   5.649   2.742
   36BMANN  HT2 8866   2.359   5.825   2.754
   36BMANN  HT3 8867   2.373   5.718   2.899
   36BMANN   C3 8868   2.707   5.483   2.578
   36BMANN   H3 8869   2.807   5.460   2.535
   36BMANN   O3 8870   2.712   5.441   2.714
   36BMANN  HO3 8871   2.677   5.510   2.770
   36BMANN   C4 8872   2.603   5.410   2.496
   36BMANN   H4 8873   2.502   5.430   2.537
   36BMANN   O4 8874   2.624   5.269   2.498
   36BMANN  HO4 8875   2.613   5.238   2.588
   36BMANN   C6 8876   2.511   5.401   2.256
   36BMANN  H61 8877   2.488   5.474   2.175
   36BMANN  H62 8878   2.555   5.313   2.205
   36BMANN   O6 8879   2.388   5.361   2.319
   36BMANN  HO6 8880   2.405   5.281   2.369
    1ECLIP HB6S 8881   2.155   2.854  11.849
    1ECLIP  OB6 8882   2.270   2.730  11.969
    1ECLIP  CB6 8883   2.262   2.841  11.876
    1ECLIP HB6R 8884   2.297   2.936  11.923
    1ECLIP  CB5 8885   2.338   2.830  11.746
    1ECLIP  OB5 8886   2.309   2.701  11.695
    1ECLIP  HB5 8887   2.447   2.839  11.767
    1ECLIP  CB1 8888   2.377   2.674  11.573
    1ECLIP  HB1 8889   2.487   2.667  11.591
    1ECLIP  OA6 8890   2.331   2.551  11.523
    1ECLIP  CA6 8891   2.191   2.529  11.552
    1ECLIP HA6R 8892   2.136   2.623  11.575
    1ECLIP HA6S 8893   2.183   2.464  11.641
    1ECLIP  CB4 8894   2.296   2.934  11.641
    1ECLIP  HB4 8895   2.191   2.914  11.612
    1ECLIP  OB4 8896   2.310   3.065  11.697
    1ECLIP   PB 8897   2.177   3.160  11.728
    1ECLIP OPB4 8898   2.221   3.267  11.828
    1ECLIP OPB3 8899   2.070   3.070  11.791
    1ECLIP OPB2 8900   2.130   3.217  11.596
    1ECLIP  CB3 8901   2.381   2.912  11.516
    1ECLIP  OB3 8902   2.347   3.004  11.411
    1ECLIP  HB3 8903   2.489   2.915  11.544
    1ECLIP  C71 8904   2.439   3.090  11.370
    1ECLIP  O71 8905   2.556   3.088  11.405
    1ECLIP  C72 8906   2.406   3.136  11.228
    1ECLIP H72R 8907   2.403   3.047  11.162
    1ECLIP H72S 8908   2.490   3.201  11.197
    1ECLIP  CB2 8909   2.349   2.773  11.463
    1ECLIP  HB2 8910   2.241   2.771  11.438
    1ECLIP  NB2 8911   2.425   2.736  11.343
    1ECLIP HNB2 8912   2.507   2.681  11.358
    1ECLIP  CA4 8913   2.212   2.388  11.345
    1ECLIP  HA4 8914   2.287   2.461  11.307
    1ECLIP  OA4 8915   2.277   2.285  11.421
    1ECLIP HOA4 8916   2.216   2.211  11.427
    1ECLIP  CA5 8917   2.120   2.465  11.435
    1ECLIP  HA5 8918   2.040   2.399  11.475
    1ECLIP  OA5 8919   2.058   2.570  11.359
    1ECLIP  CA1 8920   1.976   2.523  11.252
    1ECLIP  HA1 8921   1.936   2.610  11.196
    1ECLIP  OA1 8922   1.868   2.444  11.303
    1ECLIP OPA2 8923   1.643   2.394  11.407
    1ECLIP OPA3 8924   1.772   2.588  11.499
    1ECLIP OPA4 8925   1.673   2.606  11.269
    1ECLIP   PA 8926   1.733   2.512  11.372
    1ECLIP  CA3 8927   2.137   2.332  11.227
    1ECLIP  HA3 8928   2.057   2.265  11.264
    1ECLIP  OA3 8929   2.221   2.252  11.141
    1ECLIP  C31 8930   2.340   2.299  11.097
    1ECLIP  O31 8931   2.362   2.315  10.978
    1ECLIP  C32 8932   2.451   2.225  11.174
    1ECLIP H32R 8933   2.490   2.148  11.104
    1ECLIP H32S 8934   2.408   2.170  11.261
    1ECLIP  CA2 8935   2.067   2.447  11.154
    1ECLIP  HA2 8936   2.146   2.518  11.122
    1ECLIP  NA2 8937   1.996   2.399  11.038
    1ECLIP HNA2 8938   1.938   2.320  11.056
    1ECLIP  C73 8939   2.273   3.213  11.219
    1ECLIP H73R 8940   2.263   3.281  11.306
    1ECLIP  O73 8941   2.172   3.113  11.221
    1ECLIP  C81 8942   2.048   3.151  11.243
    1ECLIP  O81 8943   2.007   3.266  11.238
    1ECLIP  C82 8944   1.961   3.031  11.203
    1ECLIP H82R 8945   1.856   3.058  11.223
    1ECLIP H82S 8946   1.990   2.944  11.264
    1ECLIP  C83 8947   1.981   2.998  11.053
    1ECLIP H83R 8948   2.080   2.951  11.040
    1ECLIP H83S 8949   1.980   3.092  10.994
    1ECLIP  C84 8950   1.873   2.906  10.996
    1ECLIP H84R 8951   1.774   2.955  11.005
    1ECLIP H84S 8952   1.870   2.811  11.054
    1ECLIP  C85 8953   1.903   2.874  10.849
    1ECLIP H85R 8954   1.994   2.811  10.846
    1ECLIP H85S 8955   1.925   2.969  10.796
    1ECLIP  C86 8956   1.789   2.801  10.777
    1ECLIP H86R 8957   1.702   2.869  10.768
    1ECLIP H86S 8958   1.757   2.714  10.840
    1ECLIP  C87 8959   1.829   2.749  10.638
    1ECLIP H87R 8960   1.740   2.709  10.586
    1ECLIP H87S 8961   1.900   2.664  10.654
    1ECLIP  C88 8962   1.900   2.854  10.552
    1ECLIP H88R 8963   1.995   2.882  10.604
    1ECLIP H88S 8964   1.838   2.945  10.544
    1ECLIP  C89 8965   1.940   2.805  10.412
    1ECLIP H89R 8966   1.988   2.706  10.419
    1ECLIP H89S 8967   2.016   2.877  10.374
    1ECLIP C810 8968   1.823   2.801  10.312
    1ECLIPH810R 8969   1.760   2.891  10.326
    1ECLIPH810S 8970   1.760   2.713  10.337
    1ECLIP C811 8971   1.869   2.791  10.166
    1ECLIPH811R 8972   1.782   2.765  10.101
    1ECLIPH811S 8973   1.943   2.709  10.161
    1ECLIP C812 8974   1.935   2.919  10.111
    1ECLIPH812R 8975   1.982   2.896  10.013
    1ECLIPH812S 8976   2.017   2.950  10.179
    1ECLIP C813 8977   1.840   3.038  10.091
    1ECLIPH813R 8978   1.773   3.017  10.005
    1ECLIPH813S 8979   1.775   3.048  10.181
    1ECLIP C814 8980   1.913   3.171  10.070
    1ECLIPH814R 8981   1.987   3.163   9.988
    1ECLIPH814S 8982   1.968   3.198  10.163
    1ECLIPH814T 8983   1.841   3.252  10.047
    1ECLIP  C74 8984   2.266   3.297  11.088
    1ECLIP H74R 8985   2.357   3.360  11.082
    1ECLIP H74S 8986   2.181   3.368  11.099
    1ECLIP  C75 8987   2.247   3.221  10.954
    1ECLIP H75R 8988   2.148   3.250  10.913
    1ECLIP H75S 8989   2.244   3.112  10.973
    1ECLIP  C76 8990   2.355   3.253  10.849
    1ECLIP H76R 8991   2.444   3.191  10.874
    1ECLIP H76S 8992   2.384   3.360  10.856
    1ECLIP  C77 8993   2.315   3.224  10.702
    1ECLIP H77R 8994   2.233   3.293  10.671
    1ECLIP H77S 8995   2.275   3.121  10.696
    1ECLIP  C78 8996   2.434   3.237  10.606
    1ECLIP H78R 8997   2.461   3.343  10.591
    1ECLIP H78S 8998   2.520   3.188  10.657
    1ECLIP  C79 8999   2.418   3.164  10.471
    1ECLIP H79R 9000   2.376   3.063  10.487
    1ECLIP H79S 9001   2.520   3.151  10.428
    1ECLIP C710 9002   2.333   3.239  10.368
    1ECLIPH710R 9003   2.225   3.226  10.391
    1ECLIPH710S 9004   2.356   3.348  10.375
    1ECLIP C711 9005   2.364   3.192  10.225
    1ECLIPH711R 9006   2.474   3.196  10.210
    1ECLIPH711S 9007   2.333   3.085  10.214
    1ECLIP C712 9008   2.295   3.277  10.118
    1ECLIPH712R 9009   2.322   3.384  10.135
    1ECLIPH712S 9010   2.185   3.268  10.132
    1ECLIP C713 9011   2.332   3.238   9.974
    1ECLIPH713R 9012   2.304   3.132   9.959
    1ECLIPH713S 9013   2.271   3.299   9.905
    1ECLIP C714 9014   2.481   3.257   9.941
    1ECLIPH714R 9015   2.513   3.361   9.965
    1ECLIPH714S 9016   2.543   3.187  10.000
    1ECLIPH714T 9017   2.499   3.239   9.833
    1ECLIP  C51 9018   2.389   2.761  11.217
    1ECLIP  O51 9019   2.284   2.816  11.187
    1ECLIP  C52 9020   2.487   2.717  11.110
    1ECLIP H52R 9021   2.572   2.788  11.105
    1ECLIP H52S 9022   2.525   2.617  11.139
    1ECLIP  C53 9023   2.419   2.705  10.972
    1ECLIP H53R 9024   2.319   2.659  10.986
    1ECLIP  O53 9025   2.507   2.624  10.893
    1ECLIP  C61 9026   2.445   2.537  10.814
    1ECLIP  O61 9027   2.328   2.543  10.782
    1ECLIP  C62 9028   2.548   2.469  10.725
    1ECLIP H62R 9029   2.615   2.408  10.788
    1ECLIP H62S 9030   2.606   2.548  10.673
    1ECLIP  C63 9031   2.475   2.379  10.624
    1ECLIP H63R 9032   2.391   2.434  10.577
    1ECLIP H63S 9033   2.431   2.294  10.680
    1ECLIP  C64 9034   2.565   2.328  10.514
    1ECLIP H64R 9035   2.520   2.235  10.473
    1ECLIP H64S 9036   2.665   2.305  10.558
    1ECLIP  C65 9037   2.584   2.425  10.398
    1ECLIP H65R 9038   2.633   2.517  10.436
    1ECLIP H65S 9039   2.486   2.456  10.356
    1ECLIP  C66 9040   2.670   2.358  10.290
    1ECLIP H66R 9041   2.740   2.287  10.339
    1ECLIP H66S 9042   2.734   2.432  10.238
    1ECLIP  C67 9043   2.589   2.285  10.184
    1ECLIP H67R 9044   2.533   2.199  10.227
    1ECLIP H67S 9045   2.667   2.244  10.116
    1ECLIP  C68 9046   2.496   2.372  10.098
    1ECLIP H68R 9047   2.548   2.469  10.080
    1ECLIP H68S 9048   2.402   2.394  10.152
    1ECLIP  C69 9049   2.468   2.307   9.961
    1ECLIP H69R 9050   2.543   2.227   9.947
    1ECLIP H69S 9051   2.484   2.381   9.880
    1ECLIP C610 9052   2.328   2.244   9.945
    1ECLIPH610R 9053   2.265   2.312   9.884
    1ECLIPH610S 9054   2.281   2.235  10.045
    1ECLIP C611 9055   2.331   2.103   9.883
    1ECLIPH611R 9056   2.373   2.034   9.959
    1ECLIPH611S 9057   2.226   2.069   9.865
    1ECLIP C612 9058   2.412   2.089   9.754
    1ECLIPH612R 9059   2.349   2.111   9.666
    1ECLIPH612S 9060   2.498   2.160   9.752
    1ECLIPH612T 9061   2.453   1.987   9.743
    1ECLIP  C54 9062   2.403   2.844  10.905
    1ECLIP H54R 9063   2.502   2.885  10.879
    1ECLIP H54S 9064   2.357   2.912  10.980
    1ECLIP  C55 9065   2.310   2.844  10.783
    1ECLIP H55R 9066   2.252   2.939  10.781
    1ECLIP H55S 9067   2.234   2.764  10.796
    1ECLIP  C56 9068   2.384   2.826  10.650
    1ECLIP H56R 9069   2.453   2.739  10.657
    1ECLIP H56S 9070   2.448   2.916  10.631
    1ECLIP  C57 9071   2.288   2.802  10.534
    1ECLIP H57R 9072   2.224   2.892  10.522
    1ECLIP H57S 9073   2.222   2.716  10.559
    1ECLIP  C58 9074   2.363   2.772  10.404
    1ECLIP H58R 9075   2.445   2.845  10.393
    1ECLIP H58S 9076   2.408   2.670  10.411
    1ECLIP  C59 9077   2.271   2.781  10.282
    1ECLIP H59R 9078   2.223   2.881  10.282
    1ECLIP H59S 9079   2.191   2.705  10.289
    1ECLIP C510 9080   2.350   2.764  10.153
    1ECLIPH510R 9081   2.388   2.660  10.149
    1ECLIPH510S 9082   2.437   2.833  10.155
    1ECLIP C511 9083   2.265   2.795  10.029
    1ECLIPH511R 9084   2.185   2.719  10.020
    1ECLIPH511S 9085   2.217   2.894  10.042
    1ECLIP C512 9086   2.349   2.798   9.901
    1ECLIPH512R 9087   2.283   2.813   9.814
    1ECLIPH512S 9088   2.419   2.885   9.906
    1ECLIP C513 9089   2.432   2.671   9.882
    1ECLIPH513R 9090   2.365   2.582   9.884
    1ECLIPH513S 9091   2.504   2.659   9.965
    1ECLIP C514 9092   2.510   2.674   9.752
    1ECLIPH514R 9093   2.584   2.757   9.756
    1ECLIPH514S 9094   2.564   2.578   9.736
    1ECLIPH514T 9095   2.442   2.693   9.666
    1ECLIP  C33 9096   2.571   2.313  11.217
    1ECLIP H33R 9097   2.639   2.252  11.281
    1ECLIP  O33 9098   2.526   2.423  11.294
    1ECLIP HO33 9099   2.470   2.398  11.368
    1ECLIP  C34 9100   2.651   2.361  11.094
    1ECLIP H34R 9101   2.580   2.415  11.027
    1ECLIP H34S 9102   2.686   2.271  11.040
    1ECLIP  C35 9103   2.773   2.453  11.117
    1ECLIP H35R 9104   2.848   2.402  11.181
    1ECLIP H35S 9105   2.739   2.545  11.169
    1ECLIP  C36 9106   2.833   2.489  10.980
    1ECLIP H36R 9107   2.746   2.513  10.915
    1ECLIP H36S 9108   2.883   2.400  10.936
    1ECLIP  C37 9109   2.924   2.612  10.974
    1ECLIP H37R 9110   3.030   2.582  10.984
    1ECLIP H37S 9111   2.899   2.679  11.059
    1ECLIP  C38 9112   2.901   2.692  10.844
    1ECLIP H38R 9113   2.796   2.726  10.844
    1ECLIP H38S 9114   2.965   2.782  10.844
    1ECLIP  C39 9115   2.923   2.613  10.713
    1ECLIP H39R 9116   2.865   2.519  10.714
    1ECLIP H39S 9117   3.031   2.586  10.704
    1ECLIP C310 9118   2.878   2.696  10.591
    1ECLIPH310R 9119   2.933   2.793  10.594
    1ECLIPH310S 9120   2.770   2.718  10.603
    1ECLIP C311 9121   2.900   2.633  10.453
    1ECLIPH311R 9122   3.007   2.606  10.439
    1ECLIPH311S 9123   2.841   2.539  10.446
    1ECLIP C312 9124   2.858   2.732  10.342
    1ECLIPH312R 9125   2.764   2.782  10.375
    1ECLIPH312S 9126   2.936   2.810  10.333
    1ECLIP C313 9127   2.831   2.670  10.204
    1ECLIPH313R 9128   2.907   2.592  10.184
    1ECLIPH313S 9129   2.730   2.624  10.208
    1ECLIP C314 9130   2.829   2.771  10.089
    1ECLIPH314R 9131   2.923   2.829  10.086
    1ECLIPH314S 9132   2.815   2.719   9.992
    1ECLIPH314T 9133   2.744   2.841  10.102
    1ECLIP  C11 9134   2.005   2.449  10.913
    1ECLIP  O11 9135   2.063   2.553  10.887
    1ECLIP  C12 9136   1.934   2.370  10.806
    1ECLIP H12R 9137   1.828   2.402  10.807
    1ECLIP H12S 9138   1.942   2.262  10.833
    1ECLIP  C13 9139   1.994   2.389  10.665
    1ECLIP H13R 9140   2.022   2.495  10.649
    1ECLIP  O13 9141   1.894   2.355  10.570
    1ECLIP HO13 9142   1.923   2.373  10.480
    1ECLIP  C14 9143   2.116   2.300  10.635
    1ECLIP H14R 9144   2.099   2.200  10.682
    1ECLIP H14S 9145   2.204   2.344  10.687
    1ECLIP  C15 9146   2.147   2.276  10.485
    1ECLIP H15R 9147   2.065   2.214  10.443
    1ECLIP H15S 9148   2.239   2.215  10.477
    1ECLIP  C16 9149   2.164   2.403  10.400
    1ECLIP H16R 9150   2.268   2.439  10.412
    1ECLIP H16S 9151   2.098   2.486  10.436
    1ECLIP  C17 9152   2.137   2.380  10.251
    1ECLIP H17R 9153   2.183   2.283  10.222
    1ECLIP H17S 9154   2.188   2.461  10.195
    1ECLIP  C18 9155   1.988   2.379  10.214
    1ECLIP H18R 9156   1.938   2.297  10.269
    1ECLIP H18S 9157   1.941   2.475  10.247
    1ECLIP  C19 9158   1.962   2.360  10.063
    1ECLIP H19R 9159   1.854   2.342  10.047
    1ECLIP H19S 9160   2.017   2.270  10.029
    1ECLIP C110 9161   2.005   2.481   9.979
    1ECLIPH110R 9162   1.941   2.568  10.004
    1ECLIPH110S 9163   2.110   2.507  10.006
    1ECLIP C111 9164   2.001   2.459   9.827
    1ECLIPH111R 9165   2.057   2.366   9.803
    1ECLIPH111S 9166   1.896   2.445   9.793
    1ECLIP C112 9167   2.066   2.577   9.754
    1ECLIPH112R 9168   2.008   2.669   9.774
    1ECLIPH112S 9169   2.168   2.593   9.797
    1ECLIP C113 9170   2.081   2.556   9.603
    1ECLIPH113R 9171   2.138   2.462   9.585
    1ECLIPH113S 9172   1.980   2.542   9.560
    1ECLIP C114 9173   2.152   2.672   9.533
    1ECLIPH114R 9174   2.098   2.768   9.552
    1ECLIPH114S 9175   2.255   2.683   9.572
    1ECLIPH114T 9176   2.157   2.656   9.423
    2AKDO    C1 9177   2.505   2.724  12.020
    2AKDO   O11 9178   2.587   2.818  12.032
    2AKDO   O12 9179   2.537   2.603  12.001
    2AKDO    C2 9180   2.361   2.748  12.077
    2AKDO    C6 9181   2.210   2.900  12.186
    2AKDO    H6 9182   2.142   2.880  12.101
    2AKDO    O6 9183   2.346   2.876  12.142
    2AKDO    C3 9184   2.320   2.643  12.183
    2AKDO   H31 9185   2.394   2.644  12.266
    2AKDO   H32 9186   2.321   2.544  12.132
    2AKDO    C4 9187   2.182   2.661  12.237
    2AKDO    H4 9188   2.108   2.646  12.155
    2AKDO    O4 9189   2.160   2.568  12.345
    2AKDO    C5 9190   2.167   2.800  12.295
    2AKDO    H5 9191   2.056   2.813  12.298
    2AKDO    O5 9192   2.216   2.815  12.431
    2AKDO    C7 9193   2.194   3.049  12.214
    2AKDO    H7 9194   2.264   3.082  12.294
    2AKDO    O7 9195   2.058   3.080  12.246
    2AKDO   HO7 9196   2.045   3.154  12.187
    2AKDO    C8 9197   2.227   3.125  12.087
    2AKDO   H81 9198   2.333   3.109  12.058
    2AKDO   H82 9199   2.164   3.084  12.006
    2AKDO    O8 9200   2.203   3.266  12.094
    2AKDO   HO8 9201   2.210   3.287  12.000
    3AKDO    C1 9202   1.995   2.427  12.230
    3AKDO   O11 9203   1.996   2.341  12.139
    3AKDO   O12 9204   1.893   2.479  12.285
    3AKDO    C2 9205   2.124   2.434  12.319
    3AKDO    C6 9206   2.349   2.346  12.354
    3AKDO    H6 9207   2.381   2.450  12.376
    3AKDO    O6 9208   2.233   2.352  12.267
    3AKDO    C3 9209   2.087   2.377  12.457
    3AKDO   H31 9210   2.043   2.276  12.442
    3AKDO   H32 9211   2.008   2.442  12.500
    3AKDO    C4 9212   2.204   2.371  12.549
    3AKDO    H4 9213   2.247   2.472  12.562
    3AKDO    O4 9214   2.159   2.327  12.677
    3AKDO   HO4 9215   2.096   2.394  12.706
    3AKDO    C5 9216   2.309   2.282  12.486
    3AKDO    H5 9217   2.397   2.275  12.553
    3AKDO    O5 9218   2.261   2.150  12.459
    3AKDO   HO5 9219   2.219   2.157  12.373
    3AKDO    C7 9220   2.466   2.277  12.286
    3AKDO    H7 9221   2.443   2.170  12.267
    3AKDO    O7 9222   2.583   2.287  12.370
    3AKDO   HO7 9223   2.644   2.223  12.332
    3AKDO    C8 9224   2.493   2.348  12.155
    3AKDO   H81 9225   2.405   2.336  12.087
    3AKDO   H82 9226   2.504   2.455  12.179
    3AKDO    O8 9227   2.610   2.305  12.085
    3AKDO   HO8 9228   2.607   2.209  12.086
    4AHEP    C1 9229   2.141   2.908  12.507
    4AHEP    H1 9230   2.158   3.006  12.458
    4AHEP    C5 9231   1.958   2.773  12.579
    4AHEP    H5 9232   2.025   2.690  12.547
    4AHEP    O5 9233   1.999   2.887  12.503
    4AHEP    C2 9234   2.186   2.927  12.650
    4AHEP    H2 9235   2.297   2.928  12.650
    4AHEP    O2 9236   2.143   3.056  12.698
    4AHEP   HO2 9237   2.152   3.117  12.625
    4AHEP    C3 9238   2.141   2.810  12.738
    4AHEP    H3 9239   2.188   2.719  12.696
    4AHEP    O3 9240   2.184   2.830  12.875
    4AHEP    C4 9241   1.989   2.797  12.729
    4AHEP    H4 9242   1.944   2.895  12.756
    4AHEP    O4 9243   1.938   2.692  12.815
    4AHEP    P4 9244   1.833   2.723  12.940
    4AHEP  OP42 9245   1.810   2.592  13.013
    4AHEP  OP43 9246   1.700   2.763  12.877
    4AHEP  OP44 9247   1.885   2.834  13.029
    4AHEP    C6 9248   1.820   2.723  12.534
    4AHEP    H6 9249   1.817   2.614  12.552
    4AHEP    O6 9250   1.712   2.786  12.605
    4AHEP   HO6 9251   1.715   2.870  12.559
    4AHEP    C7 9252   1.792   2.749  12.386
    4AHEP   H71 9253   1.703   2.690  12.354
    4AHEP   H72 9254   1.877   2.712  12.324
    4AHEP    O7 9255   1.769   2.888  12.357
    4AHEP   HO7 9256   1.855   2.926  12.339
    5AHEP    C1 9257   2.261   2.724  12.927
    5AHEP    H1 9258   2.232   2.628  12.880
    5AHEP    C5 9259   2.447   2.868  12.972
    5AHEP    H5 9260   2.394   2.953  12.923
    5AHEP    O5 9261   2.402   2.746  12.911
    5AHEP    C2 9262   2.235   2.712  13.076
    5AHEP    H2 9263   2.126   2.694  13.089
    5AHEP    O2 9264   2.304   2.598  13.129
    5AHEP   HO2 9265   2.397   2.611  13.109
    5AHEP    C3 9266   2.271   2.841  13.148
    5AHEP    H3 9267   2.207   2.922  13.107
    5AHEP    O3 9268   2.254   2.828  13.291
    5AHEP    C4 9269   2.417   2.868  13.123
    5AHEP    H4 9270   2.478   2.789  13.172
    5AHEP    O4 9271   2.460   2.995  13.175
    5AHEP    P4 9272   2.380   3.126  13.231
    5AHEP  OP42 9273   2.269   3.161  13.132
    5AHEP  OP43 9274   2.475   3.243  13.216
    5AHEP  OP44 9275   2.326   3.106  13.370
    5AHEP    C6 9276   2.597   2.879  12.936
    5AHEP    H6 9277   2.633   2.979  12.968
    5AHEP    O6 9278   2.675   2.780  13.007
    5AHEP   HO6 9279   2.762   2.821  13.012
    5AHEP    C7 9280   2.622   2.864  12.784
    5AHEP   H71 9281   2.676   2.955  12.752
    5AHEP   H72 9282   2.526   2.864  12.728
    5AHEP    O7 9283   2.705   2.753  12.745
    6AHEP    C1 9284   2.635   2.648  12.680
    6AHEP    H1 9285   2.530   2.645  12.715
    6AHEP    C5 9286   2.773   2.663  12.483
    6AHEP    H5 9287   2.826   2.748  12.532
    6AHEP    O5 9288   2.639   2.658  12.537
    6AHEP    C2 9289   2.705   2.520  12.719
    6AHEP    H2 9290   2.707   2.517  12.830
    6AHEP    O2 9291   2.631   2.404  12.677
    6AHEP   HO2 9292   2.627   2.401  12.581
    6AHEP    C3 9293   2.848   2.521  12.670
    6AHEP    H3 9294   2.899   2.610  12.713
    6AHEP    O3 9295   2.922   2.407  12.718
    6AHEP   HO3 9296   2.866   2.330  12.726
    6AHEP    C4 9297   2.850   2.536  12.519
    6AHEP    H4 9298   2.800   2.449  12.471
    6AHEP    O4 9299   2.983   2.546  12.468
    6AHEP   HO4 9300   3.008   2.463  12.426
    6AHEP    C6 9301   2.772   2.695  12.333
    6AHEP    H6 9302   2.877   2.702  12.297
    6AHEP    O6 9303   2.703   2.596  12.255
    6AHEP   HO6 9304   2.614   2.628  12.273
    6AHEP    C7 9305   2.705   2.829  12.308
    6AHEP   H71 9306   2.733   2.868  12.207
    6AHEP   H72 9307   2.744   2.901  12.383
    6AHEP    O7 9308   2.563   2.828  12.324
    6AHEP   HO7 9309   2.525   2.852  12.239
    7AGLC    C1 9310   2.123   2.842  13.339
    7AGLC    H1 9311   2.074   2.926  13.285
    7AGLC    C5 9312   2.101   2.608  13.382
    7AGLC    H5 9313   2.207   2.593  13.351
    7AGLC    O5 9314   2.046   2.724  13.318
    7AGLC    C2 9315   2.120   2.867  13.490
    7AGLC    H2 9316   2.013   2.865  13.519
    7AGLC    O2 9317   2.163   2.997  13.531
    7AGLC   HO2 9318   2.238   3.023  13.476
    7AGLC    C3 9319   2.187   2.752  13.564
    7AGLC    H3 9320   2.286   2.738  13.516
    7AGLC    O3 9321   2.207   2.772  13.707
    7AGLC    C4 9322   2.102   2.629  13.532
    7AGLC    H4 9323   1.997   2.649  13.563
    7AGLC    O4 9324   2.144   2.513  13.602
    7AGLC   HO4 9325   2.067   2.461  13.627
    7AGLC    C6 9326   2.022   2.488  13.332
    7AGLC   H61 9327   2.048   2.472  13.225
    7AGLC   H62 9328   2.052   2.396  13.388
    7AGLC    O6 9329   1.881   2.507  13.342
    7AGLC   HO6 9330   1.856   2.556  13.262
    8AGLC    C1 9331   2.342   2.749  13.746
    8AGLC    H1 9332   2.382   2.660  13.693
    8AGLC    C5 9333   2.389   2.984  13.779
    8AGLC    H5 9334   2.282   3.003  13.755
    8AGLC    O5 9335   2.427   2.861  13.714
    8AGLC    C2 9336   2.355   2.729  13.896
    8AGLC    H2 9337   2.462   2.706  13.918
    8AGLC    O2 9338   2.274   2.623  13.947
    8AGLC    C3 9339   2.315   2.852  13.974
    8AGLC    H3 9340   2.211   2.876  13.943
    8AGLC    O3 9341   2.310   2.823  14.116
    8AGLC    C4 9342   2.402   2.967  13.930
    8AGLC    H4 9343   2.508   2.945  13.954
    8AGLC    O4 9344   2.363   3.088  13.996
    8AGLC   HO4 9345   2.418   3.153  13.952
    8AGLC    C6 9346   2.469   3.098  13.717
    8AGLC   H61 9347   2.524   3.061  13.628
    8AGLC   H62 9348   2.399   3.176  13.679
    8AGLC    O6 9349   2.560   3.159  13.809
    8AGLC   HO6 9350   2.647   3.159  13.770
    9AGAL    C1 9351   2.297   2.493  13.902
    9AGAL    H1 9352   2.294   2.486  13.791
    9AGAL    C5 9353   2.438   2.452  14.088
    9AGAL    H5 9354   2.421   2.558  14.120
    9AGAL    O5 9355   2.424   2.443  13.946
    9AGAL    C2 9356   2.185   2.410  13.962
    9AGAL    H2 9357   2.196   2.305  13.927
    9AGAL    O2 9358   2.066   2.466  13.901
    9AGAL    C3 9359   2.196   2.414  14.114
    9AGAL    H3 9360   2.182   2.518  14.148
    9AGAL    O3 9361   2.097   2.333  14.178
    9AGAL   HO3 9362   2.121   2.243  14.158
    9AGAL    C4 9363   2.333   2.366  14.157
    9AGAL    H4 9364   2.343   2.381  14.267
    9AGAL    O4 9365   2.352   2.226  14.133
    9AGAL   HO4 9366   2.431   2.216  14.080
    9AGAL    C6 9367   2.583   2.422  14.119
    9AGAL   H61 9368   2.646   2.498  14.068
    9AGAL   H62 9369   2.602   2.429  14.228
    9AGAL    O6 9370   2.623   2.294  14.072
    9AGAL   HO6 9371   2.630   2.301  13.976
   10AGAL    C1 9372   1.942   2.468  13.966
   10AGAL    H1 9373   1.916   2.366  14.000
   10AGAL    C5 9374   1.965   2.695  14.038
   10AGAL    H5 9375   2.058   2.695  13.978
   10AGAL    O5 9376   1.940   2.559  14.079
   10AGAL    C2 9377   1.834   2.513  13.866
   10AGAL    H2 9378   1.735   2.504  13.916
   10AGAL    O2 9379   1.835   2.428  13.751
   10AGAL   HO2 9380   1.748   2.388  13.738
   10AGAL    C3 9381   1.855   2.658  13.824
   10AGAL    H3 9382   1.955   2.666  13.775
   10AGAL    O3 9383   1.756   2.701  13.730
   10AGAL   HO3 9384   1.762   2.642  13.654
   10AGAL    C4 9385   1.856   2.747  13.946
   10AGAL    H4 9386   1.882   2.850  13.914
   10AGAL    O4 9387   1.729   2.752  14.012
   10AGAL   HO4 9388   1.662   2.756  13.943
   10AGAL    C6 9389   1.997   2.780  14.160
   10AGAL   H61 9390   2.071   2.726  14.222
   10AGAL   H62 9391   2.043   2.875  14.126
   10AGAL    O6 9392   1.882   2.810  14.239
   10AGAL   HO6 9393   1.807   2.786  14.184
   11BGLC    C1 9394   2.422   2.846  14.199
   11BGLC    H1 9395   2.440   2.955  14.209
   11BGLC    C5 9396   2.651   2.797  14.242
   11BGLC    H5 9397   2.662   2.906  14.261
   11BGLC    O5 9398   2.540   2.779  14.152
   11BGLC    C2 9399   2.383   2.786  14.334
   11BGLC    H2 9400   2.362   2.678  14.318
   11BGLC    O2 9401   2.264   2.846  14.386
   11BGLC   HO2 9402   2.198   2.841  14.316
   11BGLC    C3 9403   2.496   2.797  14.435
   11BGLC    H3 9404   2.516   2.904  14.458
   11BGLC    O3 9405   2.468   2.723  14.555
   11BGLC    C4 9406   2.619   2.732  14.376
   11BGLC    H4 9407   2.599   2.624  14.359
   11BGLC    O4 9408   2.728   2.744  14.467
   11BGLC   HO4 9409   2.690   2.759  14.554
   11BGLC    C6 9410   2.781   2.752  14.177
   11BGLC   H61 9411   2.864   2.759  14.251
   11BGLC   H62 9412   2.775   2.646  14.144
   11BGLC    O6 9413   2.816   2.836  14.067
   11BGLC   HO6 9414   2.802   2.793  13.983
   12BGLCN   C1 9415   2.424   2.792  14.669
   12BGLCN   H1 9416   2.326   2.840  14.649
   12BGLCN   C5 9417   2.482   2.957  14.832
   12BGLCN   H5 9418   2.384   3.008  14.815
   12BGLCN   O5 9419   2.521   2.888  14.712
   12BGLCN   C2 9420   2.411   2.685  14.777
   12BGLCN   H2 9421   2.514   2.646  14.793
   12BGLCN    N 9422   2.330   2.574  14.729
   12BGLCN   HN 9423   2.260   2.595  14.661
   12BGLCN    C 9424   2.356   2.445  14.755
   12BGLCN    O 9425   2.440   2.409  14.836
   12BGLCN   CT 9426   2.271   2.344  14.682
   12BGLCN  HT1 9427   2.255   2.255  14.746
   12BGLCN  HT2 9428   2.323   2.312  14.589
   12BGLCN  HT3 9429   2.172   2.387  14.655
   12BGLCN   C3 9430   2.365   2.748  14.909
   12BGLCN   H3 9431   2.264   2.792  14.895
   12BGLCN   O3 9432   2.361   2.648  15.014
   12BGLCN   C4 9433   2.467   2.855  14.945
   12BGLCN   H4 9434   2.566   2.807  14.960
   12BGLCN   O4 9435   2.432   2.924  15.064
   12BGLCN  HO4 9436   2.485   2.890  15.137
   12BGLCN   C6 9437   2.588   3.062  14.860
   12BGLCN  H61 9438   2.578   3.102  14.963
   12BGLCN  H62 9439   2.688   3.014  14.852
   12BGLCN   O6 9440   2.583   3.171  14.769
   12BGLCN  HO6 9441   2.515   3.234  14.794
   13AGAL    C1 9442   2.266   2.663  15.118
   13AGAL    H1 9443   2.260   2.769  15.153
   13AGAL    C5 9444   2.131   2.483  15.036
   13AGAL    H5 9445   2.206   2.471  14.955
   13AGAL    O5 9446   2.134   2.621  15.078
   13AGAL    C2 9447   2.304   2.575  15.237
   13AGAL    H2 9448   2.220   2.581  15.308
   13AGAL    O2 9449   2.423   2.619  15.306
   13AGAL    C3 9450   2.312   2.430  15.193
   13AGAL    H3 9451   2.382   2.421  15.107
   13AGAL    O3 9452   2.363   2.345  15.296
   13AGAL   HO3 9453   2.457   2.334  15.281
   13AGAL    C4 9454   2.174   2.386  15.148
   13AGAL    H4 9455   2.182   2.284  15.104
   13AGAL    O4 9456   2.082   2.379  15.258
   13AGAL   HO4 9457   2.130   2.330  15.325
   13AGAL    C6 9458   1.997   2.450  14.974
   13AGAL   H61 9459   1.974   2.522  14.893
   13AGAL   H62 9460   2.000   2.348  14.929
   13AGAL    O6 9461   1.893   2.455  15.072
   13AGAL   HO6 9462   1.937   2.430  15.154
   14ARHM    C1 9463   2.403   2.669  15.437
   14ARHM    H1 9464   2.304   2.718  15.442
   14ARHM    C5 9465   2.630   2.723  15.476
   14ARHM    H5 9466   2.664   2.686  15.378
   14ARHM    O5 9467   2.496   2.773  15.467
   14ARHM    C2 9468   2.410   2.560  15.543
   14ARHM    H2 9469   2.337   2.480  15.518
   14ARHM    O2 9470   2.386   2.605  15.678
   14ARHM    C3 9471   2.549   2.501  15.548
   14ARHM    H3 9472   2.576   2.457  15.449
   14ARHM    O3 9473   2.554   2.396  15.646
   14ARHM   HO3 9474   2.490   2.421  15.713
   14ARHM    C4 9475   2.645   2.614  15.581
   14ARHM    H4 9476   2.617   2.658  15.679
   14ARHM    O4 9477   2.780   2.572  15.592
   14ARHM   HO4 9478   2.800   2.571  15.686
   14ARHM    C6 9479   2.707   2.849  15.514
   14ARHM   H61 9480   2.700   2.920  15.429
   14ARHM   H62 9481   2.663   2.896  15.605
   14ARHM   H63 9482   2.813   2.824  15.535
   15ARHM    C1 9483   2.266   2.671  15.705
   15ARHM    H1 9484   2.184   2.626  15.644
   15ARHM    C5 9485   2.372   2.878  15.762
   15ARHM    H5 9486   2.472   2.834  15.742
   15ARHM    O5 9487   2.273   2.813  15.681
   15ARHM    C2 9488   2.237   2.647  15.852
   15ARHM    H2 9489   2.236   2.538  15.870
   15ARHM    O2 9490   2.106   2.700  15.875
   15ARHM    C3 9491   2.342   2.712  15.938
   15ARHM    H3 9492   2.442   2.673  15.907
   15ARHM    O3 9493   2.321   2.675  16.075
   15ARHM    C4 9494   2.339   2.860  15.910
   15ARHM    H4 9495   2.236   2.899  15.928
   15ARHM    O4 9496   2.427   2.935  15.994
   15ARHM   HO4 9497   2.401   3.027  15.992
   15ARHM    C6 9498   2.377   3.025  15.717
   15ARHM   H61 9499   2.455   3.081  15.774
   15ARHM   H62 9500   2.402   3.031  15.609
   15ARHM   H63 9501   2.279   3.074  15.735
   16BMANN   C1 9502   2.049   2.679  16.001
   16BMANN   H1 9503   2.096   2.746  16.077
   16BMANN   C5 9504   1.990   2.517  16.167
   16BMANN   H5 9505   2.036   2.582  16.245
   16BMANN   O5 9506   2.057   2.541  16.041
   16BMANN   C2 9507   1.905   2.716  15.979
   16BMANN   H2 9508   1.903   2.825  15.954
   16BMANN    N 9509   1.853   2.644  15.864
   16BMANN   HN 9510   1.910   2.568  15.834
   16BMANN    C 9511   1.749   2.680  15.789
   16BMANN    O 9512   1.675   2.772  15.821
   16BMANN   CT 9513   1.730   2.602  15.662
   16BMANN  HT1 9514   1.631   2.626  15.617
   16BMANN  HT2 9515   1.735   2.493  15.682
   16BMANN  HT3 9516   1.809   2.629  15.589
   16BMANN   C3 9517   1.831   2.696  16.109
   16BMANN   H3 9518   1.879   2.760  16.186
   16BMANN   O3 9519   1.696   2.739  16.099
   16BMANN  HO3 9520   1.676   2.748  16.005
   16BMANN   C4 9521   1.843   2.552  16.153
   16BMANN   H4 9522   1.797   2.485  16.077
   16BMANN   O4 9523   1.775   2.532  16.277
   16BMANN  HO4 9524   1.697   2.588  16.273
   16BMANN   C6 9525   2.016   2.373  16.205
   16BMANN  H61 9526   1.957   2.346  16.294
   16BMANN  H62 9527   1.984   2.306  16.122
   16BMANN   O6 9528   2.154   2.352  16.234
   16BMANN  HO6 9529   2.205   2.375  16.155
   17BGLCN   C1 9530   2.438   2.651  16.147
   17BGLCN   H1 9531   2.511   2.733  16.129
   17BGLCN   C5 9532   2.614   2.497  16.191
   17BGLCN   H5 9533   2.688   2.578  16.171
   17BGLCN   O5 9534   2.495   2.523  16.116
   17BGLCN   C2 9535   2.397   2.648  16.293
   17BGLCN   H2 9536   2.334   2.558  16.307
   17BGLCN    N 9537   2.314   2.763  16.329
   17BGLCN   HN 9538   2.330   2.846  16.277
   17BGLCN    C 9539   2.217   2.759  16.421
   17BGLCN    O 9540   2.185   2.657  16.481
   17BGLCN   CT 9541   2.148   2.890  16.449
   17BGLCN  HT1 9542   2.061   2.902  16.381
   17BGLCN  HT2 9543   2.218   2.975  16.432
   17BGLCN  HT3 9544   2.113   2.892  16.554
   17BGLCN   C3 9545   2.523   2.630  16.377
   17BGLCN   H3 9546   2.595   2.708  16.344
   17BGLCN   O3 9547   2.498   2.650  16.518
   17BGLCN   C4 9548   2.582   2.495  16.340
   17BGLCN   H4 9549   2.505   2.417  16.359
   17BGLCN   O4 9550   2.698   2.462  16.415
   17BGLCN  HO4 9551   2.677   2.399  16.485
   17BGLCN   C6 9552   2.674   2.367  16.142
   17BGLCN  H61 9553   2.770   2.351  16.196
   17BGLCN  H62 9554   2.605   2.283  16.166
   17BGLCN   O6 9555   2.701   2.368  16.002
   17BGLCN  HO6 9556   2.619   2.372  15.954
   18AGAL    C1 9557   2.606   2.703  16.594
   18AGAL    H1 9558   2.686   2.627  16.604
   18AGAL    C5 9559   2.569   2.929  16.519
   18AGAL    H5 9560   2.481   2.888  16.463
   18AGAL    O5 9561   2.664   2.821  16.534
   18AGAL    C2 9562   2.561   2.743  16.733
   18AGAL    H2 9563   2.652   2.784  16.782
   18AGAL    O2 9564   2.518   2.629  16.811
   18AGAL    C3 9565   2.456   2.852  16.725
   18AGAL    H3 9566   2.371   2.814  16.664
   18AGAL    O3 9567   2.404   2.888  16.853
   18AGAL   HO3 9568   2.326   2.943  16.843
   18AGAL    C4 9569   2.516   2.973  16.655
   18AGAL    H4 9570   2.436   3.049  16.639
   18AGAL    O4 9571   2.618   3.036  16.733
   18AGAL   HO4 9572   2.604   3.012  16.825
   18AGAL    C6 9573   2.619   3.044  16.433
   18AGAL   H61 9574   2.541   3.072  16.359
   18AGAL   H62 9575   2.638   3.134  16.495
   18AGAL    O6 9576   2.739   3.014  16.361
   18AGAL   HO6 9577   2.810   3.017  16.426
   19ARHM    C1 9578   2.552   2.640  16.947
   19ARHM    H1 9579   2.561   2.747  16.976
   19ARHM    C5 9580   2.679   2.438  16.950
   19ARHM    H5 9581   2.657   2.420  16.843
   19ARHM    O5 9582   2.677   2.578  16.978
   19ARHM    C2 9583   2.443   2.576  17.031
   19ARHM    H2 9584   2.347   2.614  16.990
   19ARHM    O2 9585   2.447   2.607  17.171
   19ARHM    C3 9586   2.439   2.428  17.008
   19ARHM    H3 9587   2.412   2.408  16.902
   19ARHM    O3 9588   2.341   2.369  17.094
   19ARHM   HO3 9589   2.374   2.377  17.184
   19ARHM    C4 9590   2.575   2.368  17.037
   19ARHM    H4 9591   2.603   2.385  17.143
   19ARHM    O4 9592   2.573   2.227  17.013
   19ARHM   HO4 9593   2.489   2.208  16.972
   19ARHM    C6 9594   2.824   2.394  16.978
   19ARHM   H61 9595   2.894   2.448  16.912
   19ARHM   H62 9596   2.851   2.417  17.084
   19ARHM   H63 9597   2.836   2.285  16.961
   20ARHM    C1 9598   2.412   2.741  17.197
   20ARHM    H1 9599   2.344   2.780  17.118
   20ARHM    C5 9600   2.620   2.785  17.303
   20ARHM    H5 9601   2.650   2.679  17.285
   20ARHM    O5 9602   2.527   2.826  17.202
   20ARHM    C2 9603   2.342   2.745  17.331
   20ARHM    H2 9604   2.260   2.669  17.331
   20ARHM    O2 9605   2.285   2.874  17.356
   20ARHM    C3 9606   2.435   2.705  17.442
   20ARHM    H3 9607   2.466   2.600  17.425
   20ARHM    O3 9608   2.363   2.714  17.565
   20ARHM    C4 9609   2.555   2.795  17.440
   20ARHM    H4 9610   2.521   2.900  17.455
   20ARHM    O4 9611   2.647   2.765  17.545
   20ARHM   HO4 9612   2.679   2.676  17.528
   20ARHM    C6 9613   2.745   2.871  17.285
   20ARHM   H61 9614   2.721   2.979  17.301
   20ARHM   H62 9615   2.821   2.839  17.359
   20ARHM   H63 9616   2.786   2.858  17.183
   21BMANN   C1 9617   2.171   2.898  17.277
   21BMANN   H1 9618   2.145   2.808  17.218
   21BMANN   C5 9619   2.077   3.023  17.099
   21BMANN   H5 9620   2.061   2.928  17.043
   21BMANN   O5 9621   2.191   3.006  17.186
   21BMANN   C2 9622   2.056   2.929  17.370
   21BMANN   H2 9623   2.042   2.839  17.433
   21BMANN    N 9624   2.086   3.040  17.459
   21BMANN   HN 9625   2.166   3.094  17.435
   21BMANN    C 9626   2.022   3.065  17.574
   21BMANN    O 9627   1.922   3.003  17.608
   21BMANN   CT 9628   2.077   3.174  17.662
   21BMANN  HT1 9629   2.016   3.266  17.649
   21BMANN  HT2 9630   2.183   3.195  17.637
   21BMANN  HT3 9631   2.072   3.142  17.768
   21BMANN   C3 9632   1.932   2.943  17.283
   21BMANN   H3 9633   1.917   2.848  17.227
   21BMANN   O3 9634   1.816   2.962  17.363
   21BMANN  HO3 9635   1.847   2.980  17.453
   21BMANN   C4 9636   1.952   3.053  17.181
   21BMANN   H4 9637   1.966   3.151  17.233
   21BMANN   O4 9638   1.840   3.063  17.094
   21BMANN  HO4 9639   1.764   3.091  17.146
   21BMANN   C6 9640   2.111   3.130  16.998
   21BMANN  H61 9641   2.031   3.138  16.921
   21BMANN  H62 9642   2.119   3.229  17.048
   21BMANN   O6 9643   2.234   3.101  16.931
   21BMANN  HO6 9644   2.302   3.094  16.999
   22BGLCN   C1 9645   2.399   2.619  17.661
   22BGLCN   H1 9646   2.506   2.591  17.654
   22BGLCN   C5 9647   2.346   2.409  17.754
   22BGLCN   H5 9648   2.455   2.387  17.753
   22BGLCN   O5 9649   2.317   2.503  17.651
   22BGLCN   C2 9650   2.372   2.691  17.791
   22BGLCN   H2 9651   2.264   2.720  17.792
   22BGLCN    N 9652   2.453   2.813  17.792
   22BGLCN   HN 9653   2.529   2.813  17.728
   22BGLCN    C 9654   2.420   2.927  17.852
   22BGLCN    O 9655   2.322   2.940  17.924
   22BGLCN   CT 9656   2.512   3.044  17.828
   22BGLCN  HT1 9657   2.486   3.092  17.732
   22BGLCN  HT2 9658   2.618   3.010  17.825
   22BGLCN  HT3 9659   2.499   3.118  17.910
   22BGLCN   C3 9660   2.397   2.597  17.908
   22BGLCN   H3 9661   2.504   2.568  17.906
   22BGLCN   O3 9662   2.370   2.673  18.027
   22BGLCN   C4 9663   2.311   2.472  17.889
   22BGLCN   H4 9664   2.205   2.503  17.889
   22BGLCN   O4 9665   2.330   2.377  17.993
   22BGLCN  HO4 9666   2.253   2.319  17.996
   22BGLCN   C6 9667   2.275   2.279  17.721
   22BGLCN  H61 9668   2.302   2.202  17.797
   22BGLCN  H62 9669   2.165   2.293  17.722
   22BGLCN   O6 9670   2.316   2.229  17.594
   22BGLCN  HO6 9671   2.272   2.280  17.525
   23AGAL    C1 9672   2.419   2.626  18.151
   23AGAL    H1 9673   2.361   2.536  18.181
   23AGAL    C5 9674   2.642   2.704  18.116
   23AGAL    H5 9675   2.604   2.750  18.022
   23AGAL    O5 9676   2.558   2.590  18.145
   23AGAL    C2 9677   2.398   2.731  18.259
   23AGAL    H2 9678   2.429   2.687  18.356
   23AGAL    O2 9679   2.260   2.773  18.267
   23AGAL    C3 9680   2.484   2.853  18.233
   23AGAL    H3 9681   2.454   2.898  18.136
   23AGAL    O3 9682   2.465   2.953  18.333
   23AGAL   HO3 9683   2.528   2.933  18.404
   23AGAL    C4 9684   2.629   2.810  18.225
   23AGAL    H4 9685   2.691   2.898  18.197
   23AGAL    O4 9686   2.677   2.762  18.350
   23AGAL   HO4 9687   2.755   2.710  18.330
   23AGAL    C6 9688   2.784   2.658  18.083
   23AGAL   H61 9689   2.780   2.571  18.015
   23AGAL   H62 9690   2.837   2.740  18.030
   23AGAL    O6 9691   2.862   2.623  18.198
   23AGAL   HO6 9692   2.953   2.610  18.171
   24ARHM    C1 9693   2.179   2.706  18.359
   24ARHM    H1 9694   2.214   2.601  18.367
   24ARHM    C5 9695   1.982   2.827  18.307
   24ARHM    H5 9696   2.042   2.892  18.240
   24ARHM    O5 9697   2.044   2.697  18.314
   24ARHM    C2 9698   2.187   2.770  18.496
   24ARHM    H2 9699   2.294   2.786  18.522
   24ARHM    O2 9700   2.127   2.687  18.597
   24ARHM    C3 9701   2.122   2.906  18.494
   24ARHM    H3 9702   2.177   2.972  18.424
   24ARHM    O3 9703   2.129   2.966  18.624
   24ARHM   HO3 9704   2.056   2.931  18.675
   24ARHM    C4 9705   1.979   2.891  18.445
   24ARHM    H4 9706   1.925   2.821  18.512
   24ARHM    O4 9707   1.906   3.014  18.444
   24ARHM   HO4 9708   1.891   3.043  18.353
   24ARHM    C6 9709   1.843   2.807  18.243
   24ARHM   H61 9710   1.794   2.905  18.223
   24ARHM   H62 9711   1.854   2.754  18.145
   24ARHM   H63 9712   1.777   2.747  18.308
   25ARHM    C1 9713   2.213   2.591  18.653
   25ARHM    H1 9714   2.295   2.570  18.581
   25ARHM    C5 9715   2.046   2.475  18.774
   25ARHM    H5 9716   1.972   2.551  18.742
   25ARHM    O5 9717   2.149   2.465  18.675
   25ARHM    C2 9718   2.275   2.644  18.780
   25ARHM    H2 9719   2.312   2.747  18.762
   25ARHM    O2 9720   2.381   2.561  18.827
   25ARHM    C3 9721   2.171   2.654  18.888
   25ARHM    H3 9722   2.094   2.727  18.857
   25ARHM    O3 9723   2.237   2.699  19.007
   25ARHM    C4 9724   2.107   2.517  18.907
   25ARHM    H4 9725   2.187   2.445  18.934
   25ARHM    O4 9726   2.011   2.516  19.013
   25ARHM   HO4 9727   2.005   2.427  19.049
   25ARHM    C6 9728   1.976   2.339  18.778
   25ARHM   H61 9729   1.938   2.313  18.676
   25ARHM   H62 9730   2.047   2.259  18.810
   25ARHM   H63 9731   1.890   2.341  18.848
   26BMANN   C1 9732   2.505   2.586  18.766
   26BMANN   H1 9733   2.515   2.691  18.732
   26BMANN   C5 9734   2.655   2.513  18.597
   26BMANN   H5 9735   2.663   2.619  18.566
   26BMANN   O5 9736   2.526   2.495  18.658
   26BMANN   C2 9737   2.607   2.557  18.874
   26BMANN   H2 9738   2.592   2.635  18.952
   26BMANN    N 9739   2.586   2.427  18.938
   26BMANN   HN 9740   2.531   2.363  18.885
   26BMANN    C 9741   2.629   2.397  19.061
   26BMANN    O 9742   2.696   2.475  19.128
   26BMANN   CT 9743   2.593   2.261  19.116
   26BMANN  HT1 9744   2.514   2.214  19.055
   26BMANN  HT2 9745   2.558   2.272  19.221
   26BMANN  HT3 9746   2.684   2.197  19.116
   26BMANN   C3 9747   2.745   2.577  18.816
   26BMANN   H3 9748   2.752   2.682  18.778
   26BMANN   O3 9749   2.847   2.563  18.915
   26BMANN  HO3 9750   2.807   2.528  18.995
   26BMANN   C4 9751   2.765   2.484  18.698
   26BMANN   H4 9752   2.758   2.379  18.732
   26BMANN   O4 9753   2.893   2.502  18.637
   26BMANN  HO4 9754   2.956   2.516  18.708
   26BMANN   C6 9755   2.664   2.431  18.469
   26BMANN  H61 9756   2.574   2.451  18.407
   26BMANN  H62 9757   2.752   2.463  18.410
   26BMANN   O6 9758   2.672   2.291  18.493
   26BMANN  HO6 9759   2.760   2.269  18.526
   27BGLCN   C1 9760   2.160   2.785  19.086
   27BGLCN   H1 9761   2.052   2.760  19.079
   27BGLCN   C5 9762   2.109   3.011  19.131
   27BGLCN   H5 9763   2.002   2.985  19.125
   27BGLCN   O5 9764   2.184   2.920  19.049
   27BGLCN   C2 9765   2.210   2.763  19.227
   27BGLCN   H2 9766   2.317   2.795  19.230
   27BGLCN    N 9767   2.207   2.621  19.260
   27BGLCN   HN 9768   2.149   2.565  19.201
   27BGLCN    C 9769   2.290   2.560  19.346
   27BGLCN    O 9770   2.368   2.621  19.418
   27BGLCN   CT 9771   2.284   2.410  19.351
   27BGLCN  HT1 9772   2.186   2.374  19.312
   27BGLCN  HT2 9773   2.298   2.376  19.455
   27BGLCN  HT3 9774   2.366   2.369  19.288
   27BGLCN   C3 9775   2.132   2.853  19.321
   27BGLCN   H3 9776   2.024   2.827  19.310
   27BGLCN   O3 9777   2.174   2.824  19.455
   27BGLCN   C4 9778   2.152   2.997  19.276
   27BGLCN   H4 9779   2.260   3.022  19.285
   27BGLCN   O4 9780   2.079   3.089  19.356
   27BGLCN  HO4 9781   1.985   3.078  19.341
   27BGLCN   C6 9782   2.125   3.150  19.072
   27BGLCN  H61 9783   2.084   3.227  19.141
   27BGLCN  H62 9784   2.233   3.173  19.056
   27BGLCN   O6 9785   2.054   3.161  18.948
   27BGLCN  HO6 9786   2.111   3.134  18.876
   28AGAL    C1 9787   2.098   2.873   0.090
   28AGAL    H1 9788   2.118   2.981   0.103
   28AGAL    C5 9789   1.921   2.712   0.066
   28AGAL    H5 9790   1.981   2.667  19.457
   28AGAL    O5 9791   1.956   2.852   0.071
   28AGAL    C2 9792   2.139   2.805   0.220
   28AGAL    H2 9793   2.066   2.848   0.292
   28AGAL    O2 9794   2.272   2.834   0.269
   28AGAL    C3 9795   2.113   2.655   0.211
   28AGAL    H3 9796   2.165   2.616   0.121
   28AGAL    O3 9797   2.167   2.585   0.323
   28AGAL   HO3 9798   2.115   2.507   0.345
   28AGAL    C4 9799   1.963   2.636   0.193
   28AGAL    H4 9800   1.943   2.528   0.177
   28AGAL    O4 9801   1.891   2.678   0.309
   28AGAL   HO4 9802   1.847   2.600   0.345
   28AGAL    C6 9803   1.776   2.694   0.022
   28AGAL   H61 9804   1.756   2.760  19.407
   28AGAL   H62 9805   1.763   2.589  19.460
   28AGAL    O6 9806   1.678   2.718   0.123
   28AGAL   HO6 9807   1.673   2.812   0.144
   29ARHM    C1 9808   2.267   2.875   0.404
   29ARHM    H1 9809   2.181   2.827   0.455
   29ARHM    C5 9810   2.367   3.087   0.358
   29ARHM    H5 9811   2.379   3.059   0.251
   29ARHM    O5 9812   2.254   3.018   0.413
   29ARHM    C2 9813   2.390   2.832   0.482
   29ARHM    H2 9814   2.402   2.722   0.468
   29ARHM    O2 9815   2.371   2.861   0.623
   29ARHM    C3 9816   2.513   2.899   0.428
   29ARHM    H3 9817   2.526   2.869   0.322
   29ARHM    O3 9818   2.630   2.859   0.500
   29ARHM   HO3 9819   2.706   2.894   0.453
   29ARHM    C4 9820   2.493   3.049   0.434
   29ARHM    H4 9821   2.479   3.078   0.540
   29ARHM    O4 9822   2.607   3.121   0.386
   29ARHM   HO4 9823   2.627   3.100   0.295
   29ARHM    C6 9824   2.333   3.237   0.366
   29ARHM   H61 9825   2.239   3.256   0.311
   29ARHM   H62 9826   2.320   3.266   0.472
   29ARHM   H63 9827   2.415   3.297   0.322
   30ARHM    C1 9828   2.326   2.751   0.698
   30ARHM    H1 9829   2.388   2.663   0.673
   30ARHM    C5 9830   2.098   2.828   0.707
   30ARHM    H5 9831   2.125   2.919   0.649
   30ARHM    O5 9832   2.188   2.721   0.673
   30ARHM    C2 9833   2.339   2.780   0.847
   30ARHM    H2 9834   2.444   2.811   0.867
   30ARHM    O2 9835   2.307   2.662   0.921
   30ARHM    C3 9836   2.248   2.894   0.890
   30ARHM    H3 9837   2.276   2.982   0.830
   30ARHM    O3 9838   2.271   2.929   1.029
   30ARHM    C4 9839   2.105   2.859   0.856
   30ARHM    H4 9840   2.071   2.769   0.912
   30ARHM    O4 9841   2.016   2.967   0.885
   30ARHM   HO4 9842   1.934   2.951   0.839
   30ARHM    C6 9843   1.960   2.779   0.661
   30ARHM   H61 9844   1.884   2.859   0.673
   30ARHM   H62 9845   1.964   2.749   0.554
   30ARHM   H63 9846   1.929   2.690   0.720
   31BMANN   C1 9847   2.413   2.571   0.938
   31BMANN   H1 9848   2.507   2.625   0.959
   31BMANN   C5 9849   2.537   2.390   0.844
   31BMANN   H5 9850   2.631   2.448   0.859
   31BMANN   O5 9851   2.428   2.483   0.826
   31BMANN   C2 9852   2.374   2.487   1.057
   31BMANN   H2 9853   2.365   2.556   1.144
   31BMANN    N 9854   2.244   2.423   1.039
   31BMANN   HN 9855   2.214   2.409   0.945
   31BMANN    C 9856   2.164   2.388   1.139
   31BMANN    O 9857   2.198   2.403   1.256
   31BMANN   CT 9858   2.031   2.327   1.102
   31BMANN  HT1 9859   2.046   2.243   1.031
   31BMANN  HT2 9860   1.967   2.404   1.054
   31BMANN  HT3 9861   1.981   2.290   1.194
   31BMANN   C3 9862   2.488   2.392   1.086
   31BMANN   H3 9863   2.580   2.451   1.104
   31BMANN   O3 9864   2.463   2.317   1.205
   31BMANN  HO3 9865   2.374   2.335   1.236
   31BMANN   C4 9866   2.511   2.303   0.966
   31BMANN   H4 9867   2.421   2.240   0.948
   31BMANN   O4 9868   2.622   2.218   0.991
   31BMANN  HO4 9869   2.614   2.196   1.085
   31BMANN   C6 9870   2.553   2.307   0.718
   31BMANN  H61 9871   2.648   2.248   0.722
   31BMANN  H62 9872   2.469   2.234   0.712
   31BMANN   O6 9873   2.552   2.385   0.597
   31BMANN  HO6 9874   2.641   2.405   0.569
   32BGLCN   C1 9875   2.209   2.852   1.130
   32BGLCN   H1 9876   2.196   2.746   1.100
   32BGLCN   C5 9877   2.019   2.828   1.273
   32BGLCN   H5 9878   2.011   2.723   1.240
   32BGLCN   O5 9879   2.082   2.906   1.169
   32BGLCN   C2 9880   2.299   2.860   1.252
   32BGLCN   H2 9881   2.298   2.966   1.287
   32BGLCN    N 9882   2.435   2.822   1.218
   32BGLCN   HN 9883   2.447   2.730   1.182
   32BGLCN    C 9884   2.543   2.899   1.232
   32BGLCN    O 9885   2.540   3.013   1.280
   32BGLCN   CT 9886   2.670   2.838   1.183
   32BGLCN  HT1 9887   2.650   2.739   1.135
   32BGLCN  HT2 9888   2.740   2.823   1.267
   32BGLCN  HT3 9889   2.715   2.904   1.106
   32BGLCN   C3 9890   2.241   2.774   1.362
   32BGLCN   H3 9891   2.226   2.672   1.319
   32BGLCN   O3 9892   2.327   2.763   1.478
   32BGLCN   C4 9893   2.107   2.832   1.398
   32BGLCN   H4 9894   2.119   2.937   1.430
   32BGLCN   O4 9895   2.046   2.762   1.505
   32BGLCN  HO4 9896   2.104   2.769   1.582
   32BGLCN   C6 9897   1.879   2.881   1.293
   32BGLCN  H61 9898   1.827   2.821   1.371
   32BGLCN  H62 9899   1.882   2.987   1.327
   32BGLCN   O6 9900   1.805   2.873   1.171
   32BGLCN  HO6 9901   1.857   2.918   1.104
   33AGAL    C1 9902   2.335   2.631   1.528
   33AGAL    H1 9903   2.238   2.578   1.514
   33AGAL    C5 9904   2.570   2.606   1.483
   33AGAL    H5 9905   2.573   2.712   1.452
   33AGAL    O5 9906   2.437   2.556   1.459
   33AGAL    C2 9907   2.364   2.631   1.678
   33AGAL    H2 9908   2.366   2.525   1.709
   33AGAL    O2 9909   2.258   2.696   1.752
   33AGAL    C3 9910   2.502   2.691   1.703
   33AGAL    H3 9911   2.503   2.793   1.658
   33AGAL    O3 9912   2.533   2.707   1.842
   33AGAL   HO3 9913   2.617   2.753   1.851
   33AGAL    C4 9914   2.605   2.605   1.632
   33AGAL    H4 9915   2.706   2.649   1.645
   33AGAL    O4 9916   2.608   2.473   1.687
   33AGAL   HO4 9917   2.630   2.479   1.780
   33AGAL    C6 9918   2.672   2.534   1.395
   33AGAL   H61 9919   2.657   2.564   1.289
   33AGAL   H62 9920   2.775   2.566   1.423
   33AGAL    O6 9921   2.666   2.392   1.402
   33AGAL   HO6 9922   2.581   2.361   1.370
   34ARHM    C1 9923   2.226   2.631   1.874
   34ARHM    H1 9924   2.319   2.608   1.930
   34ARHM    C5 9925   2.030   2.526   1.785
   34ARHM    H5 9926   2.049   2.568   1.683
   34ARHM    O5 9927   2.154   2.509   1.853
   34ARHM    C2 9928   2.140   2.725   1.956
   34ARHM    H2 9929   2.194   2.822   1.966
   34ARHM    O2 9930   2.109   2.677   2.089
   34ARHM    C3 9931   2.009   2.752   1.883
   34ARHM    H3 9932   2.033   2.796   1.783
   34ARHM    O3 9933   1.928   2.847   1.952
   34ARHM   HO3 9934   1.870   2.890   1.888
   34ARHM    C4 9935   1.938   2.620   1.862
   34ARHM    H4 9936   1.916   2.574   1.960
   34ARHM    O4 9937   1.814   2.636   1.792
   34ARHM   HO4 9938   1.749   2.673   1.852
   34ARHM    C6 9939   1.973   2.384   1.767
   34ARHM   H61 9940   1.953   2.339   1.867
   34ARHM   H62 9941   1.879   2.387   1.708
   34ARHM   H63 9942   2.047   2.320   1.714
   35ARHM    C1 9943   2.216   2.655   2.179
   35ARHM    H1 9944   2.296   2.730   2.162
   35ARHM    C5 9945   2.172   2.421   2.184
   35ARHM    H5 9946   2.093   2.430   2.106
   35ARHM    O5 9947   2.271   2.524   2.166
   35ARHM    C2 9948   2.158   2.670   2.319
   35ARHM    H2 9949   2.112   2.771   2.326
   35ARHM    O2 9950   2.252   2.654   2.427
   35ARHM    C3 9951   2.049   2.568   2.339
   35ARHM    H3 9952   1.970   2.582   2.263
   35ARHM    O3 9953   1.987   2.587   2.467
   35ARHM   HO3 9954   2.056   2.590   2.533
   35ARHM    C4 9955   2.109   2.430   2.323
   35ARHM    H4 9956   2.189   2.415   2.398
   35ARHM    O4 9957   2.010   2.329   2.342
   35ARHM   HO4 9958   1.975   2.339   2.430
   35ARHM    C6 9959   2.248   2.289   2.159
   35ARHM   H61 9960   2.290   2.289   2.056
   35ARHM   H62 9961   2.331   2.278   2.232
   35ARHM   H63 9962   2.179   2.202   2.169
   36BMANN   C1 9963   2.345   2.758   2.441
   36BMANN   H1 9964   2.297   2.855   2.415
   36BMANN   C5 9965   2.555   2.840   2.364
   36BMANN   H5 9966   2.505   2.934   2.331
   36BMANN   O5 9967   2.459   2.734   2.357
   36BMANN   C2 9968   2.393   2.763   2.585
   36BMANN   H2 9969   2.303   2.784   2.647
   36BMANN    N 9970   2.451   2.636   2.630
   36BMANN   HN 9971   2.500   2.583   2.562
   36BMANN    C 9972   2.448   2.592   2.756
   36BMANN    O 9973   2.384   2.647   2.846
   36BMANN   CT 9974   2.528   2.468   2.785
   36BMANN  HT1 9975   2.624   2.471   2.729
   36BMANN  HT2 9976   2.471   2.378   2.755
   36BMANN  HT3 9977   2.551   2.463   2.894
   36BMANN   C3 9978   2.488   2.881   2.598
   36BMANN   H3 9979   2.435   2.973   2.566
   36BMANN   O3 9980   2.530   2.901   2.733
   36BMANN  HO3 9981   2.474   2.966   2.776
   36BMANN   C4 9982   2.606   2.859   2.506
   36BMANN   H4 9983   2.662   2.769   2.539
   36BMANN   O4 9984   2.694   2.971   2.511
   36BMANN  HO4 9985   2.698   2.995   2.604
   36BMANN   C6 9986   2.661   2.804   2.262
   36BMANN  H61 9987   2.613   2.756   2.174
   36BMANN  H62 9988   2.710   2.897   2.223
   36BMANN   O6 9989   2.763   2.717   2.312
   36BMANN  HO6 9990   2.832   2.767   2.356
    1ECLIP HB6S 9991   6.419   3.739  11.810
    1ECLIP  OB6 9992   6.579   3.757  11.945
    1ECLIP  CB6 9993   6.489   3.817  11.846
    1ECLIP HB6R 9994   6.426   3.894  11.895
    1ECLIP  CB5 9995   6.550   3.884  11.724
    1ECLIP  OB5 9996   6.640   3.787  11.668
    1ECLIP  HB5 9997   6.609   3.974  11.755
    1ECLIP  CB1 9998   6.705   3.840  11.550
    1ECLIP  HB1 9999   6.764   3.930  11.577
    1ECLIP  OA610000   6.792   3.746  11.492
    1ECLIP  CA610001   6.745   3.612  11.505
    1ECLIP HA6R10002   6.634   3.608  11.513
    1ECLIP HA6S10003   6.791   3.570  11.597
    1ECLIP  CB410004   6.444   3.934  11.623
    1ECLIP  HB410005   6.380   3.849  11.590
    1ECLIP  OB410006   6.369   4.037  11.689
    1ECLIP   PB10007   6.207   4.024  11.723
    1ECLIP OPB410008   6.181   4.124  11.835
    1ECLIP OPB310009   6.183   3.883  11.773
    1ECLIP OPB210010   6.128   4.062  11.601
    1ECLIP  CB310011   6.518   3.990  11.502
    1ECLIP  OB310012   6.426   4.044  11.406
    1ECLIP  HB310013   6.584   4.070  11.542
    1ECLIP  C7110014   6.475   4.142  11.330
    1ECLIP  O7110015   6.592   4.178  11.333
    1ECLIP  C7210016   6.389   4.169  11.208
    1ECLIP H72R10017   6.449   4.138  11.120
    1ECLIP H72S10018   6.373   4.279  11.203
    1ECLIP  CB210019   6.604   3.878  11.442
    1ECLIP  HB210020   6.536   3.792  11.426
    1ECLIP  NB210021   6.669   3.908  11.314
    1ECLIP HNB210022   6.733   3.984  11.315
    1ECLIP  CA410023   6.920   3.550  11.330
    1ECLIP  HA410024   6.914   3.650  11.282
    1ECLIP  OA410025   7.021   3.552  11.431
    1ECLIP HOA410026   7.066   3.636  11.421
    1ECLIP  CA510027   6.786   3.523  11.392
    1ECLIP  HA510028   6.787   3.420  11.432
    1ECLIP  OA510029   6.685   3.534  11.293
    1ECLIP  CA110030   6.696   3.435  11.190
    1ECLIP  HA110031   6.617   3.458  11.116
    1ECLIP  OA110032   6.677   3.301  11.238
    1ECLIP OPA210033   6.515   3.132  11.366
    1ECLIP OPA310034   6.546   3.342  11.466
    1ECLIP OPA410035   6.412   3.320  11.268
    1ECLIP   PA10036   6.543   3.276  11.329
    1ECLIP  CA310037   6.945   3.447  11.222
    1ECLIP  HA310038   6.936   3.347  11.271
    1ECLIP  OA310039   7.077   3.450  11.166
    1ECLIP  C3110040   7.119   3.560  11.099
    1ECLIP  O3110041   7.157   3.551  10.983
    1ECLIP  C3210042   7.218   3.634  11.193
    1ECLIP H32R10043   7.316   3.626  11.141
    1ECLIP H32S10044   7.228   3.580  11.290
    1ECLIP  CA210045   6.831   3.455  11.121
    1ECLIP  HA210046   6.830   3.558  11.080
    1ECLIP  NA210047   6.849   3.364  11.009
    1ECLIP HNA210048   6.920   3.296  11.020
    1ECLIP  C7310049   6.253   4.097  11.206
    1ECLIP H73R10050   6.199   4.122  11.300
    1ECLIP  O7310051   6.278   3.956  11.198
    1ECLIP  C8110052   6.176   3.879  11.234
    1ECLIP  O8110053   6.061   3.916  11.250
    1ECLIP  C8210054   6.211   3.734  11.200
    1ECLIP H82R10055   6.134   3.670  11.247
    1ECLIP H82S10056   6.310   3.711  11.244
    1ECLIP  C8310057   6.213   3.711  11.047
    1ECLIP H83R10058   6.295   3.773  11.005
    1ECLIP H83S10059   6.118   3.747  11.001
    1ECLIP  C8410060   6.237   3.565  11.007
    1ECLIP H84R10061   6.144   3.506  11.021
    1ECLIP H84S10062   6.315   3.521  11.073
    1ECLIP  C8510063   6.286   3.556  10.862
    1ECLIP H85R10064   6.387   3.602  10.860
    1ECLIP H85S10065   6.218   3.616  10.797
    1ECLIP  C8610066   6.298   3.413  10.808
    1ECLIP H86R10067   6.196   3.372  10.793
    1ECLIP H86S10068   6.350   3.351  10.885
    1ECLIP  C8710069   6.378   3.404  10.678
    1ECLIP H87R10070   6.373   3.301  10.637
    1ECLIP H87S10071   6.485   3.426  10.701
    1ECLIP  C8810072   6.331   3.503  10.571
    1ECLIP H88R10073   6.356   3.606  10.606
    1ECLIP H88S10074   6.221   3.499  10.560
    1ECLIP  C8910075   6.399   3.481  10.435
    1ECLIP H89R10076   6.499   3.433  10.448
    1ECLIP H89S10077   6.419   3.581  10.392
    1ECLIP C81010078   6.313   3.403  10.335
    1ECLIPH810R10079   6.206   3.413  10.362
    1ECLIPH810S10080   6.339   3.295  10.343
    1ECLIP C81110081   6.333   3.452  10.191
    1ECLIPH811R10082   6.284   3.381  10.122
    1ECLIPH811S10083   6.442   3.451  10.171
    1ECLIP C81210084   6.279   3.593  10.162
    1ECLIPH812R10085   6.320   3.627  10.065
    1ECLIPH812S10086   6.314   3.665  10.239
    1ECLIP C81310087   6.126   3.601  10.157
    1ECLIPH813R10088   6.088   3.538  10.074
    1ECLIPH813S10089   6.084   3.560  10.252
    1ECLIP C81410090   6.074   3.745  10.140
    1ECLIPH814R10091   6.114   3.791  10.047
    1ECLIPH814S10092   6.106   3.807  10.226
    1ECLIPH814T10093   5.963   3.746  10.136
    1ECLIP  C7410094   6.169   4.143  11.084
    1ECLIP H74R10095   6.158   4.254  11.089
    1ECLIP H74S10096   6.067   4.101  11.096
    1ECLIP  C7510097   6.221   4.102  10.945
    1ECLIP H75R10098   6.132   4.085  10.880
    1ECLIP H75S10099   6.275   4.005  10.952
    1ECLIP  C7610100   6.309   4.207  10.874
    1ECLIP H76R10101   6.406   4.219  10.927
    1ECLIP H76S10102   6.257   4.305  10.876
    1ECLIP  C7710103   6.337   4.168  10.728
    1ECLIP H77R10104   6.239   4.150  10.678
    1ECLIP H77S10105   6.393   4.073  10.726
    1ECLIP  C7810106   6.414   4.276  10.650
    1ECLIP H78R10107   6.355   4.369  10.649
    1ECLIP H78S10108   6.509   4.297  10.703
    1ECLIP  C7910109   6.447   4.236  10.504
    1ECLIP H79R10110   6.517   4.150  10.506
    1ECLIP H79S10111   6.500   4.321  10.456
    1ECLIP C71010112   6.324   4.197  10.421
    1ECLIPH710R10113   6.277   4.107  10.466
    1ECLIPH710S10114   6.250   4.280  10.425
    1ECLIP C71110115   6.357   4.164  10.274
    1ECLIPH711R10116   6.395   4.256  10.225
    1ECLIPH711S10117   6.437   4.087  10.271
    1ECLIP C71210118   6.233   4.111  10.200
    1ECLIPH712R10119   6.151   4.186  10.209
    1ECLIPH712S10120   6.199   4.019  10.252
    1ECLIP C71310121   6.256   4.080  10.052
    1ECLIPH713R10122   6.342   4.009  10.043
    1ECLIPH713S10123   6.166   4.028  10.013
    1ECLIP C71410124   6.281   4.204   9.966
    1ECLIPH714R10125   6.200   4.277   9.979
    1ECLIPH714S10126   6.377   4.252   9.995
    1ECLIPH714T10127   6.287   4.176   9.858
    1ECLIP  C5110128   6.641   3.850  11.195
    1ECLIP  O5110129   6.551   3.768  11.181
    1ECLIP  C5210130   6.730   3.890  11.078
    1ECLIP H52R10131   6.719   3.999  11.062
    1ECLIP H52S10132   6.835   3.868  11.107
    1ECLIP  C5310133   6.698   3.815  10.945
    1ECLIP H53R10134   6.691   3.705  10.964
    1ECLIP  O5310135   6.799   3.848  10.849
    1ECLIP  C6110136   6.889   3.757  10.817
    1ECLIP  O6110137   6.913   3.655  10.879
    1ECLIP  C6210138   6.984   3.818  10.712
    1ECLIP H62R10139   7.056   3.883  10.765
    1ECLIP H62S10140   6.921   3.881  10.645
    1ECLIP  C6310141   7.065   3.717  10.627
    1ECLIP H63R10142   6.993   3.654  10.571
    1ECLIP H63S10143   7.124   3.651  10.694
    1ECLIP  C6410144   7.159   3.785  10.526
    1ECLIP H64R10145   7.207   3.706  10.464
    1ECLIP H64S10146   7.240   3.838  10.581
    1ECLIP  C6510147   7.086   3.886  10.436
    1ECLIP H65R10148   7.053   3.969  10.502
    1ECLIP H65S10149   6.996   3.837  10.393
    1ECLIP  C6610150   7.167   3.950  10.324
    1ECLIP H66R10151   7.245   4.016  10.368
    1ECLIP H66S10152   7.100   4.016  10.265
    1ECLIP  C6710153   7.234   3.852  10.227
    1ECLIP H67R10154   7.315   3.797  10.281
    1ECLIP H67S10155   7.282   3.912  10.147
    1ECLIP  C6810156   7.140   3.749  10.163
    1ECLIP H68R10157   7.046   3.800  10.132
    1ECLIP H68S10158   7.114   3.671  10.237
    1ECLIP  C6910159   7.206   3.686  10.039
    1ECLIP H69R10160   7.306   3.648  10.065
    1ECLIP H69S10161   7.219   3.769   9.966
    1ECLIP C61010162   7.122   3.573   9.978
    1ECLIPH610R10163   7.016   3.606   9.972
    1ECLIPH610S10164   7.124   3.486  10.047
    1ECLIP C61110165   7.169   3.529   9.838
    1ECLIPH611R10166   7.261   3.468   9.849
    1ECLIPH611S10167   7.090   3.463   9.796
    1ECLIP C61210168   7.198   3.643   9.739
    1ECLIPH612R10169   7.113   3.715   9.738
    1ECLIPH612S10170   7.290   3.697   9.768
    1ECLIPH612T10171   7.212   3.604   9.636
    1ECLIP  C5410172   6.565   3.863  10.882
    1ECLIP H54R10173   6.569   3.973  10.868
    1ECLIP H54S10174   6.485   3.842  10.956
    1ECLIP  C5510175   6.529   3.794  10.749
    1ECLIP H55R10176   6.419   3.798  10.736
    1ECLIP H55S10177   6.559   3.687  10.756
    1ECLIP  C5610178   6.592   3.857  10.624
    1ECLIP H56R10179   6.702   3.869  10.638
    1ECLIP H56S10180   6.550   3.959  10.609
    1ECLIP  C5710181   6.570   3.773  10.498
    1ECLIP H57R10182   6.462   3.775  10.473
    1ECLIP H57S10183   6.600   3.668  10.519
    1ECLIP  C5810184   6.651   3.825  10.379
    1ECLIP H58R10185   6.622   3.931  10.361
    1ECLIP H58S10186   6.759   3.824  10.404
    1ECLIP  C5910187   6.629   3.746  10.249
    1ECLIP H59R10188   6.520   3.749  10.224
    1ECLIP H59S10189   6.658   3.640  10.264
    1ECLIP C51010190   6.707   3.809  10.134
    1ECLIPH510R10191   6.816   3.805  10.156
    1ECLIPH510S10192   6.678   3.916  10.129
    1ECLIP C51110193   6.680   3.746   9.997
    1ECLIPH511R10194   6.729   3.647   9.989
    1ECLIPH511S10195   6.570   3.730   9.987
    1ECLIP C51210196   6.725   3.838   9.882
    1ECLIPH512R10197   6.685   3.798   9.787
    1ECLIPH512S10198   6.680   3.939   9.897
    1ECLIP C51310199   6.876   3.853   9.869
    1ECLIPH513R10200   6.921   3.751   9.867
    1ECLIPH513S10201   6.917   3.906   9.958
    1ECLIP C51410202   6.918   3.927   9.742
    1ECLIPH514R10203   6.875   4.029   9.740
    1ECLIPH514S10204   7.029   3.935   9.737
    1ECLIPH514T10205   6.882   3.871   9.652
    1ECLIP  C3310206   7.189   3.785  11.214
    1ECLIP H33R10207   7.284   3.835  11.241
    1ECLIP  O3310208   7.101   3.800  11.323
    1ECLIP HO3310209   7.096   3.889  11.358
    1ECLIP  C3410210   7.128   3.853  11.090
    1ECLIP H34R10211   7.031   3.802  11.067
    1ECLIP H34S10212   7.194   3.835  11.003
    1ECLIP  C3510213   7.099   4.005  11.100
    1ECLIP H35R10214   7.191   4.062  11.125
    1ECLIP H35S10215   7.025   4.022  11.180
    1ECLIP  C3610216   7.041   4.054  10.966
    1ECLIP H36R10217   6.975   3.972  10.932
    1ECLIP H36S10218   7.121   4.068  10.891
    1ECLIP  C3710219   6.947   4.176  10.969
    1ECLIP H37R10220   7.006   4.269  10.957
    1ECLIP H37S10221   6.895   4.180  11.067
    1ECLIP  C3810222   6.841   4.172  10.858
    1ECLIP H38R10223   6.780   4.079  10.867
    1ECLIP H38S10224   6.770   4.255  10.875
    1ECLIP  C3910225   6.898   4.177  10.716
    1ECLIP H39R10226   6.963   4.088  10.701
    1ECLIP H39S10227   6.965   4.265  10.705
    1ECLIP C31010228   6.790   4.179  10.606
    1ECLIPH310R10229   6.743   4.279  10.604
    1ECLIPH310S10230   6.710   4.106  10.632
    1ECLIP C31110231   6.849   4.141  10.468
    1ECLIPH311R10232   6.950   4.187  10.459
    1ECLIPH311S10233   6.860   4.031  10.467
    1ECLIP C31210234   6.768   4.180  10.343
    1ECLIPH312R10235   6.668   4.132  10.346
    1ECLIPH312S10236   6.751   4.289  10.339
    1ECLIP C31310237   6.841   4.137  10.215
    1ECLIPH313R10238   6.942   4.185  10.214
    1ECLIPH313S10239   6.858   4.027  10.220
    1ECLIP C31410240   6.768   4.173  10.086
    1ECLIPH314R10241   6.771   4.283  10.072
    1ECLIPH314S10242   6.816   4.125   9.999
    1ECLIPH314T10243   6.662   4.140  10.091
    1ECLIP  C1110244   6.771   3.365  10.899
    1ECLIP  O1110245   6.689   3.453  10.875
    1ECLIP  C1210246   6.787   3.249  10.805
    1ECLIP H12R10247   6.697   3.185  10.815
    1ECLIP H12S10248   6.877   3.190  10.831
    1ECLIP  C1310249   6.797   3.301  10.661
    1ECLIP H13R10250   6.709   3.365  10.637
    1ECLIP  O1310251   6.793   3.188  10.576
    1ECLIP HO1310252   6.795   3.213  10.483
    1ECLIP  C1410253   6.927   3.380  10.634
    1ECLIP H14R10254   7.011   3.326  10.684
    1ECLIP H14S10255   6.918   3.479  10.683
    1ECLIP  C1510256   6.967   3.398  10.486
    1ECLIP H15R10257   6.989   3.298  10.444
    1ECLIP H15S10258   7.062   3.455  10.481
    1ECLIP  C1610259   6.863   3.470  10.397
    1ECLIP H16R10260   6.886   3.578  10.396
    1ECLIP H16S10261   6.760   3.459  10.439
    1ECLIP  C1710262   6.861   3.416  10.253
    1ECLIP H17R10263   6.967   3.412  10.217
    1ECLIP H17S10264   6.807   3.486  10.187
    1ECLIP  C1810265   6.797   3.277  10.243
    1ECLIP H18R10266   6.834   3.214  10.327
    1ECLIP H18S10267   6.687   3.285  10.253
    1ECLIP  C1910268   6.834   3.200  10.115
    1ECLIP H19R10269   6.807   3.094  10.129
    1ECLIP H19S10270   6.944   3.205  10.101
    1ECLIP C11010271   6.763   3.252   9.990
    1ECLIPH110R10272   6.653   3.241  10.003
    1ECLIPH110S10273   6.785   3.360   9.977
    1ECLIP C11110274   6.809   3.176   9.866
    1ECLIPH111R10275   6.917   3.196   9.851
    1ECLIPH111S10276   6.797   3.067   9.882
    1ECLIP C11210277   6.733   3.218   9.740
    1ECLIPH112R10278   6.627   3.183   9.745
    1ECLIPH112S10279   6.730   3.329   9.736
    1ECLIP C11310280   6.797   3.164   9.612
    1ECLIPH113R10281   6.907   3.176   9.621
    1ECLIPH113S10282   6.775   3.055   9.604
    1ECLIP C11410283   6.749   3.236   9.487
    1ECLIPH114R10284   6.639   3.244   9.486
    1ECLIPH114S10285   6.790   3.339   9.484
    1ECLIPH114T10286   6.783   3.184   9.395
    2AKDO    C110287   6.732   3.933  11.970
    2AKDO   O1110288   6.723   4.057  11.975
    2AKDO   O1210289   6.816   3.861  11.907
    2AKDO    C210290   6.625   3.850  12.044
    2AKDO    C610291   6.422   3.827  12.168
    2AKDO    H610292   6.393   3.754  12.089
    2AKDO    O610293   6.516   3.919  12.108
    2AKDO    C310294   6.693   3.772  12.156
    2AKDO   H3110295   6.724   3.842  12.237
    2AKDO   H3210296   6.787   3.726  12.118
    2AKDO    C410297   6.604   3.672  12.218
    2AKDO    H410298   6.564   3.602  12.142
    2AKDO    O410299   6.680   3.599  12.314
    2AKDO    C510300   6.483   3.742  12.280
    2AKDO    H510301   6.410   3.659  12.290
    2AKDO    O510302   6.499   3.803  12.412
    2AKDO    C710303   6.293   3.900  12.199
    2AKDO    H710304   6.309   3.973  12.281
    2AKDO    O710305   6.189   3.806  12.232
    2AKDO   HO710306   6.138   3.798  12.150
    2AKDO    C810307   6.252   3.974  12.075
    2AKDO   H8110308   6.332   4.044  12.042
    2AKDO   H8210309   6.242   3.898  11.995
    2AKDO    O810310   6.128   4.045  12.082
    2AKDO   HO810311   6.105   4.041  11.989
    3AKDO    C110312   6.754   3.434  12.143
    3AKDO   O1110313   6.761   3.498  12.033
    3AKDO   O1210314   6.700   3.323  12.164
    3AKDO    C210315   6.789   3.515  12.273
    3AKDO    C610316   6.963   3.666  12.358
    3AKDO    H610317   6.889   3.747  12.375
    3AKDO    O610318   6.916   3.582  12.250
    3AKDO    C310319   6.804   3.433  12.402
    3AKDO   H3110320   6.880   3.354  12.385
    3AKDO   H3210321   6.707   3.382  12.423
    3AKDO    C410322   6.843   3.520  12.518
    3AKDO    H410323   6.771   3.603  12.530
    3AKDO    O410324   6.840   3.445  12.639
    3AKDO   HO410325   6.752   3.453  12.675
    3AKDO    C510326   6.978   3.584  12.487
    3AKDO    H510327   7.002   3.654  12.570
    3AKDO    O510328   7.085   3.489  12.479
    3AKDO   HO510329   7.086   3.455  12.389
    3AKDO    C710330   7.096   3.729  12.317
    3AKDO    H710331   7.170   3.649  12.299
    3AKDO    O710332   7.144   3.816  12.421
    3AKDO   HO710333   7.150   3.900  12.375
    3AKDO    C810334   7.084   3.811  12.190
    3AKDO   H8110335   7.045   3.748  12.107
    3AKDO   H8210336   7.015   3.897  12.204
    3AKDO    O810337   7.215   3.859  12.155
    3AKDO   HO810338   7.209   3.905  12.071
    4AHEP    C110339   6.383   3.791  12.495
    4AHEP    H110340   6.304   3.856  12.452
    4AHEP    C510341   6.417   3.564  12.558
    4AHEP    H510342   6.518   3.580  12.516
    4AHEP    O510343   6.329   3.658  12.494
    4AHEP    C210344   6.398   3.837  12.640
    4AHEP    H210345   6.449   3.936  12.637
    4AHEP    O210346   6.271   3.859  12.703
    4AHEP   HO210347   6.236   3.945  12.678
    4AHEP    C310348   6.485   3.740  12.719
    4AHEP    H310349   6.587   3.742  12.676
    4AHEP    O310350   6.486   3.774  12.859
    4AHEP    C410351   6.426   3.601  12.707
    4AHEP    H410352   6.323   3.604  12.748
    4AHEP    O410353   6.510   3.510  12.778
    4AHEP    P410354   6.446   3.407  12.889
    4AHEP  OP4210355   6.561   3.343  12.965
    4AHEP  OP4310356   6.385   3.291  12.812
    4AHEP  OP4410357   6.344   3.475  12.978
    4AHEP    C610358   6.382   3.420  12.516
    4AHEP    H610359   6.472   3.358  12.537
    4AHEP    O610360   6.272   3.367  12.591
    4AHEP   HO610361   6.310   3.350  12.678
    4AHEP    C710362   6.351   3.411  12.366
    4AHEP   H7110363   6.339   3.306  12.332
    4AHEP   H7210364   6.438   3.449  12.309
    4AHEP    O710365   6.232   3.482  12.327
    4AHEP   HO710366   6.236   3.561  12.382
    5AHEP    C110367   6.610   3.806  12.916
    5AHEP    H110368   6.690   3.746  12.867
    5AHEP    C510369   6.536   4.030  12.961
    5AHEP    H510370   6.439   4.011  12.910
    5AHEP    O510371   6.639   3.947  12.903
    5AHEP    C210372   6.609   3.772  13.064
    5AHEP    H210373   6.579   3.666  13.072
    5AHEP    O210374   6.739   3.784  13.122
    5AHEP   HO210375   6.789   3.705  13.103
    5AHEP    C310376   6.501   3.853  13.134
    5AHEP    H310377   6.402   3.821  13.094
    5AHEP    O310378   6.507   3.834  13.277
    5AHEP    C410379   6.523   4.001  13.112
    5AHEP    H410380   6.609   4.040  13.170
    5AHEP    O410381   6.397   4.056  13.152
    5AHEP    P410382   6.360   4.168  13.263
    5AHEP  OP4210383   6.209   4.186  13.258
    5AHEP  OP4310384   6.412   4.300  13.211
    5AHEP  OP4410385   6.405   4.127  13.402
    5AHEP    C610386   6.581   4.175  12.931
    5AHEP    H610387   6.513   4.244  12.985
    5AHEP    O610388   6.715   4.199  12.975
    5AHEP   HO610389   6.761   4.197  12.890
    5AHEP    C710390   6.578   4.207  12.781
    5AHEP   H7110391   6.548   4.314  12.772
    5AHEP   H7210392   6.499   4.150  12.728
    5AHEP    O710393   6.706   4.198  12.714
    6AHEP    C110394   6.724   4.073  12.651
    6AHEP    H110395   6.644   4.003  12.682
    6AHEP    C510396   6.820   4.149  12.444
    6AHEP    H510397   6.822   4.250  12.491
    6AHEP    O510398   6.712   4.077  12.508
    6AHEP    C210399   6.856   4.011  12.696
    6AHEP    H210400   6.864   4.027  12.806
    6AHEP    O210401   6.863   3.870  12.676
    6AHEP   HO210402   6.815   3.826  12.747
    6AHEP    C310403   6.969   4.087  12.631
    6AHEP    H310404   6.958   4.194  12.657
    6AHEP    O310405   7.100   4.049  12.676
    6AHEP   HO310406   7.152   4.051  12.596
    6AHEP    C410407   6.951   4.077  12.480
    6AHEP    H410408   6.934   3.970  12.454
    6AHEP    O410409   7.069   4.113  12.408
    6AHEP   HO410410   7.086   4.207  12.420
    6AHEP    C610411   6.799   4.177  12.295
    6AHEP    H610412   6.875   4.251  12.262
    6AHEP    O610413   6.823   4.058  12.222
    6AHEP   HO610414   6.800   4.077  12.131
    6AHEP    C710415   6.662   4.235  12.257
    6AHEP   H7110416   6.665   4.262  12.149
    6AHEP   H7210417   6.646   4.330  12.313
    6AHEP    O710418   6.550   4.148  12.279
    6AHEP   HO710419   6.578   4.065  12.240
    7AGLC    C110420   6.423   3.737  13.332
    7AGLC    H110421   6.322   3.746  13.288
    7AGLC    C510422   6.603   3.584  13.367
    7AGLC    H510423   6.672   3.663  13.329
    7AGLC    O510424   6.473   3.604  13.311
    7AGLC    C210425   6.414   3.760  13.483
    7AGLC    H210426   6.347   3.681  13.523
    7AGLC    O210427   6.351   3.884  13.516
    7AGLC   HO210428   6.389   3.958  13.468
    7AGLC    C310429   6.549   3.741  13.553
    7AGLC    H310430   6.620   3.816  13.511
    7AGLC    O310431   6.542   3.754  13.698
    7AGLC    C410432   6.596   3.601  13.518
    7AGLC    H410433   6.521   3.528  13.556
    7AGLC    O410434   6.721   3.568  13.578
    7AGLC   HO410435   6.706   3.514  13.656
    7AGLC    C610436   6.657   3.450  13.318
    7AGLC   H6110437   6.636   3.441  13.210
    7AGLC   H6210438   6.768   3.449  13.331
    7AGLC    O610439   6.602   3.338  13.387
    7AGLC   HO610440   6.641   3.334  13.475
    8AGLC    C110441   6.624   3.856  13.752
    8AGLC    H110442   6.723   3.858  13.700
    8AGLC    C510443   6.437   4.001  13.799
    8AGLC    H510444   6.366   3.923  13.764
    8AGLC    O510445   6.565   3.984  13.734
    8AGLC    C210446   6.646   3.839  13.902
    8AGLC    H210447   6.713   3.921  13.935
    8AGLC    O210448   6.706   3.714  13.941
    8AGLC    C310449   6.515   3.851  13.979
    8AGLC    H310450   6.446   3.775  13.936
    8AGLC    O310451   6.536   3.814  14.118
    8AGLC    C410452   6.455   3.987  13.950
    8AGLC    H410453   6.523   4.069  13.981
    8AGLC    O410454   6.329   4.005  14.015
    8AGLC   HO410455   6.288   4.074  13.963
    8AGLC    C610456   6.389   4.135  13.749
    8AGLC   H6110457   6.475   4.206  13.742
    8AGLC   H6210458   6.352   4.121  13.645
    8AGLC    O610459   6.286   4.196  13.829
    8AGLC   HO610460   6.275   4.286  13.797
    9AGAL    C110461   6.826   3.673  13.881
    9AGAL    H110462   6.822   3.684  13.771
    9AGAL    C510463   6.955   3.740  14.072
    9AGAL    H510464   6.863   3.779  14.119
    9AGAL    O510465   6.940   3.746  13.929
    9AGAL    C210466   6.840   3.526  13.916
    9AGAL    H210467   6.931   3.487  13.867
    9AGAL    O210468   6.724   3.464  13.854
    9AGAL    C310469   6.857   3.512  14.068
    9AGAL    H310470   6.764   3.549  14.118
    9AGAL    O310471   6.879   3.377  14.106
    9AGAL   HO310472   6.969   3.358  14.079
    9AGAL    C410473   6.975   3.595  14.115
    9AGAL    H410474   6.975   3.594  14.226
    9AGAL    O410475   7.101   3.542  14.073
    9AGAL   HO410476   7.149   3.615  14.033
    9AGAL    C610477   7.069   3.834  14.110
    9AGAL   H6110478   7.040   3.938  14.086
    9AGAL   H6210479   7.088   3.829  14.219
    9AGAL    O610480   7.192   3.805  14.040
    9AGAL   HO610481   7.181   3.835  13.950
   10AGAL    C110482   6.666   3.345  13.904
   10AGAL    H110483   6.745   3.267  13.909
   10AGAL    C510484   6.500   3.458  14.034
   10AGAL    H510485   6.538   3.553  13.990
   10AGAL    O510486   6.608   3.363  14.034
   10AGAL    C210487   6.556   3.297  13.808
   10AGAL    H210488   6.519   3.200  13.848
   10AGAL    O210489   6.606   3.271  13.676
   10AGAL   HO210490   6.560   3.196  13.639
   10AGAL    C310491   6.439   3.394  13.806
   10AGAL    H310492   6.477   3.493  13.773
   10AGAL    O310493   6.336   3.356  13.715
   10AGAL   HO310494   6.368   3.362  13.625
   10AGAL    C410495   6.385   3.411  13.946
   10AGAL    H410496   6.307   3.490  13.945
   10AGAL    O410497   6.326   3.291  13.998
   10AGAL   HO410498   6.258   3.261  13.937
   10AGAL    C610499   6.462   3.492  14.177
   10AGAL   H6110500   6.552   3.527  14.232
   10AGAL   H6210501   6.386   3.573  14.176
   10AGAL    O610502   6.408   3.379  14.247
   10AGAL   HO610503   6.365   3.326  14.180
   11BGLC    C110504   6.544   3.916  14.215
   11BGLC    H110505   6.443   3.960  14.230
   11BGLC    C510506   6.641   4.125  14.270
   11BGLC    H510507   6.537   4.159  14.285
   11BGLC    O510508   6.636   4.017  14.175
   11BGLC    C210509   6.591   3.855  14.346
   11BGLC    H210510   6.691   3.810  14.329
   11BGLC    O210511   6.503   3.751  14.391
   11BGLC   HO210512   6.479   3.700  14.314
   11BGLC    C310513   6.603   3.963  14.451
   11BGLC    H310514   6.502   4.005  14.473
   11BGLC    O310515   6.664   3.912  14.570
   11BGLC    C410516   6.695   4.072  14.401
   11BGLC    H410517   6.796   4.029  14.383
   11BGLC    O410518   6.707   4.175  14.498
   11BGLC   HO410519   6.701   4.133  14.584
   11BGLC    C610520   6.721   4.238  14.209
   11BGLC   H6110521   6.821   4.243  14.257
   11BGLC   H6210522   6.737   4.219  14.101
   11BGLC    O610523   6.653   4.364  14.224
   11BGLC   HO610524   6.707   4.431  14.181
   12BGLCN   C110525   6.591   3.922  14.689
   12BGLCN   H110526   6.499   3.860  14.682
   12BGLCN   C510527   6.497   4.073  14.846
   12BGLCN   H510528   6.401   4.017  14.846
   12BGLCN   O510529   6.562   4.059  14.719
   12BGLCN   C210530   6.688   3.866  14.792
   12BGLCN   H210531   6.775   3.935  14.792
   12BGLCN    N10532   6.733   3.734  14.750
   12BGLCN   HN10533   6.667   3.678  14.702
   12BGLCN    C10534   6.861   3.695  14.752
   12BGLCN    O10535   6.949   3.760  14.809
   12BGLCN   CT10536   6.894   3.565  14.683
   12BGLCN  HT110537   6.947   3.498  14.754
   12BGLCN  HT210538   6.961   3.585  14.597
   12BGLCN  HT310539   6.802   3.515  14.647
   12BGLCN   C310540   6.626   3.873  14.930
   12BGLCN   H310541   6.536   3.808  14.933
   12BGLCN   O310542   6.722   3.831  15.030
   12BGLCN   C410543   6.588   4.018  14.955
   12BGLCN   H410544   6.681   4.079  14.956
   12BGLCN   O410545   6.525   4.035  15.082
   12BGLCN  HO410546   6.438   3.994  15.082
   12BGLCN   C610547   6.468   4.222  14.863
   12BGLCN  H6110548   6.440   4.244  14.968
   12BGLCN  H6210549   6.560   4.280  14.840
   12BGLCN   O610550   6.362   4.267  14.778
   12BGLCN  HO610551   6.380   4.243  14.687
   13AGAL    C110552   6.668   3.763  15.141
   13AGAL    H110553   6.575   3.813  15.177
   13AGAL    C510554   6.754   3.552  15.067
   13AGAL    H510555   6.802   3.610  14.986
   13AGAL    O510556   6.637   3.626  15.108
   13AGAL    C210557   6.768   3.757  15.257
   13AGAL    H210558   6.721   3.693  15.335
   13AGAL    O210559   6.791   3.887  15.317
   13AGAL    C310560   6.896   3.687  15.214
   13AGAL    H310561   6.935   3.738  15.124
   13AGAL    O310562   6.999   3.693  15.313
   13AGAL   HO310563   7.053   3.771  15.296
   13AGAL    C410564   6.860   3.544  15.177
   13AGAL    H410565   6.950   3.495  15.134
   13AGAL    O410566   6.817   3.468  15.290
   13AGAL   HO410567   6.889   3.468  15.354
   13AGAL    C610568   6.714   3.421  15.001
   13AGAL   H6110569   6.649   3.445  14.913
   13AGAL   H6210570   6.804   3.369  14.962
   13AGAL    O610571   6.641   3.330  15.085
   13AGAL   HO610572   6.705   3.277  15.133
   14ARHM    C110573   6.729   3.908  15.442
   14ARHM    H110574   6.633   3.852  15.446
   14ARHM    C510575   6.809   4.131  15.464
   14ARHM    H510576   6.862   4.123  15.367
   14ARHM    O510577   6.694   4.045  15.463
   14ARHM    C210578   6.819   3.858  15.554
   14ARHM    H210579   6.850   3.754  15.530
   14ARHM    O210580   6.764   3.858  15.687
   14ARHM    C310581   6.943   3.944  15.559
   14ARHM    H310582   6.998   3.936  15.462
   14ARHM    O310583   7.030   3.901  15.663
   14ARHM   HO310584   6.974   3.867  15.733
   14ARHM    C410585   6.902   4.089  15.577
   14ARHM    H410586   6.846   4.099  15.673
   14ARHM    O410587   7.016   4.174  15.585
   14ARHM   HO410588   7.077   4.132  15.646
   14ARHM    C610589   6.753   4.273  15.477
   14ARHM   H6110590   6.686   4.295  15.391
   14ARHM   H6210591   6.695   4.284  15.571
   14ARHM   H6310592   6.836   4.347  15.477
   15ARHM    C110593   6.651   3.777  15.712
   15ARHM    H110594   6.645   3.694  15.638
   15ARHM    C510595   6.528   3.963  15.802
   15ARHM    H510596   6.610   4.034  15.778
   15ARHM    O510597   6.530   3.854  15.708
   15ARHM    C210598   6.665   3.720  15.852
   15ARHM    H210599   6.758   3.660  15.856
   15ARHM    O210600   6.552   3.635  15.876
   15ARHM    C310601   6.674   3.834  15.951
   15ARHM    H310602   6.756   3.901  15.919
   15ARHM    O310603   6.706   3.783  16.081
   15ARHM    C410604   6.544   3.911  15.945
   15ARHM    H410605   6.459   3.843  15.966
   15ARHM    O410606   6.541   4.016  16.042
   15ARHM   HO410607   6.451   4.048  16.050
   15ARHM    C610608   6.395   4.035  15.778
   15ARHM   H6110609   6.386   4.126  15.841
   15ARHM   H6210610   6.386   4.064  15.672
   15ARHM   H6310611   6.310   3.967  15.802
   16BMANN   C110612   6.542   3.571  16.001
   16BMANN   H110613   6.517   3.645  16.080
   16BMANN   C510614   6.653   3.434  16.162
   16BMANN   H510615   6.629   3.509  16.240
   16BMANN   O510616   6.662   3.500  16.034
   16BMANN   C210617   6.428   3.473  15.987
   16BMANN   H210618   6.336   3.534  15.974
   16BMANN    N10619   6.448   3.389  15.869
   16BMANN   HN10620   6.540   3.355  15.855
   16BMANN    C10621   6.358   3.377  15.771
   16BMANN    O10622   6.244   3.421  15.778
   16BMANN   CT10623   6.406   3.308  15.646
   16BMANN  HT110624   6.320   3.293  15.577
   16BMANN  HT210625   6.451   3.209  15.671
   16BMANN  HT310626   6.481   3.371  15.595
   16BMANN   C310627   6.414   3.399  16.119
   16BMANN   H310628   6.392   3.476  16.197
   16BMANN   O310629   6.302   3.310  16.119
   16BMANN  HO310630   6.258   3.318  16.203
   16BMANN   C410631   6.543   3.329  16.157
   16BMANN   H410632   6.567   3.254  16.080
   16BMANN   O410633   6.532   3.262  16.283
   16BMANN  HO410634   6.446   3.220  16.285
   16BMANN   C610635   6.791   3.378  16.193
   16BMANN  H6110636   6.788   3.321  16.288
   16BMANN  H6210637   6.822   3.309  16.112
   16BMANN   O610638   6.887   3.483  16.206
   16BMANN  HO610639   6.887   3.533  16.124
   17BGLCN   C110640   6.793   3.864  16.154
   17BGLCN   H110641   6.779   3.971  16.128
   17BGLCN   C510642   7.022   3.903  16.210
   17BGLCN   H510643   7.011   4.010  16.182
   17BGLCN   O510644   6.929   3.825  16.132
   17BGLCN   C210645   6.757   3.840  16.299
   17BGLCN   H210646   6.782   3.734  16.322
   17BGLCN    N10647   6.613   3.855  16.316
   17BGLCN   HN10648   6.569   3.913  16.248
   17BGLCN    C10649   6.537   3.788  16.404
   17BGLCN    O10650   6.580   3.707  16.484
   17BGLCN   CT10651   6.389   3.818  16.398
   17BGLCN  HT110652   6.338   3.741  16.336
   17BGLCN  HT210653   6.371   3.918  16.354
   17BGLCN  HT310654   6.347   3.814  16.501
   17BGLCN   C310655   6.846   3.931  16.383
   17BGLCN   H310656   6.835   4.033  16.342
   17BGLCN   O310657   6.804   3.933  16.521
   17BGLCN   C410658   6.990   3.887  16.358
   17BGLCN   H410659   6.998   3.780  16.384
   17BGLCN   O410660   7.085   3.956  16.439
   17BGLCN  HO410661   7.115   4.037  16.397
   17BGLCN   C610662   7.162   3.858  16.170
   17BGLCN  H6110663   7.237   3.914  16.229
   17BGLCN  H6210664   7.174   3.750  16.192
   17BGLCN   O610665   7.187   3.882  16.031
   17BGLCN  HO610666   7.135   3.819  15.980
   18AGAL    C110667   6.827   4.055  16.590
   18AGAL    H110668   6.937   4.073  16.601
   18AGAL    C510669   6.627   4.157  16.507
   18AGAL    H510670   6.606   4.061  16.455
   18AGAL    O510671   6.770   4.169  16.522
   18AGAL    C210672   6.767   4.052  16.729
   18AGAL    H210673   6.786   4.152  16.773
   18AGAL    O210674   6.831   3.955  16.815
   18AGAL    C310675   6.616   4.032  16.718
   18AGAL    H310676   6.598   3.938  16.661
   18AGAL    O310677   6.554   4.016  16.846
   18AGAL   HO310678   6.469   3.973  16.837
   18AGAL    C410679   6.557   4.149  16.642
   18AGAL    H410680   6.449   4.128  16.623
   18AGAL    O410681   6.564   4.271  16.715
   18AGAL   HO410682   6.584   4.251  16.806
   18AGAL    C610683   6.574   4.265  16.412
   18AGAL   H6110684   6.627   4.258  16.315
   18AGAL   H6210685   6.466   4.247  16.393
   18AGAL    O610686   6.591   4.397  16.463
   18AGAL   HO610687   6.583   4.392  16.559
   19ARHM    C110688   6.840   3.994  16.950
   19ARHM    H110689   6.758   4.064  16.977
   19ARHM    C510690   7.079   3.975  16.958
   19ARHM    H510691   7.082   3.948  16.851
   19ARHM    O510692   6.964   4.058  16.982
   19ARHM    C210693   6.825   3.868  17.033
   19ARHM    H210694   6.736   3.813  16.995
   19ARHM    O210695   6.807   3.893  17.174
   19ARHM    C310696   6.942   3.776  17.011
   19ARHM    H310697   6.944   3.748  16.903
   19ARHM    O310698   6.926   3.656  17.086
   19ARHM   HO310699   6.938   3.678  17.179
   19ARHM    C410700   7.071   3.849  17.044
   19ARHM    H410701   7.068   3.881  17.150
   19ARHM    O410702   7.186   3.767  17.026
   19ARHM   HO410703   7.184   3.730  16.938
   19ARHM    C610704   7.201   4.063  16.991
   19ARHM   H6110705   7.198   4.156  16.929
   19ARHM   H6210706   7.199   4.094  17.098
   19ARHM   H6310707   7.295   4.009  16.970
   20ARHM    C110708   6.675   3.928  17.209
   20ARHM    H110709   6.604   3.899  17.128
   20ARHM    C510710   6.734   4.121  17.337
   20ARHM    H510711   6.841   4.103  17.318
   20ARHM    O510712   6.657   4.069  17.228
   20ARHM    C210713   6.638   3.854  17.335
   20ARHM    H210714   6.667   3.747  17.322
   20ARHM    O210715   6.497   3.859  17.362
   20ARHM    C310716   6.717   3.904  17.453
   20ARHM    H310717   6.825   3.884  17.436
   20ARHM    O310718   6.671   3.830  17.568
   20ARHM    C410719   6.693   4.052  17.468
   20ARHM    H410720   6.585   4.070  17.485
   20ARHM    O410721   6.765   4.107  17.578
   20ARHM   HO410722   6.732   4.195  17.596
   20ARHM    C610723   6.710   4.273  17.337
   20ARHM   H6110724   6.603   4.295  17.357
   20ARHM   H6210725   6.772   4.323  17.414
   20ARHM   H6310726   6.736   4.315  17.237
   21BMANN   C110727   6.419   3.779  17.277
   21BMANN   H110728   6.482   3.710  17.218
   21BMANN   C510729   6.261   3.783  17.099
   21BMANN   H510730   6.326   3.715  17.040
   21BMANN   O510731   6.342   3.861  17.189
   21BMANN   C210732   6.327   3.699  17.367
   21BMANN   H210733   6.393   3.630  17.424
   21BMANN    N10734   6.256   3.780  17.465
   21BMANN   HN10735   6.249   3.878  17.446
   21BMANN    C10736   6.208   3.732  17.580
   21BMANN    O10737   6.210   3.612  17.608
   21BMANN   CT10738   6.151   3.832  17.676
   21BMANN  HT110739   6.047   3.858  17.645
   21BMANN  HT210740   6.213   3.924  17.677
   21BMANN  HT310741   6.149   3.788  17.778
   21BMANN   C310742   6.239   3.612  17.278
   21BMANN   H310743   6.306   3.545  17.219
   21BMANN   O310744   6.153   3.529  17.354
   21BMANN  HO310745   6.172   3.543  17.447
   21BMANN   C410746   6.163   3.700  17.180
   21BMANN   H410747   6.097   3.769  17.237
   21BMANN   O410748   6.081   3.622  17.093
   21BMANN  HO410749   6.100   3.529  17.109
   21BMANN   C610750   6.193   3.877  17.002
   21BMANN  H6110751   6.130   3.820  16.931
   21BMANN  H6210752   6.126   3.946  17.058
   21BMANN   O610753   6.289   3.953  16.928
   21BMANN  HO610754   6.330   4.015  16.989
   22BGLCN   C110755   6.763   3.805  17.670
   22BGLCN   H110756   6.848   3.877  17.666
   22BGLCN   C510757   6.899   3.638  17.773
   22BGLCN   H510758   6.986   3.707  17.771
   22BGLCN   O510759   6.810   3.670  17.664
   22BGLCN   C210760   6.683   3.823  17.797
   22BGLCN   H210761   6.604   3.746  17.797
   22BGLCN    N10762   6.617   3.953  17.801
   22BGLCN   HN10763   6.658   4.024  17.744
   22BGLCN    C10764   6.502   3.979  17.866
   22BGLCN    O10765   6.437   3.895  17.926
   22BGLCN   CT10766   6.456   4.122  17.865
   22BGLCN  HT110767   6.390   4.139  17.777
   22BGLCN  HT210768   6.543   4.191  17.860
   22BGLCN  HT310769   6.398   4.143  17.957
   22BGLCN   C310770   6.774   3.798  17.916
   22BGLCN   H310771   6.860   3.868  17.909
   22BGLCN   O310772   6.701   3.826  18.037
   22BGLCN   C410773   6.827   3.656  17.906
   22BGLCN   H410774   6.741   3.585  17.909
   22BGLCN   O410775   6.916   3.623  18.011
   22BGLCN  HO410776   6.868   3.589  18.087
   22BGLCN   C610777   6.950   3.496  17.753
   22BGLCN  H6110778   6.994   3.457  17.848
   22BGLCN  H6210779   6.866   3.428  17.726
   22BGLCN   O610780   7.053   3.487  17.654
   22BGLCN  HO610781   7.013   3.459  17.571
   23AGAL    C110782   6.775   3.852  18.153
   23AGAL    H110783   6.826   3.760  18.188
   23AGAL    C510784   6.817   4.081  18.100
   23AGAL    H510785   6.752   4.067  18.011
   23AGAL    O510786   6.875   3.953  18.134
   23AGAL    C210787   6.682   3.895  18.266
   23AGAL    H210788   6.740   3.902  18.360
   23AGAL    O210789   6.575   3.800  18.282
   23AGAL    C310790   6.620   4.030  18.237
   23AGAL    H310791   6.558   4.021  18.145
   23AGAL    O310792   6.535   4.072  18.343
   23AGAL   HO310793   6.594   4.094  18.416
   23AGAL    C410794   6.730   4.132  18.214
   23AGAL    H410795   6.684   4.228  18.183
   23AGAL    O410796   6.807   4.156  18.332
   23AGAL   HO410797   6.892   4.191  18.304
   23AGAL    C610798   6.928   4.175  18.056
   23AGAL   H6110799   6.978   4.133  17.966
   23AGAL   H6210800   6.885   4.273  18.028
   23AGAL    O610801   7.027   4.195  18.157
   23AGAL   HO610802   7.074   4.112  18.169
   24ARHM    C110803   6.602   3.686  18.358
   24ARHM    H110804   6.712   3.673  18.369
   24ARHM    C510805   6.412   3.569  18.276
   24ARHM    H510806   6.386   3.656  18.211
   24ARHM    O510807   6.553   3.566  18.296
   24ARHM    C210808   6.538   3.709  18.493
   24ARHM    H210809   6.571   3.808  18.531
   24ARHM    O210810   6.574   3.608  18.589
   24ARHM    C310811   6.387   3.714  18.476
   24ARHM    H310812   6.363   3.798  18.407
   24ARHM    O310813   6.321   3.739  18.600
   24ARHM   HO310814   6.263   3.815  18.592
   24ARHM    C410815   6.341   3.585  18.411
   24ARHM    H410816   6.371   3.500  18.476
   24ARHM    O410817   6.199   3.579  18.395
   24ARHM   HO410818   6.161   3.601  18.480
   24ARHM    C610819   6.375   3.441  18.199
   24ARHM   H6110820   6.267   3.443  18.170
   24ARHM   H6210821   6.435   3.435  18.106
   24ARHM   H6310822   6.395   3.351  18.261
   25ARHM    C110823   6.703   3.624  18.645
   25ARHM    H110824   6.768   3.679  18.574
   25ARHM    C510825   6.703   3.420  18.765
   25ARHM    H510826   6.598   3.403  18.733
   25ARHM    O510827   6.770   3.499  18.666
   25ARHM    C210828   6.696   3.704  18.772
   25ARHM    H210829   6.632   3.794  18.754
   25ARHM    O210830   6.825   3.746  18.816
   25ARHM    C310831   6.628   3.624  18.880
   25ARHM    H310832   6.524   3.603  18.848
   25ARHM    O310833   6.627   3.704  18.999
   25ARHM    C410834   6.703   3.493  18.899
   25ARHM    H410835   6.808   3.516  18.927
   25ARHM    O410836   6.646   3.414  19.003
   25ARHM   HO410837   6.701   3.337  19.019
   25ARHM    C610838   6.774   3.283  18.766
   25ARHM   H6110839   6.778   3.243  18.663
   25ARHM   H6210840   6.878   3.294  18.804
   25ARHM   H6310841   6.718   3.211  18.829
   26BMANN   C110842   6.873   3.867  18.761
   26BMANN   H110843   6.790   3.933  18.729
   26BMANN   C510844   7.022   3.966  18.603
   26BMANN   H510845   6.939   4.030  18.566
   26BMANN   O510846   6.966   3.844  18.654
   26BMANN   C210847   6.950   3.929  18.875
   26BMANN   H210848   6.877   3.946  18.956
   26BMANN    N10849   7.051   3.836  18.923
   26BMANN   HN10850   7.080   3.769  18.855
   26BMANN    C10851   7.097   3.830  19.048
   26BMANN    O10852   7.063   3.909  19.136
   26BMANN   CT10853   7.196   3.720  19.075
   26BMANN  HT110854   7.191   3.643  18.996
   26BMANN  HT210855   7.173   3.673  19.173
   26BMANN  HT310856   7.299   3.763  19.078
   26BMANN   C310857   7.004   4.064  18.829
   26BMANN   H310858   6.919   4.127  18.795
   26BMANN   O310859   7.065   4.130  18.940
   26BMANN  HO310860   7.021   4.103  19.020
   26BMANN   C410861   7.098   4.041  18.713
   26BMANN   H410862   7.184   3.979  18.747
   26BMANN   O410863   7.150   4.163  18.660
   26BMANN  HO410864   7.245   4.155  18.650
   26BMANN   C610865   7.110   3.931  18.484
   26BMANN  H6110866   7.056   3.860  18.418
   26BMANN  H6210867   7.130   4.023  18.424
   26BMANN   O610868   7.236   3.873  18.522
   26BMANN  HO610869   7.300   3.942  18.542
   27BGLCN   C110870   6.514   3.687  19.080
   27BGLCN   H110871   6.477   3.582  19.076
   27BGLCN   C510872   6.296   3.767  19.126
   27BGLCN   H510873   6.264   3.661  19.129
   27BGLCN   O510874   6.412   3.778  19.041
   27BGLCN   C210875   6.561   3.721  19.220
   27BGLCN   H210876   6.593   3.828  19.218
   27BGLCN    N10877   6.676   3.640  19.258
   27BGLCN   HN10878   6.679   3.548  19.218
   27BGLCN    C10879   6.779   3.684  19.330
   27BGLCN    O10880   6.788   3.800  19.372
   27BGLCN   CT10881   6.888   3.584  19.358
   27BGLCN  HT110882   6.879   3.497  19.290
   27BGLCN  HT210883   6.882   3.550  19.464
   27BGLCN  HT310884   6.987   3.632  19.342
   27BGLCN   C310885   6.444   3.711  19.317
   27BGLCN   H310886   6.404   3.607  19.307
   27BGLCN   O310887   6.494   3.729  19.451
   27BGLCN   C410888   6.336   3.806  19.268
   27BGLCN   H410889   6.378   3.909  19.266
   27BGLCN   O410890   6.221   3.812  19.352
   27BGLCN  HO410891   6.181   3.725  19.359
   27BGLCN   C610892   6.182   3.845  19.062
   27BGLCN  H6110893   6.096   3.850  19.132
   27BGLCN  H6210894   6.215   3.948  19.039
   27BGLCN   O610895   6.139   3.779  18.943
   27BGLCN  HO610896   6.059   3.820  18.909
   28AGAL    C110897   6.411   3.689   0.085
   28AGAL    H110898   6.330   3.764   0.098
   28AGAL    C510899   6.445   3.451   0.060
   28AGAL    H510900   6.518   3.468  19.450
   28AGAL    O510901   6.350   3.560   0.062
   28AGAL    C210902   6.486   3.682   0.218
   28AGAL    H210903   6.408   3.647   0.289
   28AGAL    O210904   6.537   3.808   0.269
   28AGAL    C310905   6.594   3.576   0.212
   28AGAL    H310906   6.659   3.597   0.124
   28AGAL    O310907   6.679   3.575   0.327
   28AGAL   HO310908   6.751   3.635   0.311
   28AGAL    C410909   6.526   3.442   0.189
   28AGAL    H410910   6.605   3.365   0.174
   28AGAL    O410911   6.448   3.401   0.301
   28AGAL   HO410912   6.498   3.337   0.352
   28AGAL    C610913   6.368   3.324   0.026
   28AGAL   H6110914   6.335   3.328  19.393
   28AGAL   H6210915   6.432   3.234   0.038
   28AGAL    O610916   6.251   3.309   0.108
   28AGAL   HO610917   6.236   3.395   0.149
   29ARHM    C110918   6.506   3.823   0.406
   29ARHM    H110919   6.508   3.723   0.454
   29ARHM    C510920   6.366   4.014   0.375
   29ARHM    H510921   6.390   4.015   0.266
   29ARHM    O510922   6.376   3.880   0.424
   29ARHM    C210923   6.608   3.908   0.480
   29ARHM    H210924   6.709   3.866   0.461
   29ARHM    O210925   6.581   3.910   0.622
   29ARHM    C310926   6.605   4.050   0.431
   29ARHM    H310927   6.629   4.051   0.323
   29ARHM    O310928   6.704   4.129   0.498
   29ARHM   HO310929   6.667   4.159   0.581
   29ARHM    C410930   6.464   4.103   0.451
   29ARHM    H410931   6.437   4.092   0.558
   29ARHM    O410932   6.449   4.241   0.419
   29ARHM   HO410933   6.449   4.252   0.323
   29ARHM    C610934   6.219   4.056   0.392
   29ARHM   H6110935   6.152   3.985   0.338
   29ARHM   H6210936   6.191   4.054   0.500
   29ARHM   H6310937   6.201   4.158   0.353
   30ARHM    C110938   6.655   3.818   0.699
   30ARHM    H110939   6.763   3.829   0.675
   30ARHM    C510940   6.476   3.661   0.705
   30ARHM    H510941   6.412   3.732   0.649
   30ARHM    O510942   6.614   3.683   0.673
   30ARHM    C210943   6.634   3.849   0.846
   30ARHM    H210944   6.660   3.955   0.865
   30ARHM    O210945   6.715   3.762   0.927
   30ARHM    C310946   6.489   3.826   0.887
   30ARHM    H310947   6.427   3.893   0.823
   30ARHM    O310948   6.467   3.869   1.023
   30ARHM    C410949   6.451   3.683   0.853
   30ARHM    H410950   6.514   3.611   0.911
   30ARHM    O410951   6.314   3.655   0.881
   30ARHM   HO410952   6.298   3.563   0.856
   30ARHM    C610953   6.444   3.519   0.656
   30ARHM   H6110954   6.337   3.495   0.669
   30ARHM   H6210955   6.468   3.511   0.547
   30ARHM   H6310956   6.506   3.444   0.710
   31BMANN   C110957   6.844   3.806   0.960
   31BMANN   H110958   6.843   3.913   0.992
   31BMANN   C510959   7.069   3.815   0.882
   31BMANN   H510960   7.077   3.918   0.924
   31BMANN   O510961   6.932   3.786   0.850
   31BMANN   C210962   6.884   3.715   1.074
   31BMANN   H210963   6.821   3.745   1.161
   31BMANN    N10964   6.855   3.574   1.047
   31BMANN   HN10965   6.846   3.549   0.950
   31BMANN    C10966   6.835   3.482   1.142
   31BMANN    O10967   6.842   3.511   1.261
   31BMANN   CT10968   6.805   3.342   1.097
   31BMANN  HT110969   6.891   3.300   1.042
   31BMANN  HT210970   6.715   3.341   1.032
   31BMANN  HT310971   6.786   3.278   1.186
   31BMANN   C310972   7.028   3.743   1.111
   31BMANN   H310973   7.037   3.851   1.136
   31BMANN   O310974   7.067   3.674   1.229
   31BMANN  HO310975   7.006   3.603   1.246
   31BMANN   C410976   7.116   3.718   0.989
   31BMANN   H410977   7.099   3.615   0.953
   31BMANN   O410978   7.255   3.730   1.015
   31BMANN  HO410979   7.275   3.808   1.067
   31BMANN   C610980   7.146   3.816   0.752
   31BMANN  H6110981   7.255   3.829   0.772
   31BMANN  H6210982   7.132   3.720   0.698
   31BMANN   O610983   7.102   3.924   0.669
   31BMANN  HO610984   7.171   3.954   0.609
   32BGLCN   C110985   6.496   3.779   1.127
   32BGLCN   H110986   6.589   3.721   1.104
   32BGLCN   C510987   6.422   3.588   1.250
   32BGLCN   H510988   6.513   3.533   1.218
   32BGLCN   O510989   6.390   3.687   1.150
   32BGLCN   C210990   6.517   3.856   1.256
   32BGLCN   H210991   6.416   3.891   1.286
   32BGLCN    N10992   6.603   3.972   1.240
   32BGLCN   HN10993   6.689   3.959   1.192
   32BGLCN    C10994   6.567   4.096   1.279
   32BGLCN    O10995   6.461   4.121   1.336
   32BGLCN   CT10996   6.665   4.206   1.248
   32BGLCN  HT110997   6.721   4.183   1.155
   32BGLCN  HT210998   6.737   4.219   1.333
   32BGLCN  HT310999   6.609   4.301   1.235
   32BGLCN   C311000   6.563   3.756   1.362
   32BGLCN   H311001   6.650   3.701   1.320
   32BGLCN   O311002   6.607   3.818   1.485
   32BGLCN   C411003   6.450   3.657   1.383
   32BGLCN   H411004   6.359   3.712   1.413
   32BGLCN   O411005   6.479   3.563   1.485
   32BGLCN  HO411006   6.497   3.612   1.565
   32BGLCN   C611007   6.307   3.490   1.249
   32BGLCN  H6111008   6.332   3.400   1.309
   32BGLCN  H6211009   6.217   3.538   1.293
   32BGLCN   O611010   6.277   3.448   1.115
   32BGLCN  HO611011   6.273   3.529   1.065
   33AGAL    C111012   6.729   3.764   1.534
   33AGAL    H111013   6.729   3.654   1.522
   33AGAL    C511014   6.861   3.959   1.485
   33AGAL    H511015   6.766   4.009   1.456
   33AGAL    O511016   6.843   3.818   1.464
   33AGAL    C211017   6.745   3.794   1.683
   33AGAL    H211018   6.838   3.743   1.716
   33AGAL    O211019   6.633   3.735   1.753
   33AGAL    C311020   6.761   3.943   1.708
   33AGAL    H311021   6.670   3.993   1.668
   33AGAL    O311022   6.767   3.976   1.847
   33AGAL   HO311023   6.845   4.029   1.865
   33AGAL    C411024   6.882   3.994   1.632
   33AGAL    H411025   6.883   4.105   1.640
   33AGAL    O411026   7.007   3.949   1.683
   33AGAL   HO411027   6.999   3.872   1.740
   33AGAL    C611028   6.967   4.013   1.389
   33AGAL   H6111029   6.926   4.012   1.286
   33AGAL   H6211030   6.990   4.119   1.415
   33AGAL    O611031   7.089   3.939   1.389
   33AGAL   HO611032   7.069   3.845   1.386
   34ARHM    C111033   6.668   3.677   1.876
   34ARHM    H111034   6.736   3.744   1.932
   34ARHM    C511035   6.653   3.453   1.790
   34ARHM    H511036   6.630   3.490   1.688
   34ARHM    O511037   6.733   3.550   1.859
   34ARHM    C211038   6.539   3.657   1.955
   34ARHM    H211039   6.487   3.756   1.959
   34ARHM    O211040   6.557   3.609   2.089
   34ARHM    C311041   6.448   3.559   1.883
   34ARHM    H311042   6.423   3.599   1.783
   34ARHM    O311043   6.326   3.541   1.956
   34ARHM   HO311044   6.251   3.570   1.904
   34ARHM    C411045   6.523   3.428   1.866
   34ARHM    H411046   6.550   3.389   1.967
   34ARHM    O411047   6.443   3.330   1.800
   34ARHM   HO411048   6.376   3.302   1.863
   34ARHM    C611049   6.742   3.329   1.777
   34ARHM   H6111050   6.771   3.291   1.878
   34ARHM   H6211051   6.690   3.248   1.722
   34ARHM   H6311052   6.835   3.355   1.722
   35ARHM    C111053   6.626   3.694   2.177
   35ARHM    H111054   6.595   3.799   2.160
   35ARHM    C511055   6.813   3.547   2.174
   35ARHM    H511056   6.758   3.480   2.105
   35ARHM    O511057   6.767   3.682   2.159
   35ARHM    C211058   6.590   3.649   2.317
   35ARHM    H211059   6.479   3.650   2.324
   35ARHM    O211060   6.641   3.733   2.422
   35ARHM    C311061   6.637   3.508   2.341
   35ARHM    H311062   6.586   3.439   2.270
   35ARHM    O311063   6.601   3.466   2.473
   35ARHM   HO311064   6.632   3.534   2.534
   35ARHM    C411065   6.786   3.501   2.317
   35ARHM    H411066   6.838   3.571   2.386
   35ARHM    O411067   6.839   3.370   2.340
   35ARHM   HO411068   6.781   3.324   2.401
   35ARHM    C611069   6.959   3.548   2.128
   35ARHM   H6111070   6.965   3.582   2.023
   35ARHM   H6211071   7.018   3.618   2.191
   35ARHM   H6311072   7.003   3.446   2.134
   36BMANN   C111073   6.596   3.866   2.421
   36BMANN   H111074   6.492   3.872   2.381
   36BMANN   C511075   6.646   4.087   2.346
   36BMANN   H511076   6.544   4.095   2.302
   36BMANN   O511077   6.686   3.949   2.346
   36BMANN   C211078   6.602   3.912   2.564
   36BMANN   H211079   6.532   3.848   2.622
   36BMANN    N11080   6.736   3.897   2.620
   36BMANN   HN11081   6.810   3.918   2.557
   36BMANN    C11082   6.763   3.867   2.747
   36BMANN    O11083   6.676   3.831   2.826
   36BMANN   CT11084   6.907   3.877   2.790
   36BMANN  HT111085   6.957   3.960   2.735
   36BMANN  HT211086   6.959   3.781   2.769
   36BMANN  HT311087   6.911   3.898   2.899
   36BMANN   C311088   6.551   4.055   2.570
   36BMANN   H311089   6.449   4.058   2.526
   36BMANN   O311090   6.539   4.098   2.705
   36BMANN  HO311091   6.464   4.157   2.715
   36BMANN   C411092   6.643   4.143   2.488
   36BMANN   H411093   6.745   4.141   2.532
   36BMANN   O411094   6.599   4.279   2.488
   36BMANN  HO411095   6.592   4.307   2.580
   36BMANN   C611096   6.741   4.160   2.253
   36BMANN  H6111097   6.755   4.100   2.160
   36BMANN  H6211098   6.697   4.257   2.224
   36BMANN   O611099   6.869   4.184   2.313
   36BMANN  HO611100   6.867   4.275   2.344
    1ECLIP HB6S11101   5.860   2.464  11.835
    1ECLIP  OB611102   6.011   2.550  11.950
    1ECLIP  CB611103   5.905   2.564  11.853
    1ECLIP HB6R11104   5.825   2.631  11.892
    1ECLIP  CB511105   5.952   2.620  11.720
    1ECLIP  OB511106   6.064   2.544  11.672
    1ECLIP  HB511107   5.983   2.725  11.738
    1ECLIP  CB111108   6.122   2.605  11.555
    1ECLIP  HB111109   6.150   2.709  11.580
    1ECLIP  OA611110   6.238   2.541  11.510
    1ECLIP  CA611111   6.244   2.400  11.534
    1ECLIP HA6R11112   6.143   2.357  11.551
    1ECLIP HA6S11113   6.307   2.382  11.623
    1ECLIP  CB411114   5.844   2.617  11.610
    1ECLIP  HB411115   5.824   2.511  11.583
    1ECLIP  OB411116   5.727   2.685  11.659
    1ECLIP   PB11117   5.591   2.599  11.695
    1ECLIP OPB411118   5.509   2.660  11.806
    1ECLIP OPB311119   5.630   2.457  11.732
    1ECLIP OPB211120   5.505   2.578  11.572
    1ECLIP  CB311121   5.902   2.685  11.487
    1ECLIP  OB311122   5.807   2.684  11.379
    1ECLIP  HB311123   5.937   2.786  11.516
    1ECLIP  C7111124   5.763   2.803  11.339
    1ECLIP  O7111125   5.805   2.910  11.378
    1ECLIP  C7211126   5.701   2.790  11.200
    1ECLIP H72R11127   5.783   2.771  11.127
    1ECLIP H72S11128   5.653   2.887  11.177
    1ECLIP  CB211129   6.023   2.606  11.440
    1ECLIP  HB211130   5.992   2.501  11.421
    1ECLIP  NB211131   6.082   2.659  11.316
    1ECLIP HNB211132   6.146   2.734  11.327
    1ECLIP  CA411133   6.422   2.410  11.355
    1ECLIP  HA411134   6.390   2.515  11.337
    1ECLIP  OA411135   6.528   2.408  11.451
    1ECLIP HOA411136   6.601   2.465  11.425
    1ECLIP  CA511137   6.305   2.333  11.413
    1ECLIP  HA511138   6.335   2.230  11.439
    1ECLIP  OA511139   6.200   2.331  11.316
    1ECLIP  CA111140   6.235   2.265  11.195
    1ECLIP  HA111141   6.145   2.277  11.130
    1ECLIP  OA111142   6.271   2.130  11.219
    1ECLIP OPA211143   6.180   1.924  11.345
    1ECLIP OPA311144   6.024   2.086  11.217
    1ECLIP OPA411145   6.168   1.950  11.088
    1ECLIP   PA11146   6.158   2.013  11.226
    1ECLIP  CA311147   6.465   2.349  11.224
    1ECLIP  HA311148   6.502   2.246  11.243
    1ECLIP  OA311149   6.576   2.429  11.179
    1ECLIP  C3111150   6.550   2.542  11.112
    1ECLIP  O3111151   6.518   2.543  10.994
    1ECLIP  C3211152   6.630   2.655  11.174
    1ECLIP H32R11153   6.703   2.684  11.095
    1ECLIP H32S11154   6.684   2.621  11.264
    1ECLIP  CA211155   6.347   2.341  11.127
    1ECLIP  HA211156   6.308   2.444  11.111
    1ECLIP  NA211157   6.389   2.292  10.996
    1ECLIP HNA211158   6.484   2.314  10.976
    1ECLIP  C7311159   5.598   2.677  11.195
    1ECLIP H73R11160   5.535   2.679  11.287
    1ECLIP  O7311161   5.670   2.554  11.181
    1ECLIP  C8111162   5.624   2.448  11.243
    1ECLIP  O8111163   5.519   2.437  11.306
    1ECLIP  C8211164   5.703   2.327  11.193
    1ECLIP H82R11165   5.650   2.236  11.229
    1ECLIP H82S11166   5.803   2.331  11.240
    1ECLIP  C8311167   5.717   2.322  11.039
    1ECLIP H83R11168   5.785   2.405  11.008
    1ECLIP H83S11169   5.619   2.340  10.990
    1ECLIP  C8411170   5.773   2.188  10.990
    1ECLIP H84R11171   5.688   2.117  10.981
    1ECLIP H84S11172   5.837   2.148  11.071
    1ECLIP  C8511173   5.843   2.203  10.854
    1ECLIP H85R11174   5.933   2.267  10.861
    1ECLIP H85S11175   5.772   2.261  10.791
    1ECLIP  C8611176   5.869   2.072  10.778
    1ECLIP H86R11177   5.770   2.030  10.750
    1ECLIP H86S11178   5.918   1.993  10.839
    1ECLIP  C8711179   5.949   2.093  10.648
    1ECLIP H87R11180   5.954   1.996  10.593
    1ECLIP H87S11181   6.053   2.124  10.669
    1ECLIP  C8811182   5.884   2.197  10.556
    1ECLIP H88R11183   5.889   2.297  10.605
    1ECLIP H88S11184   5.777   2.173  10.540
    1ECLIP  C8911185   5.951   2.213  10.418
    1ECLIP H89R11186   6.061   2.220  10.429
    1ECLIP H89S11187   5.916   2.310  10.377
    1ECLIP C81011188   5.914   2.103  10.317
    1ECLIPH810R11189   5.812   2.066  10.338
    1ECLIPH810S11190   5.983   2.017  10.332
    1ECLIP C81111191   5.922   2.151  10.171
    1ECLIPH811R11192   5.918   2.063  10.104
    1ECLIPH811S11193   6.020   2.201  10.156
    1ECLIP C81211194   5.810   2.248  10.129
    1ECLIPH812R11195   5.836   2.291  10.030
    1ECLIPH812S11196   5.804   2.333  10.201
    1ECLIP C81311197   5.672   2.183  10.118
    1ECLIPH813R11198   5.673   2.109  10.035
    1ECLIPH813S11199   5.649   2.127  10.212
    1ECLIP C81411200   5.560   2.285  10.095
    1ECLIPH814R11201   5.584   2.348  10.007
    1ECLIPH814S11202   5.550   2.352  10.183
    1ECLIPH814T11203   5.463   2.234  10.078
    1ECLIP  C7411204   5.505   2.690  11.072
    1ECLIP H74R11205   5.451   2.788  11.076
    1ECLIP H74S11206   5.428   2.610  11.081
    1ECLIP  C7511207   5.571   2.675  10.932
    1ECLIP H75R11208   5.495   2.627  10.866
    1ECLIP H75S11209   5.657   2.605  10.938
    1ECLIP  C7611210   5.613   2.806  10.863
    1ECLIP H76R11211   5.699   2.852  10.917
    1ECLIP H76S11212   5.529   2.877  10.867
    1ECLIP  C7711213   5.651   2.783  10.716
    1ECLIP H77R11214   5.569   2.726  10.667
    1ECLIP H77S11215   5.743   2.721  10.711
    1ECLIP  C7811216   5.673   2.913  10.636
    1ECLIP H78R11217   5.577   2.969  10.634
    1ECLIP H78S11218   5.747   2.976  10.689
    1ECLIP  C7911219   5.721   2.892  10.491
    1ECLIP H79R11220   5.825   2.854  10.492
    1ECLIP H79S11221   5.723   2.990  10.440
    1ECLIP C71011222   5.635   2.795  10.408
    1ECLIPH710R11223   5.635   2.695  10.456
    1ECLIPH710S11224   5.530   2.832  10.407
    1ECLIP C71111225   5.685   2.779  10.264
    1ECLIPH711R11226   5.684   2.878  10.214
    1ECLIPH711S11227   5.790   2.742  10.266
    1ECLIP C71211228   5.599   2.679  10.184
    1ECLIPH712R11229   5.497   2.721  10.173
    1ECLIPH712S11230   5.590   2.585  10.242
    1ECLIP C71311231   5.655   2.646  10.045
    1ECLIPH713R11232   5.754   2.596  10.057
    1ECLIPH713S11233   5.587   2.573   9.997
    1ECLIP C71411234   5.671   2.766   9.952
    1ECLIPH714R11235   5.574   2.819   9.942
    1ECLIPH714S11236   5.746   2.837   9.992
    1ECLIPH714T11237   5.704   2.732   9.852
    1ECLIP  C5111238   6.061   2.613  11.191
    1ECLIP  O5111239   5.995   2.513  11.165
    1ECLIP  C5211240   6.127   2.694  11.082
    1ECLIP H52R11241   6.078   2.793  11.073
    1ECLIP H52S11242   6.233   2.711  11.113
    1ECLIP  C5311243   6.126   2.623  10.945
    1ECLIP H53R11244   6.153   2.516  10.958
    1ECLIP  O5311245   6.224   2.694  10.868
    1ECLIP  C6111246   6.307   2.623  10.793
    1ECLIP  O6111247   6.294   2.505  10.765
    1ECLIP  C6211248   6.385   2.726  10.710
    1ECLIP H62R11249   6.445   2.788  10.780
    1ECLIP H62S11250   6.309   2.791  10.661
    1ECLIP  C6311251   6.478   2.667  10.601
    1ECLIP H63R11252   6.419   2.600  10.535
    1ECLIP H63S11253   6.557   2.606  10.650
    1ECLIP  C6411254   6.545   2.775  10.515
    1ECLIP H64R11255   6.609   2.724  10.440
    1ECLIP H64S11256   6.611   2.838  10.578
    1ECLIP  C6511257   6.443   2.866  10.443
    1ECLIP H65R11258   6.394   2.930  10.519
    1ECLIP H65S11259   6.364   2.803  10.397
    1ECLIP  C6611260   6.502   2.959  10.336
    1ECLIP H66R11261   6.571   3.032  10.384
    1ECLIP H66S11262   6.418   3.018  10.292
    1ECLIP  C6711263   6.576   2.888  10.221
    1ECLIP H67R11264   6.675   2.853  10.258
    1ECLIP H67S11265   6.595   2.962  10.140
    1ECLIP  C6811266   6.500   2.768  10.164
    1ECLIP H68R11267   6.396   2.798  10.138
    1ECLIP H68S11268   6.493   2.689  10.242
    1ECLIP  C6911269   6.569   2.709  10.041
    1ECLIP H69R11270   6.678   2.698  10.062
    1ECLIP H69S11271   6.558   2.781   9.957
    1ECLIP C61011272   6.512   2.572  10.003
    1ECLIPH610R11273   6.403   2.581   9.984
    1ECLIPH610S11274   6.526   2.503  10.089
    1ECLIP C61111275   6.581   2.512   9.880
    1ECLIPH611R11276   6.690   2.506   9.900
    1ECLIPH611S11277   6.544   2.408   9.867
    1ECLIP C61211278   6.556   2.592   9.752
    1ECLIPH612R11279   6.448   2.599   9.731
    1ECLIPH612S11280   6.595   2.696   9.762
    1ECLIPH612T11281   6.607   2.545   9.666
    1ECLIP  C5411282   5.989   2.634  10.874
    1ECLIP H54R11283   5.965   2.741  10.857
    1ECLIP H54S11284   5.912   2.594  10.944
    1ECLIP  C5511285   5.976   2.557  10.741
    1ECLIP H55R11286   5.870   2.526  10.728
    1ECLIP H55S11287   6.037   2.465  10.745
    1ECLIP  C5611288   6.015   2.639  10.617
    1ECLIP H56R11289   6.118   2.679  10.628
    1ECLIP H56S11290   5.948   2.727  10.608
    1ECLIP  C5711291   6.009   2.557  10.487
    1ECLIP H57R11292   5.904   2.524  10.470
    1ECLIP H57S11293   6.072   2.466  10.500
    1ECLIP  C5811294   6.058   2.634  10.364
    1ECLIP H58R11295   5.998   2.727  10.354
    1ECLIP H58S11296   6.164   2.665  10.379
    1ECLIP  C5911297   6.046   2.552  10.235
    1ECLIP H59R11298   5.942   2.514  10.227
    1ECLIP H59S11299   6.114   2.464  10.241
    1ECLIP C51011300   6.077   2.634  10.109
    1ECLIPH510R11301   6.179   2.678  10.117
    1ECLIPH510S11302   6.005   2.718  10.105
    1ECLIP C51111303   6.066   2.551   9.980
    1ECLIPH511R11304   6.157   2.488   9.968
    1ECLIPH511S11305   5.979   2.483   9.989
    1ECLIP C51211306   6.045   2.639   9.855
    1ECLIPH512R11307   6.032   2.573   9.767
    1ECLIPH512S11308   5.951   2.696   9.868
    1ECLIP C51311309   6.159   2.737   9.828
    1ECLIPH513R11310   6.251   2.680   9.804
    1ECLIPH513S11311   6.180   2.797   9.919
    1ECLIP C51411312   6.127   2.834   9.713
    1ECLIPH514R11313   6.043   2.901   9.742
    1ECLIPH514S11314   6.215   2.897   9.689
    1ECLIPH514T11315   6.097   2.778   9.622
    1ECLIP  C3311316   6.546   2.781  11.202
    1ECLIP H33R11317   6.610   2.858  11.251
    1ECLIP  O3311318   6.440   2.747  11.290
    1ECLIP HO3311319   6.463   2.756  11.383
    1ECLIP  C3411320   6.489   2.842  11.073
    1ECLIP H34R11321   6.424   2.767  11.023
    1ECLIP H34S11322   6.572   2.866  11.004
    1ECLIP  C3511323   6.404   2.969  11.093
    1ECLIP H35R11324   6.468   3.054  11.125
    1ECLIP H35S11325   6.330   2.951  11.174
    1ECLIP  C3611326   6.328   3.005  10.965
    1ECLIP H36R11327   6.289   2.910  10.922
    1ECLIP H36S11328   6.398   3.049  10.891
    1ECLIP  C3711329   6.207   3.097  10.986
    1ECLIP H37R11330   6.244   3.201  10.996
    1ECLIP H37S11331   6.156   3.071  11.081
    1ECLIP  C3811332   6.104   3.086  10.872
    1ECLIP H38R11333   6.042   2.996  10.888
    1ECLIP H38S11334   6.037   3.175  10.876
    1ECLIP  C3911335   6.167   3.076  10.732
    1ECLIP H39R11336   6.219   2.978  10.722
    1ECLIP H39S11337   6.244   3.156  10.721
    1ECLIP C31011338   6.066   3.089  10.616
    1ECLIPH310R11339   6.022   3.191  10.618
    1ECLIPH310S11340   5.984   3.016  10.631
    1ECLIP C31111341   6.133   3.064  10.480
    1ECLIPH311R11342   6.220   3.132  10.469
    1ECLIPH311S11343   6.172   2.960  10.480
    1ECLIP C31211344   6.038   3.082  10.361
    1ECLIPH312R11345   5.949   3.018  10.376
    1ECLIPH312S11346   6.005   3.188  10.357
    1ECLIP C31311347   6.104   3.043  10.228
    1ECLIPH313R11348   6.191   3.110  10.210
    1ECLIPH313S11349   6.142   2.939  10.236
    1ECLIP C31411350   6.008   3.053  10.108
    1ECLIPH314R11351   5.972   3.157  10.097
    1ECLIPH314S11352   6.059   3.022  10.015
    1ECLIPH314T11353   5.921   2.986  10.124
    1ECLIP  C1111354   6.321   2.220  10.904
    1ECLIP  O1111355   6.198   2.207  10.904
    1ECLIP  C1211356   6.405   2.146  10.802
    1ECLIP H12R11357   6.384   2.038  10.817
    1ECLIP H12S11358   6.513   2.161  10.824
    1ECLIP  C1311359   6.375   2.186  10.656
    1ECLIP H13R11360   6.273   2.230  10.647
    1ECLIP  O1311361   6.377   2.067  10.578
    1ECLIP HO1311362   6.368   2.084  10.484
    1ECLIP  C1411363   6.479   2.283  10.595
    1ECLIP H14R11364   6.579   2.255  10.635
    1ECLIP H14S11365   6.456   2.386  10.632
    1ECLIP  C1511366   6.491   2.285  10.441
    1ECLIP H15R11367   6.532   2.186  10.410
    1ECLIP H15S11368   6.567   2.360  10.412
    1ECLIP  C1611369   6.361   2.314  10.363
    1ECLIP H16R11370   6.345   2.424  10.362
    1ECLIP H16S11371   6.274   2.270  10.415
    1ECLIP  C1711372   6.363   2.261  10.218
    1ECLIP H17R11373   6.455   2.296  10.167
    1ECLIP H17S11374   6.276   2.303  10.164
    1ECLIP  C1811375   6.355   2.107  10.209
    1ECLIP H18R11376   6.444   2.064  10.261
    1ECLIP H18S11377   6.265   2.071  10.263
    1ECLIP  C1911378   6.354   2.050  10.066
    1ECLIP H19R11379   6.376   1.941  10.072
    1ECLIP H19S11380   6.435   2.097  10.006
    1ECLIP C11011381   6.219   2.067   9.994
    1ECLIPH110R11382   6.138   2.032  10.062
    1ECLIPH110S11383   6.203   2.174   9.973
    1ECLIP C11111384   6.209   1.986   9.864
    1ECLIPH111R11385   6.305   1.997   9.809
    1ECLIPH111S11386   6.197   1.878   9.887
    1ECLIP C11211387   6.094   2.031   9.773
    1ECLIPH112R11388   5.997   2.002   9.817
    1ECLIPH112S11389   6.095   2.142   9.766
    1ECLIP C11311390   6.106   1.975   9.630
    1ECLIPH113R11391   6.207   1.999   9.591
    1ECLIPH113S11392   6.098   1.864   9.635
    1ECLIP C11411393   6.001   2.031   9.533
    1ECLIPH114R11394   5.899   2.005   9.568
    1ECLIPH114S11395   6.009   2.141   9.527
    1ECLIPH114T11396   6.016   1.989   9.431
    2AKDO    C111397   6.014   2.784  12.020
    2AKDO   O1111398   5.917   2.862  12.040
    2AKDO   O1211399   6.132   2.818  11.988
    2AKDO    C211400   5.996   2.635  12.064
    2AKDO    C611401   5.839   2.484  12.166
    2AKDO    H611402   5.853   2.419  12.076
    2AKDO    O611403   5.868   2.619  12.128
    2AKDO    C311404   6.101   2.584  12.164
    2AKDO   H3111405   6.099   2.650  12.253
    2AKDO   H3211406   6.201   2.592  12.117
    2AKDO    C411407   6.075   2.442  12.206
    2AKDO    H411408   6.074   2.379  12.114
    2AKDO    O411409   6.176   2.395  12.296
    2AKDO    C511410   5.937   2.429  12.271
    2AKDO    H511411   5.918   2.320  12.281
    2AKDO    O511412   5.935   2.490  12.402
    2AKDO    C711413   5.689   2.482  12.191
    2AKDO    H711414   5.663   2.550  12.275
    2AKDO    O711415   5.643   2.349  12.219
    2AKDO   HO711416   5.556   2.348  12.178
    2AKDO    C811417   5.621   2.531  12.063
    2AKDO   H8111418   5.656   2.634  12.040
    2AKDO   H8211419   5.654   2.467  11.978
    2AKDO    O811420   5.478   2.536  12.061
    2AKDO   HO811421   5.465   2.587  11.981
    3AKDO    C111422   6.278   2.230  12.139
    3AKDO   O1111423   6.321   2.251  12.023
    3AKDO   O1211424   6.197   2.137  12.166
    3AKDO    C211425   6.298   2.340  12.249
    3AKDO    C611426   6.420   2.543  12.304
    3AKDO    H611427   6.324   2.594  12.326
    3AKDO    O611428   6.395   2.439  12.206
    3AKDO    C311429   6.349   2.278  12.379
    3AKDO   H3111430   6.443   2.223  12.357
    3AKDO   H3211431   6.275   2.203  12.414
    3AKDO    C411432   6.372   2.380  12.486
    3AKDO    H411433   6.278   2.434  12.509
    3AKDO    O411434   6.414   2.315  12.605
    3AKDO   HO411435   6.338   2.294  12.659
    3AKDO    C511436   6.473   2.481  12.433
    3AKDO    H511437   6.483   2.563  12.508
    3AKDO    O511438   6.603   2.425  12.412
    3AKDO   HO511439   6.608   2.406  12.318
    3AKDO    C711440   6.515   2.647  12.246
    3AKDO    H711441   6.616   2.603  12.231
    3AKDO    O711442   6.527   2.759  12.334
    3AKDO   HO711443   6.521   2.832  12.272
    3AKDO    C811444   6.468   2.699  12.111
    3AKDO   H8111445   6.454   2.614  12.041
    3AKDO   H8211446   6.370   2.750  12.121
    3AKDO    O811447   6.564   2.791  12.057
    3AKDO   HO811448   6.603   2.752  11.978
    4AHEP    C111449   5.849   2.426  12.496
    4AHEP    H111450   5.745   2.438  12.458
    4AHEP    C511451   6.001   2.254  12.567
    4AHEP    H511452   6.077   2.305  12.505
    4AHEP    O511453   5.872   2.285  12.510
    4AHEP    C211454   5.854   2.490  12.635
    4AHEP    H211455   5.848   2.600  12.620
    4AHEP    O211456   5.744   2.455  12.719
    4AHEP   HO211457   5.785   2.455  12.806
    4AHEP    C311458   5.985   2.460  12.704
    4AHEP    H311459   6.068   2.514  12.652
    4AHEP    O311460   5.973   2.500  12.842
    4AHEP    C411461   6.009   2.311  12.709
    4AHEP    H411462   5.929   2.264  12.771
    4AHEP    O411463   6.140   2.289  12.762
    4AHEP    P411464   6.169   2.183  12.885
    4AHEP  OP4211465   6.298   2.230  12.951
    4AHEP  OP4311466   6.185   2.047  12.818
    4AHEP  OP4411467   6.051   2.185  12.978
    4AHEP    C611468   6.032   2.103  12.556
    4AHEP    H611469   6.141   2.090  12.569
    4AHEP    O611470   5.968   2.030  12.662
    4AHEP   HO611471   6.032   2.041  12.732
    4AHEP    C711472   5.993   2.043  12.421
    4AHEP   H7111473   6.019   1.935  12.418
    4AHEP   H7211474   6.054   2.094  12.344
    4AHEP    O711475   5.855   2.059  12.387
    4AHEP   HO711476   5.832   2.140  12.433
    5AHEP    C111477   6.082   2.566  12.901
    5AHEP    H111478   6.176   2.539  12.849
    5AHEP    C511479   5.941   2.751  12.960
    5AHEP    H511480   5.854   2.702  12.911
    5AHEP    O511481   6.063   2.708  12.897
    5AHEP    C211482   6.093   2.525  13.048
    5AHEP    H211483   6.098   2.414  13.052
    5AHEP    O211484   6.215   2.573  13.107
    5AHEP   HO211485   6.284   2.513  13.079
    5AHEP    C311486   5.967   2.564  13.122
    5AHEP    H311487   5.882   2.508  13.079
    5AHEP    O311488   5.977   2.540  13.263
    5AHEP    C411489   5.944   2.712  13.107
    5AHEP    H411490   6.024   2.767  13.161
    5AHEP    O411491   5.812   2.738  13.157
    5AHEP    P411492   5.787   2.841  13.283
    5AHEP  OP4211493   5.635   2.848  13.294
    5AHEP  OP4311494   5.854   2.971  13.240
    5AHEP  OP4411495   5.851   2.775  13.403
    5AHEP    C611496   5.928   2.903  12.939
    5AHEP    H611497   5.837   2.938  12.992
    5AHEP    O611498   6.042   2.968  12.997
    5AHEP   HO611499   6.019   2.959  13.089
    5AHEP    C711500   5.911   2.938  12.791
    5AHEP   H7111501   5.842   3.025  12.788
    5AHEP   H7211502   5.858   2.857  12.736
    5AHEP    O711503   6.031   2.978  12.724
    6AHEP    C111504   6.095   2.871  12.657
    6AHEP    H111505   6.043   2.775  12.677
    6AHEP    C511506   6.156   3.008  12.470
    6AHEP    H511507   6.105   3.095  12.515
    6AHEP    O511508   6.092   2.887  12.515
    6AHEP    C211509   6.239   2.861  12.704
    6AHEP    H211510   6.238   2.851  12.815
    6AHEP    O211511   6.305   2.746  12.650
    6AHEP   HO211512   6.283   2.743  12.557
    6AHEP    C311513   6.310   2.990  12.669
    6AHEP    H311514   6.254   3.075  12.714
    6AHEP    O311515   6.445   2.998  12.720
    6AHEP   HO311516   6.498   2.979  12.642
    6AHEP    C411517   6.302   3.005  12.518
    6AHEP    H411518   6.351   2.919  12.469
    6AHEP    O411519   6.374   3.120  12.477
    6AHEP   HO411520   6.330   3.199  12.508
    6AHEP    C611521   6.143   3.023  12.317
    6AHEP    H611522   6.204   3.111  12.285
    6AHEP    O611523   6.198   2.907  12.252
    6AHEP   HO611524   6.150   2.892  12.171
    6AHEP    C711525   6.000   3.050  12.271
    6AHEP   H7111526   6.001   3.072  12.162
    6AHEP   H7211527   5.963   3.142  12.321
    6AHEP    O711528   5.905   2.945  12.295
    6AHEP   HO711529   5.909   2.891  12.216
    7AGLC    C111530   5.913   2.426  13.315
    7AGLC    H111531   5.815   2.410  13.266
    7AGLC    C511532   6.127   2.330  13.358
    7AGLC    H511533   6.173   2.421  13.313
    7AGLC    O511534   5.997   2.311  13.300
    7AGLC    C211535   5.894   2.447  13.465
    7AGLC    H211536   5.855   2.351  13.505
    7AGLC    O211537   5.791   2.541  13.493
    7AGLC   HO211538   5.815   2.627  13.458
    7AGLC    C311539   6.025   2.476  13.535
    7AGLC    H311540   6.070   2.566  13.488
    7AGLC    O311541   6.010   2.499  13.678
    7AGLC    C411542   6.113   2.354  13.508
    7AGLC    H411543   6.060   2.265  13.548
    7AGLC    O411544   6.240   2.360  13.572
    7AGLC   HO411545   6.229   2.336  13.664
    7AGLC    C611546   6.214   2.213  13.314
    7AGLC   H6111547   6.180   2.177  13.215
    7AGLC   H6211548   6.318   2.248  13.301
    7AGLC    O611549   6.214   2.104  13.408
    7AGLC   HO611550   6.248   2.141  13.490
    8AGLC    C111551   6.055   2.625  13.727
    8AGLC    H111552   6.150   2.654  13.676
    8AGLC    C511553   5.833   2.710  13.766
    8AGLC    H511554   5.791   2.615  13.726
    8AGLC    O511555   5.962   2.732  13.707
    8AGLC    C211556   6.076   2.617  13.878
    8AGLC    H211557   6.114   2.716  13.911
    8AGLC    O211558   6.168   2.516  13.919
    8AGLC    C311559   5.945   2.589  13.949
    8AGLC    H311560   5.905   2.493  13.910
    8AGLC    O311561   5.976   2.568  14.089
    8AGLC    C411562   5.847   2.699  13.917
    8AGLC    H411563   5.886   2.795  13.956
    8AGLC    O411564   5.720   2.672  13.977
    8AGLC   HO411565   5.665   2.624  13.915
    8AGLC    C611566   5.742   2.824  13.719
    8AGLC   H6111567   5.775   2.859  13.619
    8AGLC   H6211568   5.638   2.786  13.707
    8AGLC    O611569   5.740   2.935  13.810
    8AGLC   HO611570   5.688   2.911  13.887
    9AGAL    C111571   6.297   2.517  13.865
    9AGAL    H111572   6.294   2.519  13.753
    9AGAL    C511573   6.391   2.633  14.051
    9AGAL    H511574   6.289   2.637  14.095
    9AGAL    O511575   6.376   2.628  13.908
    9AGAL    C211576   6.358   2.385  13.910
    9AGAL    H211577   6.459   2.377  13.865
    9AGAL    O211578   6.274   2.283  13.851
    9AGAL    C311579   6.374   2.388  14.063
    9AGAL    H311580   6.273   2.403  14.107
    9AGAL    O311581   6.425   2.267  14.119
    9AGAL   HO311582   6.352   2.204  14.115
    9AGAL    C411583   6.460   2.507  14.102
    9AGAL    H411584   6.466   2.513  14.212
    9AGAL    O411585   6.594   2.497  14.052
    9AGAL   HO411586   6.622   2.587  14.032
    9AGAL    C611587   6.458   2.764  14.088
    9AGAL   H6111588   6.396   2.849  14.053
    9AGAL   H6211589   6.466   2.772  14.199
    9AGAL    O611590   6.590   2.776  14.033
    9AGAL   HO611591   6.583   2.790  13.938
   10AGAL    C111592   6.271   2.153  13.904
   10AGAL    H111593   6.376   2.116  13.916
   10AGAL    C511594   6.065   2.192  14.020
   10AGAL    H511595   6.063   2.292  13.970
   10AGAL    O511596   6.203   2.151  14.031
   10AGAL    C211597   6.199   2.058  13.810
   10AGAL    H211598   6.203   1.957  13.855
   10AGAL    O211599   6.263   2.049  13.683
   10AGAL   HO211600   6.201   2.006  13.625
   10AGAL    C311601   6.052   2.096  13.794
   10AGAL    H311602   6.047   2.200  13.756
   10AGAL    O311603   5.985   2.012  13.699
   10AGAL   HO311604   5.896   2.045  13.686
   10AGAL    C411605   5.987   2.095  13.931
   10AGAL    H411606   5.882   2.131  13.923
   10AGAL    O411607   5.985   1.965  13.989
   10AGAL   HO411608   6.005   1.976  14.083
   10AGAL    C611609   6.007   2.216  14.159
   10AGAL   H6111610   6.074   2.285  14.214
   10AGAL   H6211611   5.909   2.268  14.149
   10AGAL    O611612   5.989   2.097  14.236
   10AGAL   HO611613   5.896   2.080  14.248
   11BGLC    C111614   5.959   2.672  14.184
   11BGLC    H111615   5.851   2.689  14.202
   11BGLC    C511616   6.013   2.898  14.245
   11BGLC    H511617   5.906   2.911  14.271
   11BGLC    O511618   6.024   2.794  14.145
   11BGLC    C211619   6.027   2.621  14.311
   11BGLC    H211620   6.134   2.604  14.285
   11BGLC    O211621   5.975   2.496  14.358
   11BGLC   HO211622   5.881   2.504  14.372
   11BGLC    C311623   6.023   2.725  14.422
   11BGLC    H311624   5.917   2.744  14.448
   11BGLC    O311625   6.099   2.682  14.537
   11BGLC    C411626   6.086   2.852  14.371
   11BGLC    H411627   6.192   2.832  14.344
   11BGLC    O411628   6.088   2.953  14.472
   11BGLC   HO411629   6.000   2.959  14.512
   11BGLC    C611630   6.066   3.028  14.186
   11BGLC   H6111631   6.115   3.089  14.264
   11BGLC   H6211632   6.142   3.007  14.107
   11BGLC    O611633   5.960   3.108  14.132
   11BGLC   HO611634   5.962   3.104  14.036
   12BGLCN   C111635   6.024   2.664  14.655
   12BGLCN   H111636   5.962   2.573  14.643
   12BGLCN   C511637   5.859   2.757  14.797
   12BGLCN   H511638   5.800   2.664  14.784
   12BGLCN   O511639   5.941   2.777  14.681
   12BGLCN   C211640   6.123   2.645  14.770
   12BGLCN   H211641   6.178   2.741  14.780
   12BGLCN    N11642   6.220   2.542  14.734
   12BGLCN   HN11643   6.189   2.473  14.669
   12BGLCN    C11644   6.350   2.543  14.764
   12BGLCN    O11645   6.403   2.624  14.840
   12BGLCN   CT11646   6.434   2.435  14.700
   12BGLCN  HT111647   6.512   2.401  14.772
   12BGLCN  HT211648   6.483   2.475  14.609
   12BGLCN  HT311649   6.369   2.348  14.673
   12BGLCN   C311650   6.045   2.622  14.899
   12BGLCN   H311651   5.985   2.529  14.888
   12BGLCN   O311652   6.134   2.610  15.013
   12BGLCN   C411653   5.950   2.741  14.919
   12BGLCN   H411654   6.012   2.833  14.930
   12BGLCN   O411655   5.870   2.729  15.036
   12BGLCN  HO411656   5.798   2.667  15.020
   12BGLCN   C611657   5.762   2.874  14.804
   12BGLCN  H6111658   5.706   2.874  14.900
   12BGLCN  H6211659   5.819   2.969  14.799
   12BGLCN   O611660   5.667   2.871  14.696
   12BGLCN  HO611661   5.586   2.826  14.721
   13AGAL    C111662   6.092   2.522  15.117
   13AGAL    H111663   5.984   2.536  15.139
   13AGAL    C511664   6.255   2.356  15.057
   13AGAL    H511665   6.292   2.433  14.987
   13AGAL    O511666   6.115   2.384  15.079
   13AGAL    C211667   6.170   2.547  15.246
   13AGAL    H211668   6.135   2.469  15.317
   13AGAL    O211669   6.144   2.676  15.307
   13AGAL    C311670   6.319   2.522  15.225
   13AGAL    H311671   6.352   2.585  15.140
   13AGAL    O311672   6.399   2.558  15.337
   13AGAL   HO311673   6.415   2.652  15.332
   13AGAL    C411674   6.336   2.376  15.185
   13AGAL    H411675   6.443   2.358  15.163
   13AGAL    O411676   6.298   2.283  15.288
   13AGAL   HO411677   6.202   2.287  15.298
   13AGAL    C611678   6.277   2.224  14.984
   13AGAL   H6111679   6.203   2.213  14.902
   13AGAL   H6211680   6.378   2.226  14.938
   13AGAL    O611681   6.269   2.111  15.070
   13AGAL   HO611682   6.301   2.139  15.157
   14ARHM    C111683   6.079   2.676  15.433
   14ARHM    H111684   6.022   2.581  15.445
   14ARHM    C511685   6.037   2.910  15.437
   14ARHM    H511686   6.089   2.923  15.340
   14ARHM    O511687   5.980   2.778  15.444
   14ARHM    C211688   6.182   2.688  15.544
   14ARHM    H211689   6.261   2.611  15.528
   14ARHM    O211690   6.133   2.668  15.678
   14ARHM    C311691   6.246   2.824  15.539
   14ARHM    H311692   6.295   2.837  15.440
   14ARHM    O311693   6.348   2.839  15.638
   14ARHM   HO311694   6.307   2.868  15.720
   14ARHM    C411695   6.136   2.929  15.551
   14ARHM    H411696   6.082   2.912  15.646
   14ARHM    O411697   6.187   3.062  15.554
   14ARHM   HO411698   6.221   3.078  15.642
   14ARHM    C611699   5.917   3.007  15.441
   14ARHM   H6111700   5.850   2.986  15.355
   14ARHM   H6211701   5.861   2.994  15.536
   14ARHM   H6311702   5.952   3.112  15.434
   15ARHM    C111703   6.071   2.545  15.704
   15ARHM    H111704   6.100   2.469  15.629
   15ARHM    C511705   5.888   2.661  15.803
   15ARHM    H511706   5.934   2.758  15.777
   15ARHM    O511707   5.929   2.561  15.708
   15ARHM    C211708   6.117   2.498  15.840
   15ARHM    H211709   6.227   2.484  15.839
   15ARHM    O211710   6.054   2.370  15.859
   15ARHM    C311711   6.082   2.602  15.944
   15ARHM    H311712   6.130   2.698  15.912
   15ARHM    O311713   6.138   2.567  16.071
   15ARHM    C411714   5.932   2.622  15.945
   15ARHM    H411715   5.883   2.526  15.970
   15ARHM    O411716   5.892   2.719  16.042
   15ARHM   HO411717   5.797   2.730  16.041
   15ARHM    C611718   5.736   2.675  15.787
   15ARHM   H6111719   5.696   2.755  15.853
   15ARHM   H6211720   5.712   2.701  15.681
   15ARHM   H6311721   5.685   2.579  15.811
   16BMANN   C111722   6.065   2.305  15.983
   16BMANN   H111723   6.011   2.365  16.060
   16BMANN   C511724   6.207   2.228  16.155
   16BMANN   H511725   6.155   2.296  16.226
   16BMANN   O511726   6.201   2.285  16.023
   16BMANN   C211727   5.994   2.171  15.971
   16BMANN   H211728   5.888   2.192  15.946
   16BMANN    N11729   6.047   2.085  15.865
   16BMANN   HN11730   6.108   2.011  15.895
   16BMANN    C11731   6.009   2.090  15.737
   16BMANN    O11732   5.928   2.172  15.693
   16BMANN   CT11733   6.073   1.990  15.645
   16BMANN  HT111734   6.016   1.895  15.648
   16BMANN  HT211735   6.178   1.970  15.676
   16BMANN  HT311736   6.073   2.029  15.541
   16BMANN   C311737   5.995   2.107  16.108
   16BMANN   H311738   5.940   2.172  16.179
   16BMANN   O311739   5.927   1.982  16.102
   16BMANN  HO311740   5.944   1.928  16.179
   16BMANN   C411741   6.139   2.092  16.156
   16BMANN   H411742   6.194   2.022  16.090
   16BMANN   O411743   6.143   2.043  16.290
   16BMANN  HO411744   6.116   1.950  16.291
   16BMANN   C611745   6.353   2.221  16.196
   16BMANN  H6111746   6.361   2.190  16.303
   16BMANN  H6211747   6.405   2.144  16.135
   16BMANN   O611748   6.419   2.347  16.179
   16BMANN  HO611749   6.365   2.399  16.120
   17BGLCN   C111750   6.186   2.677  16.144
   17BGLCN   H111751   6.126   2.768  16.122
   17BGLCN   C511752   6.376   2.811  16.194
   17BGLCN   H511753   6.315   2.901  16.172
   17BGLCN   O511754   6.324   2.700  16.118
   17BGLCN   C211755   6.170   2.638  16.290
   17BGLCN   H211756   6.240   2.554  16.309
   17BGLCN    N11757   6.036   2.587  16.315
   17BGLCN   HN11758   5.967   2.613  16.248
   17BGLCN    C11759   6.004   2.502  16.413
   17BGLCN    O11760   6.086   2.460  16.495
   17BGLCN   CT11761   5.860   2.458  16.420
   17BGLCN  HT111762   5.847   2.366  16.360
   17BGLCN  HT211763   5.794   2.538  16.380
   17BGLCN  HT311764   5.833   2.437  16.525
   17BGLCN   C311765   6.214   2.757  16.374
   17BGLCN   H311766   6.159   2.846  16.336
   17BGLCN   O311767   6.180   2.740  16.513
   17BGLCN   C411768   6.362   2.780  16.343
   17BGLCN   H411769   6.417   2.685  16.366
   17BGLCN   O411770   6.421   2.882  16.422
   17BGLCN  HO411771   6.511   2.857  16.443
   17BGLCN   C611772   6.517   2.839  16.147
   17BGLCN  H6111773   6.563   2.918  16.209
   17BGLCN  H6211774   6.580   2.748  16.157
   17BGLCN   O611775   6.520   2.884  16.011
   17BGLCN  HO611776   6.543   2.810  15.953
   18AGAL    C111777   6.150   2.857  16.586
   18AGAL    H111778   6.242   2.919  16.597
   18AGAL    C511779   5.922   2.869  16.510
   18AGAL    H511780   5.943   2.775  16.454
   18AGAL    O511781   6.048   2.938  16.523
   18AGAL    C211782   6.098   2.822  16.725
   18AGAL    H211783   6.073   2.920  16.772
   18AGAL    O211784   6.198   2.759  16.808
   18AGAL    C311785   5.970   2.741  16.714
   18AGAL    H311786   5.993   2.652  16.651
   18AGAL    O311787   5.924   2.689  16.840
   18AGAL   HO311788   5.882   2.604  16.826
   18AGAL    C411789   5.865   2.826  16.646
   18AGAL    H411790   5.775   2.765  16.626
   18AGAL    O411791   5.826   2.937  16.727
   18AGAL   HO411792   5.763   2.904  16.792
   18AGAL    C611793   5.830   2.947  16.419
   18AGAL   H6111794   5.884   2.974  16.325
   18AGAL   H6211795   5.743   2.884  16.390
   18AGAL    O611796   5.780   3.067  16.478
   18AGAL   HO611797   5.845   3.097  16.542
   19ARHM    C111798   6.189   2.800  16.942
   19ARHM    H111799   6.086   2.831  16.968
   19ARHM    C511800   6.414   2.880  16.949
   19ARHM    H511801   6.429   2.849  16.843
   19ARHM    O511802   6.276   2.911  16.971
   19ARHM    C211803   6.227   2.682  17.030
   19ARHM    H211804   6.168   2.595  16.993
   19ARHM    O211805   6.197   2.704  17.169
   19ARHM    C311806   6.372   2.644  17.011
   19ARHM    H311807   6.387   2.615  16.905
   19ARHM    O311808   6.405   2.532  17.093
   19ARHM   HO311809   6.412   2.565  17.183
   19ARHM    C411810   6.458   2.766  17.041
   19ARHM    H411811   6.438   2.799  17.145
   19ARHM    O411812   6.597   2.739  17.029
   19ARHM   HO411813   6.615   2.692  16.948
   19ARHM    C611814   6.489   3.013  16.971
   19ARHM   H6111815   6.457   3.088  16.895
   19ARHM   H6211816   6.467   3.053  17.072
   19ARHM   H6311817   6.599   2.998  16.960
   20ARHM    C111818   6.060   2.691  17.199
   20ARHM    H111819   6.007   2.635  17.119
   20ARHM    C511820   6.044   2.898  17.319
   20ARHM    H511821   6.152   2.919  17.300
   20ARHM    O511822   5.992   2.817  17.213
   20ARHM    C211823   6.048   2.613  17.329
   20ARHM    H211824   6.112   2.523  17.321
   20ARHM    O211825   5.913   2.571  17.353
   20ARHM    C311826   6.102   2.693  17.444
   20ARHM    H311827   6.211   2.710  17.428
   20ARHM    O311828   6.081   2.615  17.563
   20ARHM    C411829   6.030   2.825  17.452
   20ARHM    H411830   5.922   2.805  17.470
   20ARHM    O411831   6.077   2.905  17.560
   20ARHM   HO411832   6.165   2.936  17.538
   20ARHM    C611833   5.967   3.031  17.313
   20ARHM   H6111834   5.859   3.013  17.329
   20ARHM   H6211835   6.004   3.101  17.392
   20ARHM   H6311836   5.981   3.079  17.214
   21BMANN   C111837   5.874   2.462  17.274
   21BMANN   H111838   5.957   2.427  17.209
   21BMANN   C511839   5.723   2.389  17.105
   21BMANN   H511840   5.812   2.357  17.045
   21BMANN   O511841   5.763   2.498  17.191
   21BMANN   C211842   5.834   2.350  17.367
   21BMANN   H211843   5.926   2.320  17.422
   21BMANN    N11844   5.738   2.395  17.468
   21BMANN   HN11845   5.700   2.486  17.452
   21BMANN    C11846   5.712   2.331  17.583
   21BMANN    O11847   5.756   2.220  17.607
   21BMANN   CT11848   5.622   2.403  17.680
   21BMANN  HT111849   5.517   2.371  17.666
   21BMANN  HT211850   5.630   2.513  17.666
   21BMANN  HT311851   5.655   2.379  17.784
   21BMANN   C311852   5.791   2.231  17.282
   21BMANN   H311853   5.877   2.203  17.217
   21BMANN   O311854   5.761   2.117  17.360
   21BMANN  HO311855   5.748   2.145  17.451
   21BMANN   C411856   5.677   2.271  17.190
   21BMANN   H411857   5.590   2.302  17.251
   21BMANN   O411858   5.636   2.165  17.105
   21BMANN  HO411859   5.650   2.082  17.152
   21BMANN   C611860   5.621   2.440  17.006
   21BMANN  H6111861   5.598   2.362  16.930
   21BMANN  H6211862   5.526   2.465  17.058
   21BMANN   O611863   5.669   2.558  16.940
   21BMANN  HO611864   5.707   2.614  17.007
   22BGLCN   C111865   6.178   2.628  17.663
   22BGLCN   H111866   6.228   2.727  17.660
   22BGLCN   C511867   6.367   2.524  17.760
   22BGLCN   H511868   6.415   2.624  17.767
   22BGLCN   O511869   6.273   2.522  17.652
   22BGLCN   C211870   6.099   2.612  17.792
   22BGLCN   H211871   6.050   2.512  17.787
   22BGLCN    N11872   5.993   2.712  17.799
   22BGLCN   HN11873   6.008   2.795  17.746
   22BGLCN    C11874   5.874   2.692  17.857
   22BGLCN    O11875   5.843   2.586  17.911
   22BGLCN   CT11876   5.777   2.806  17.853
   22BGLCN  HT111877   5.710   2.793  17.765
   22BGLCN  HT211878   5.831   2.903  17.844
   22BGLCN  HT311879   5.716   2.806  17.946
   22BGLCN   C311880   6.193   2.612  17.911
   22BGLCN   H311881   6.249   2.708  17.911
   22BGLCN   O311882   6.115   2.605  18.033
   22BGLCN   C411883   6.292   2.498  17.890
   22BGLCN   H411884   6.235   2.403  17.879
   22BGLCN   O411885   6.383   2.481  17.998
   22BGLCN  HO411886   6.353   2.407  18.050
   22BGLCN   C611887   6.475   2.424  17.724
   22BGLCN  H6111888   6.541   2.403  17.812
   22BGLCN  H6211889   6.430   2.328  17.691
   22BGLCN   O611890   6.558   2.477  17.620
   22BGLCN  HO611891   6.502   2.522  17.557
   23AGAL    C111892   6.174   2.648  18.154
   23AGAL    H111893   6.254   2.575  18.183
   23AGAL    C511894   6.139   2.882  18.118
   23AGAL    H511895   6.084   2.856  18.025
   23AGAL    O511896   6.235   2.778  18.144
   23AGAL    C211897   6.071   2.648  18.266
   23AGAL    H211898   6.124   2.674  18.360
   23AGAL    O211899   6.007   2.520  18.284
   23AGAL    C311900   5.967   2.755  18.242
   23AGAL    H311901   5.916   2.732  18.146
   23AGAL    O311902   5.866   2.756  18.343
   23AGAL   HO311903   5.905   2.782  18.427
   23AGAL    C411904   6.036   2.890  18.230
   23AGAL    H411905   5.960   2.967  18.204
   23AGAL    O411906   6.098   2.929  18.352
   23AGAL   HO411907   6.175   2.981  18.327
   23AGAL    C611908   6.211   3.013  18.089
   23AGAL   H6111909   6.281   2.999  18.003
   23AGAL   H6211910   6.137   3.090  18.057
   23AGAL    O611911   6.286   3.066  18.200
   23AGAL   HO611912   6.379   3.047  18.186
   24ARHM    C111913   6.073   2.428  18.366
   24ARHM    H111914   6.180   2.457  18.375
   24ARHM    C511915   5.942   2.244  18.294
   24ARHM    H511916   5.882   2.312  18.229
   24ARHM    O511917   6.075   2.297  18.308
   24ARHM    C211918   6.010   2.425  18.504
   24ARHM    H211919   6.001   2.530  18.540
   24ARHM    O211920   6.086   2.348  18.599
   24ARHM    C311921   5.870   2.369  18.495
   24ARHM    H311922   5.807   2.435  18.432
   24ARHM    O311923   5.812   2.363  18.626
   24ARHM   HO311924   5.869   2.308  18.679
   24ARHM    C411925   5.875   2.231  18.430
   24ARHM    H411926   5.938   2.163  18.493
   24ARHM    O411927   5.745   2.172  18.418
   24ARHM   HO411928   5.746   2.110  18.344
   24ARHM    C611929   5.959   2.110  18.220
   24ARHM   H6111930   5.861   2.063  18.198
   24ARHM   H6211931   6.012   2.127  18.124
   24ARHM   H6311932   6.021   2.040  18.281
   25ARHM    C111933   6.196   2.414  18.656
   25ARHM    H111934   6.234   2.491  18.584
   25ARHM    C511935   6.273   2.227  18.780
   25ARHM    H511936   6.186   2.169  18.745
   25ARHM    O511937   6.306   2.326  18.681
   25ARHM    C211938   6.153   2.486  18.781
   25ARHM    H211939   6.060   2.543  18.761
   25ARHM    O211940   6.254   2.576  18.830
   25ARHM    C311941   6.118   2.386  18.888
   25ARHM    H311942   6.032   2.325  18.853
   25ARHM    O311943   6.080   2.459  19.005
   25ARHM    C411944   6.238   2.296  18.912
   25ARHM    H411945   6.324   2.359  18.943
   25ARHM    O411946   6.213   2.201  19.016
   25ARHM   HO411947   6.295   2.163  19.048
   25ARHM    C611948   6.393   2.131  18.789
   25ARHM   H6111949   6.413   2.086  18.690
   25ARHM   H6211950   6.484   2.185  18.823
   25ARHM   H6311951   6.371   2.048  18.860
   26BMANN   C111952   6.252   2.703  18.769
   26BMANN   H111953   6.151   2.728  18.731
   26BMANN   C511954   6.352   2.842  18.603
   26BMANN   H511955   6.250   2.863  18.563
   26BMANN   O511956   6.350   2.711  18.664
   26BMANN   C211957   6.292   2.800  18.878
   26BMANN   H211958   6.213   2.793  18.956
   26BMANN    N11959   6.419   2.764  18.939
   26BMANN   HN11960   6.476   2.704  18.884
   26BMANN    C11961   6.458   2.805  19.060
   26BMANN    O11962   6.390   2.882  19.128
   26BMANN   CT11963   6.590   2.754  19.111
   26BMANN  HT111964   6.656   2.727  19.026
   26BMANN  HT211965   6.574   2.666  19.177
   26BMANN  HT311966   6.639   2.834  19.171
   26BMANN   C311967   6.288   2.940  18.819
   26BMANN   H311968   6.186   2.957  18.778
   26BMANN   O311969   6.309   3.040  18.918
   26BMANN  HO311970   6.338   2.998  18.999
   26BMANN   C411971   6.387   2.949  18.705
   26BMANN   H411972   6.489   2.931  18.744
   26BMANN   O411973   6.383   3.079  18.647
   26BMANN  HO411974   6.368   3.138  18.722
   26BMANN   C611975   6.446   2.837  18.483
   26BMANN  H6111976   6.421   2.748  18.421
   26BMANN  H6211977   6.430   2.927  18.420
   26BMANN   O611978   6.584   2.830  18.521
   26BMANN  HO611979   6.623   2.918  18.515
   27BGLCN   C111980   5.981   2.398  19.083
   27BGLCN   H111981   5.984   2.288  19.073
   27BGLCN   C511982   5.749   2.387  19.128
   27BGLCN   H511983   5.750   2.277  19.113
   27BGLCN   O511984   5.851   2.447  19.048
   27BGLCN   C211985   6.010   2.439  19.225
   27BGLCN   H211986   5.997   2.549  19.231
   27BGLCN    N11987   6.148   2.407  19.258
   27BGLCN   HN11988   6.187   2.331  19.207
   27BGLCN    C11989   6.226   2.480  19.338
   27BGLCN    O11990   6.185   2.580  19.398
   27BGLCN   CT11991   6.369   2.435  19.350
   27BGLCN  HT111992   6.387   2.344  19.289
   27BGLCN  HT211993   6.391   2.414  19.457
   27BGLCN  HT311994   6.435   2.517  19.315
   27BGLCN   C311995   5.909   2.374  19.317
   27BGLCN   H311996   5.917   2.264  19.305
   27BGLCN   O311997   5.947   2.411  19.452
   27BGLCN   C411998   5.771   2.419  19.276
   27BGLCN   H411999   5.762   2.529  19.291
   27BGLCN   O412000   5.671   2.353  19.352
   27BGLCN  HO412001   5.710   2.280  19.401
   27BGLCN   C612002   5.617   2.441  19.077
   27BGLCN  H6112003   5.533   2.395  19.132
   27BGLCN  H6212004   5.613   2.551  19.094
   27BGLCN   O612005   5.600   2.417  18.937
   27BGLCN  HO612006   5.674   2.457  18.890
   28AGAL    C112007   5.887   2.344   0.088
   28AGAL    H112008   5.783   2.380   0.100
   28AGAL    C512009   6.023   2.149   0.062
   28AGAL    H512010   6.075   2.199  19.451
   28AGAL    O512011   5.889   2.202   0.070
   28AGAL    C212012   5.960   2.374   0.218
   28AGAL    H212013   5.908   2.308   0.291
   28AGAL    O212014   5.947   2.510   0.265
   28AGAL    C312015   6.105   2.330   0.209
   28AGAL    H312016   6.152   2.381   0.123
   28AGAL    O312017   6.179   2.366   0.326
   28AGAL   HO312018   6.256   2.417   0.300
   28AGAL    C412019   6.106   2.180   0.188
   28AGAL    H412020   6.211   2.149   0.168
   28AGAL    O412021   6.064   2.114   0.307
   28AGAL   HO412022   6.080   2.177   0.378
   28AGAL    C612023   6.014   2.002   0.023
   28AGAL   H6112024   5.959   1.995  19.399
   28AGAL   H6212025   6.116   1.961   0.006
   28AGAL    O612026   5.946   1.921   0.119
   28AGAL   HO612027   5.869   1.969   0.150
   29ARHM    C112028   5.907   2.519   0.400
   29ARHM    H112029   5.928   2.424   0.453
   29ARHM    C512030   5.735   2.677   0.351
   29ARHM    H512031   5.767   2.675   0.245
   29ARHM    O512032   5.767   2.550   0.412
   29ARHM    C212033   5.987   2.625   0.473
   29ARHM    H212034   6.095   2.603   0.454
   29ARHM    O212035   5.960   2.619   0.615
   29ARHM    C312036   5.959   2.762   0.415
   29ARHM    H312037   5.989   2.762   0.308
   29ARHM    O312038   6.036   2.861   0.483
   29ARHM   HO312039   6.025   2.945   0.437
   29ARHM    C412040   5.810   2.789   0.423
   29ARHM    H412041   5.780   2.789   0.530
   29ARHM    O412042   5.776   2.917   0.368
   29ARHM   HO412043   5.780   2.912   0.272
   29ARHM    C612044   5.582   2.690   0.353
   29ARHM   H6112045   5.535   2.603   0.302
   29ARHM   H6212046   5.543   2.694   0.457
   29ARHM   H6312047   5.550   2.783   0.300
   30ARHM    C112048   6.065   2.562   0.690
   30ARHM    H112049   6.161   2.611   0.661
   30ARHM    C512050   5.959   2.348   0.709
   30ARHM    H512051   5.870   2.385   0.654
   30ARHM    O512052   6.076   2.421   0.668
   30ARHM    C212053   6.043   2.587   0.839
   30ARHM    H212054   6.027   2.695   0.855
   30ARHM    O212055   6.159   2.542   0.912
   30ARHM    C312056   5.920   2.513   0.887
   30ARHM    H312057   5.834   2.550   0.827
   30ARHM    O312058   5.890   2.547   1.024
   30ARHM    C412059   5.934   2.365   0.857
   30ARHM    H412060   6.020   2.323   0.913
   30ARHM    O412061   5.817   2.291   0.893
   30ARHM   HO412062   5.747   2.304   0.828
   30ARHM    C612063   5.983   2.201   0.667
   30ARHM   H6112064   5.895   2.138   0.692
   30ARHM   H6212065   6.000   2.195   0.558
   30ARHM   H6312066   6.071   2.160   0.720
   31BMANN   C112067   6.259   2.637   0.941
   31BMANN   H112068   6.216   2.737   0.961
   31BMANN   C512069   6.468   2.732   0.870
   31BMANN   H512070   6.425   2.831   0.895
   31BMANN   O512071   6.359   2.642   0.837
   31BMANN   C212072   6.326   2.580   1.065
   31BMANN   H212073   6.250   2.583   1.147
   31BMANN    N12074   6.360   2.439   1.047
   31BMANN   HN12075   6.351   2.405   0.954
   31BMANN    C12076   6.392   2.352   1.143
   31BMANN    O12077   6.412   2.385   1.259
   31BMANN   CT12078   6.404   2.208   1.100
   31BMANN  HT112079   6.485   2.197   1.025
   31BMANN  HT212080   6.308   2.173   1.056
   31BMANN  HT312081   6.427   2.145   1.189
   31BMANN   C312082   6.438   2.673   1.107
   31BMANN   H312083   6.396   2.775   1.120
   31BMANN   O312084   6.495   2.639   1.233
   31BMANN  HO312085   6.472   2.548   1.253
   31BMANN   C412086   6.540   2.681   0.995
   31BMANN   H412087   6.583   2.581   0.975
   31BMANN   O412088   6.646   2.770   1.029
   31BMANN  HO412089   6.675   2.750   1.119
   31BMANN   C612090   6.560   2.752   0.751
   31BMANN  H6112091   6.652   2.805   0.783
   31BMANN  H6212092   6.592   2.654   0.708
   31BMANN   O612093   6.499   2.832   0.649
   31BMANN  HO612094   6.448   2.779   0.588
   32BGLCN   C112095   5.954   2.477   1.128
   32BGLCN   H112096   6.061   2.461   1.105
   32BGLCN   C512097   5.957   2.278   1.261
   32BGLCN   H512098   6.064   2.265   1.235
   32BGLCN   O512099   5.891   2.351   1.156
   32BGLCN   C212100   5.941   2.563   1.254
   32BGLCN   H212101   5.833   2.564   1.280
   32BGLCN    N12102   5.983   2.701   1.231
   32BGLCN   HN12103   6.066   2.716   1.178
   32BGLCN    C12104   5.912   2.809   1.268
   32BGLCN    O12105   5.807   2.802   1.330
   32BGLCN   CT12106   5.969   2.942   1.228
   32BGLCN  HT112107   6.017   2.935   1.128
   32BGLCN  HT212108   6.043   2.976   1.303
   32BGLCN  HT312109   5.886   3.016   1.223
   32BGLCN   C312110   6.017   2.493   1.365
   32BGLCN   H312111   6.119   2.473   1.326
   32BGLCN   O312112   6.030   2.569   1.487
   32BGLCN   C412113   5.948   2.360   1.389
   32BGLCN   H412114   5.841   2.378   1.412
   32BGLCN   O412115   6.004   2.291   1.499
   32BGLCN  HO412116   5.977   2.337   1.579
   32BGLCN   C612117   5.895   2.140   1.268
   32BGLCN  H6112118   5.940   2.082   1.350
   32BGLCN  H6212119   5.786   2.149   1.288
   32BGLCN   O612120   5.914   2.070   1.145
   32BGLCN  HO612121   5.874   2.122   1.075
   33AGAL    C112122   6.159   2.558   1.544
   33AGAL    H112123   6.200   2.455   1.528
   33AGAL    C512124   6.215   2.788   1.508
   33AGAL    H512125   6.113   2.808   1.469
   33AGAL    O512126   6.249   2.651   1.481
   33AGAL    C212127   6.159   2.584   1.693
   33AGAL    H212128   6.265   2.573   1.725
   33AGAL    O212129   6.084   2.484   1.763
   33AGAL    C312130   6.115   2.726   1.724
   33AGAL    H312131   6.014   2.742   1.681
   33AGAL    O312132   6.106   2.754   1.864
   33AGAL   HO312133   6.194   2.783   1.890
   33AGAL    C412134   6.214   2.820   1.657
   33AGAL    H412135   6.180   2.925   1.672
   33AGAL    O412136   6.345   2.809   1.712
   33AGAL   HO412137   6.403   2.811   1.637
   33AGAL    C612138   6.311   2.877   1.430
   33AGAL   H6112139   6.292   2.865   1.321
   33AGAL   H6212140   6.292   2.983   1.455
   33AGAL    O612141   6.449   2.846   1.456
   33AGAL   HO612142   6.477   2.774   1.399
   34ARHM    C112143   6.141   2.443   1.885
   34ARHM    H112144   6.178   2.532   1.941
   34ARHM    C512145   6.213   2.234   1.794
   34ARHM    H512146   6.176   2.263   1.694
   34ARHM    O512147   6.252   2.353   1.865
   34ARHM    C212148   6.032   2.375   1.965
   34ARHM    H212149   5.946   2.445   1.972
   34ARHM    O212150   6.073   2.339   2.099
   34ARHM    C312151   5.985   2.252   1.889
   34ARHM    H312152   5.950   2.284   1.789
   34ARHM    O312153   5.874   2.188   1.952
   34ARHM   HO312154   5.805   2.179   1.887
   34ARHM    C412155   6.104   2.159   1.869
   34ARHM    H412156   6.143   2.130   1.968
   34ARHM    O412157   6.069   2.040   1.798
   34ARHM   HO412158   6.007   1.989   1.851
   34ARHM    C612159   6.342   2.152   1.773
   34ARHM   H6112160   6.386   2.123   1.871
   34ARHM   H6212161   6.320   2.061   1.714
   34ARHM   H6312162   6.417   2.212   1.717
   35ARHM    C112163   6.107   2.446   2.184
   35ARHM    H112164   6.044   2.535   2.162
   35ARHM    C512165   6.335   2.373   2.200
   35ARHM    H512166   6.316   2.292   2.127
   35ARHM    O512167   6.246   2.482   2.173
   35ARHM    C212168   6.082   2.400   2.327
   35ARHM    H212169   5.976   2.368   2.334
   35ARHM    O212170   6.106   2.502   2.426
   35ARHM    C312171   6.169   2.279   2.358
   35ARHM    H312172   6.146   2.199   2.284
   35ARHM    O312173   6.141   2.225   2.488
   35ARHM   HO312174   6.062   2.267   2.523
   35ARHM    C412175   6.314   2.321   2.342
   35ARHM    H412176   6.335   2.404   2.412
   35ARHM    O412177   6.407   2.216   2.373
   35ARHM   HO412178   6.398   2.144   2.310
   35ARHM    C612179   6.476   2.429   2.175
   35ARHM   H6112180   6.483   2.471   2.073
   35ARHM   H6212181   6.498   2.511   2.248
   35ARHM   H6312182   6.553   2.349   2.187
   36BMANN   C112183   6.016   2.610   2.427
   36BMANN   H112184   5.915   2.576   2.396
   36BMANN   C512185   5.969   2.831   2.346
   36BMANN   H512186   5.871   2.793   2.310
   36BMANN   O512187   6.061   2.719   2.345
   36BMANN   C212188   6.011   2.661   2.571
   36BMANN   H212189   5.974   2.576   2.633
   36BMANN    N12190   6.142   2.703   2.621
   36BMANN   HN12191   6.200   2.751   2.556
   36BMANN    C12192   6.183   2.690   2.748
   36BMANN    O12193   6.122   2.626   2.833
   36BMANN   CT12194   6.314   2.755   2.782
   36BMANN  HT112195   6.308   2.864   2.761
   36BMANN  HT212196   6.396   2.710   2.721
   36BMANN  HT312197   6.336   2.740   2.890
   36BMANN   C312198   5.907   2.772   2.578
   36BMANN   H312199   5.810   2.734   2.539
   36BMANN   O312200   5.885   2.816   2.712
   36BMANN  HO312201   5.815   2.764   2.752
   36BMANN   C412202   5.952   2.885   2.487
   36BMANN   H412203   6.051   2.923   2.523
   36BMANN   O412204   5.862   2.996   2.488
   36BMANN  HO412205   5.877   3.044   2.570
   36BMANN   C612206   6.014   2.935   2.244
   36BMANN  H6112207   6.047   2.884   2.151
   36BMANN  H6212208   5.928   3.000   2.218
   36BMANN   O612209   6.120   3.018   2.292
   36BMANN  HO612210   6.092   3.062   2.373
    1ECLIP HB6S12211   3.075   1.680  11.802
    1ECLIP  OB612212   2.919   1.644  11.935
    1ECLIP  CB612213   3.016   1.594  11.840
    1ECLIP HB6R12214   3.088   1.526  11.890
    1ECLIP  CB512215   2.961   1.520  11.718
    1ECLIP  OB512216   2.864   1.608  11.662
    1ECLIP  HB512217   2.910   1.427  11.750
    1ECLIP  CB112218   2.798   1.550  11.549
    1ECLIP  HB112219   2.755   1.453  11.581
    1ECLIP  OA612220   2.691   1.627  11.503
    1ECLIP  CA612221   2.708   1.767  11.520
    1ECLIP HA6R12222   2.814   1.795  11.539
    1ECLIP HA6S12223   2.647   1.800  11.607
    1ECLIP  CB412224   3.069   1.487  11.613
    1ECLIP  HB412225   3.127   1.578  11.587
    1ECLIP  OB412226   3.149   1.390  11.680
    1ECLIP   PB12227   3.307   1.373  11.719
    1ECLIP OPB412228   3.301   1.247  11.804
    1ECLIP OPB312229   3.372   1.491  11.787
    1ECLIP OPB212230   3.366   1.323  11.589
    1ECLIP  CB312231   3.000   1.430  11.487
    1ECLIP  OB312232   3.090   1.416  11.378
    1ECLIP  HB312233   2.949   1.334  11.511
    1ECLIP  C7112234   3.157   1.307  11.356
    1ECLIP  O7112235   3.157   1.207  11.428
    1ECLIP  C7212236   3.209   1.307  11.212
    1ECLIP H72R12237   3.124   1.324  11.142
    1ECLIP H72S12238   3.255   1.208  11.191
    1ECLIP  CB212239   2.894   1.527  11.435
    1ECLIP  HB212240   2.942   1.623  11.410
    1ECLIP  NB212241   2.817   1.483  11.316
    1ECLIP HNB212242   2.723   1.458  11.335
    1ECLIP  CA412243   2.533   1.787  11.337
    1ECLIP  HA412244   2.547   1.681  11.309
    1ECLIP  OA412245   2.427   1.796  11.433
    1ECLIP HOA412246   2.349   1.830  11.388
    1ECLIP  CA512247   2.664   1.837  11.395
    1ECLIP  HA512248   2.656   1.945  11.417
    1ECLIP  OA512249   2.767   1.815  11.298
    1ECLIP  CA112250   2.748   1.890  11.177
    1ECLIP  HA112251   2.831   1.859  11.111
    1ECLIP  OA112252   2.756   2.030  11.201
    1ECLIP OPA212253   2.885   2.195  11.360
    1ECLIP OPA312254   3.006   2.003  11.301
    1ECLIP OPA412255   2.974   2.174  11.144
    1ECLIP   PA12256   2.898   2.095  11.248
    1ECLIP  CA312257   2.503   1.866  11.211
    1ECLIP  HA312258   2.501   1.973  11.241
    1ECLIP  OA312259   2.368   1.831  11.179
    1ECLIP  C3112260   2.335   1.732  11.096
    1ECLIP  O3112261   2.404   1.692  11.004
    1ECLIP  C3212262   2.223   1.650  11.160
    1ECLIP H32R12263   2.143   1.639  11.084
    1ECLIP H32S12264   2.181   1.707  11.245
    1ECLIP  CA212265   2.617   1.849  11.111
    1ECLIP  HA212266   2.625   1.741  11.087
    1ECLIP  NA212267   2.591   1.920  10.986
    1ECLIP HNA212268   2.500   1.961  10.979
    1ECLIP  C7312269   3.314   1.419  11.193
    1ECLIP H73R12270   3.383   1.417  11.281
    1ECLIP  O7312271   3.243   1.542  11.185
    1ECLIP  C8112272   3.307   1.650  11.223
    1ECLIP  O8112273   3.424   1.654  11.257
    1ECLIP  C8212274   3.229   1.774  11.179
    1ECLIP H82R12275   3.284   1.863  11.218
    1ECLIP H82S12276   3.128   1.771  11.225
    1ECLIP  C8312277   3.216   1.783  11.025
    1ECLIP H83R12278   3.141   1.708  10.993
    1ECLIP H83S12279   3.313   1.758  10.976
    1ECLIP  C8412280   3.172   1.921  10.976
    1ECLIP H84R12281   3.252   1.996  10.994
    1ECLIP H84S12282   3.081   1.952  11.032
    1ECLIP  C8512283   3.136   1.917  10.827
    1ECLIP H85R12284   3.047   1.852  10.815
    1ECLIP H85S12285   3.220   1.871  10.770
    1ECLIP  C8612286   3.104   2.055  10.768
    1ECLIP H86R12287   3.197   2.115  10.760
    1ECLIP H86S12288   3.035   2.108  10.838
    1ECLIP  C8712289   3.035   2.047  10.630
    1ECLIP H87R12290   3.027   2.149  10.587
    1ECLIP H87S12291   2.932   2.009  10.647
    1ECLIP  C8812292   3.104   1.951  10.531
    1ECLIP H88R12293   3.094   1.849  10.572
    1ECLIP H88S12294   3.213   1.975  10.525
    1ECLIP  C8912295   3.042   1.952  10.391
    1ECLIP H89R12296   2.932   1.957  10.399
    1ECLIP H89S12297   3.067   1.854  10.345
    1ECLIP C81012298   3.095   2.065  10.301
    1ECLIPH810R12299   3.206   2.072  10.314
    1ECLIPH810S12300   3.052   2.160  10.338
    1ECLIP C81112301   3.062   2.049  10.151
    1ECLIPH811R12302   3.095   2.141  10.098
    1ECLIPH811S12303   2.952   2.042  10.141
    1ECLIP C81212304   3.127   1.927  10.083
    1ECLIPH812R12305   3.084   1.916   9.981
    1ECLIPH812S12306   3.100   1.834  10.138
    1ECLIP C81312307   3.280   1.936  10.070
    1ECLIPH813R12308   3.305   2.023  10.007
    1ECLIPH813S12309   3.323   1.954  10.171
    1ECLIP C81412310   3.343   1.809  10.012
    1ECLIPH814R12311   3.298   1.785   9.913
    1ECLIPH814S12312   3.326   1.724  10.080
    1ECLIPH814T12313   3.453   1.823   9.999
    1ECLIP  C7412314   3.401   1.402  11.065
    1ECLIP H74R12315   3.439   1.298  11.059
    1ECLIP H74S12316   3.489   1.468  11.082
    1ECLIP  C7512317   3.343   1.446  10.928
    1ECLIP H75R12318   3.427   1.484  10.867
    1ECLIP H75S12319   3.271   1.530  10.941
    1ECLIP  C7612320   3.274   1.336  10.845
    1ECLIP H76R12321   3.174   1.317  10.888
    1ECLIP H76S12322   3.334   1.243  10.851
    1ECLIP  C7712323   3.257   1.375  10.696
    1ECLIP H77R12324   3.357   1.400  10.653
    1ECLIP H77S12325   3.194   1.466  10.690
    1ECLIP  C7812326   3.193   1.262  10.614
    1ECLIP H78R12327   3.261   1.175  10.612
    1ECLIP H78S12328   3.100   1.232  10.668
    1ECLIP  C7912329   3.151   1.299  10.471
    1ECLIP H79R12330   3.080   1.385  10.476
    1ECLIP H79S12331   3.096   1.213  10.427
    1ECLIP C71012332   3.266   1.337  10.376
    1ECLIPH710R12333   3.312   1.432  10.412
    1ECLIPH710S12334   3.344   1.258  10.379
    1ECLIP C71112335   3.215   1.355  10.233
    1ECLIPH711R12336   3.178   1.257  10.195
    1ECLIPH711S12337   3.128   1.424  10.236
    1ECLIP C71212338   3.320   1.413  10.136
    1ECLIPH712R12339   3.403   1.340  10.124
    1ECLIPH712S12340   3.362   1.505  10.182
    1ECLIP C71312341   3.262   1.450   9.998
    1ECLIPH713R12342   3.182   1.526  10.013
    1ECLIPH713S12343   3.342   1.497   9.938
    1ECLIP C71412344   3.203   1.332   9.920
    1ECLIPH714R12345   3.281   1.255   9.902
    1ECLIPH714S12346   3.120   1.285   9.976
    1ECLIPH714T12347   3.164   1.367   9.822
    1ECLIP  C5112348   2.849   1.501  11.185
    1ECLIP  O5112349   2.958   1.541  11.150
    1ECLIP  C5212350   2.739   1.464  11.083
    1ECLIP H52R12351   2.740   1.354  11.071
    1ECLIP H52S12352   2.642   1.493  11.128
    1ECLIP  C5312353   2.746   1.529  10.941
    1ECLIP H53R12354   2.751   1.640  10.953
    1ECLIP  O5312355   2.624   1.488  10.876
    1ECLIP  C6112356   2.562   1.574  10.795
    1ECLIP  O6112357   2.614   1.671  10.744
    1ECLIP  C6212358   2.440   1.503  10.733
    1ECLIP H62R12359   2.375   1.466  10.816
    1ECLIP H62S12360   2.479   1.416  10.677
    1ECLIP  C6312361   2.355   1.590  10.636
    1ECLIP H63R12362   2.422   1.659  10.580
    1ECLIP H63S12363   2.286   1.653  10.696
    1ECLIP  C6412364   2.277   1.511  10.529
    1ECLIP H64R12365   2.200   1.577  10.484
    1ECLIP H64S12366   2.224   1.427  10.579
    1ECLIP  C6512367   2.368   1.459  10.417
    1ECLIP H65R12368   2.449   1.400  10.466
    1ECLIP H65S12369   2.419   1.545  10.368
    1ECLIP  C6612370   2.302   1.367  10.313
    1ECLIP H66R12371   2.226   1.304  10.364
    1ECLIP H66S12372   2.380   1.299  10.274
    1ECLIP  C6712373   2.240   1.439  10.192
    1ECLIP H67R12374   2.151   1.496  10.225
    1ECLIP H67S12375   2.205   1.361  10.120
    1ECLIP  C6812376   2.335   1.535  10.119
    1ECLIP H68R12377   2.436   1.491  10.112
    1ECLIP H68S12378   2.342   1.628  10.180
    1ECLIP  C6912379   2.284   1.570   9.979
    1ECLIP H69R12380   2.174   1.581   9.982
    1ECLIP H69S12381   2.308   1.486   9.910
    1ECLIP C61012382   2.343   1.701   9.925
    1ECLIPH610R12383   2.454   1.701   9.934
    1ECLIPH610S12384   2.305   1.784   9.988
    1ECLIP C61112385   2.303   1.726   9.779
    1ECLIPH611R12386   2.196   1.699   9.766
    1ECLIPH611S12387   2.311   1.835   9.761
    1ECLIP C61212388   2.390   1.652   9.677
    1ECLIPH612R12389   2.496   1.681   9.689
    1ECLIPH612S12390   2.382   1.542   9.692
    1ECLIPH612T12391   2.358   1.675   9.573
    1ECLIP  C5412392   2.868   1.483  10.857
    1ECLIP H54R12393   2.852   1.379  10.822
    1ECLIP H54S12394   2.957   1.481  10.924
    1ECLIP  C5512395   2.908   1.575  10.739
    1ECLIP H55R12396   3.019   1.584  10.737
    1ECLIP H55S12397   2.869   1.677  10.757
    1ECLIP  C5612398   2.861   1.524  10.602
    1ECLIP H56R12399   2.750   1.523  10.600
    1ECLIP H56S12400   2.895   1.419  10.590
    1ECLIP  C5712401   2.912   1.609  10.485
    1ECLIP H57R12402   3.023   1.615  10.489
    1ECLIP H57S12403   2.872   1.712  10.494
    1ECLIP  C5812404   2.867   1.546  10.352
    1ECLIP H58R12405   2.900   1.440  10.353
    1ECLIP H58S12406   2.756   1.548  10.349
    1ECLIP  C5912407   2.921   1.613  10.224
    1ECLIP H59R12408   3.031   1.625  10.230
    1ECLIP H59S12409   2.876   1.714  10.218
    1ECLIP C51012410   2.882   1.530  10.101
    1ECLIPH510R12411   2.781   1.488  10.123
    1ECLIPH510S12412   2.954   1.447  10.086
    1ECLIP C51112413   2.865   1.609   9.971
    1ECLIPH511R12414   2.784   1.681   9.992
    1ECLIPH511S12415   2.959   1.664   9.949
    1ECLIP C51212416   2.823   1.523   9.850
    1ECLIPH512R12417   2.834   1.584   9.758
    1ECLIPH512S12418   2.892   1.436   9.842
    1ECLIP C51312419   2.678   1.474   9.858
    1ECLIPH513R12420   2.611   1.563   9.866
    1ECLIPH513S12421   2.663   1.415   9.952
    1ECLIP C51412422   2.634   1.389   9.739
    1ECLIPH514R12423   2.697   1.297   9.732
    1ECLIPH514S12424   2.528   1.357   9.751
    1ECLIPH514T12425   2.643   1.447   9.645
    1ECLIP  C3312426   2.261   1.509  11.211
    1ECLIP H33R12427   2.170   1.463  11.257
    1ECLIP  O3312428   2.362   1.519  11.310
    1ECLIP HO3312429   2.348   1.589  11.373
    1ECLIP  C3412430   2.310   1.418  11.098
    1ECLIP H34R12431   2.398   1.469  11.052
    1ECLIP H34S12432   2.231   1.412  11.020
    1ECLIP  C3512433   2.359   1.276  11.132
    1ECLIP H35R12434   2.274   1.209  11.154
    1ECLIP H35S12435   2.426   1.280  11.221
    1ECLIP  C3612436   2.439   1.230  11.010
    1ECLIP H36R12437   2.517   1.307  10.995
    1ECLIP H36S12438   2.371   1.233  10.922
    1ECLIP  C3712439   2.512   1.096  11.014
    1ECLIP H37R12440   2.437   1.014  11.000
    1ECLIP H37S12441   2.562   1.082  11.113
    1ECLIP  C3812442   2.619   1.089  10.903
    1ECLIP H38R12443   2.709   1.143  10.938
    1ECLIP H38S12444   2.648   0.983  10.884
    1ECLIP  C3912445   2.572   1.156  10.773
    1ECLIP H39R12446   2.557   1.264  10.792
    1ECLIP H39S12447   2.475   1.113  10.741
    1ECLIP C31012448   2.672   1.149  10.658
    1ECLIPH310R12449   2.688   1.042  10.631
    1ECLIPH310S12450   2.769   1.192  10.690
    1ECLIP C31112451   2.624   1.224  10.533
    1ECLIPH311R12452   2.519   1.195  10.512
    1ECLIPH311S12453   2.629   1.333  10.552
    1ECLIP C31212454   2.711   1.190  10.413
    1ECLIPH312R12455   2.815   1.221  10.436
    1ECLIPH312S12456   2.708   1.080  10.401
    1ECLIP C31312457   2.669   1.252  10.280
    1ECLIPH313R12458   2.576   1.203  10.244
    1ECLIPH313S12459   2.648   1.360  10.293
    1ECLIP C31412460   2.780   1.234  10.176
    1ECLIPH314R12461   2.812   1.128  10.170
    1ECLIPH314S12462   2.748   1.267  10.075
    1ECLIPH314T12463   2.871   1.291  10.206
    1ECLIP  C1112464   2.679   1.937  10.886
    1ECLIP  O1112465   2.787   1.879  10.880
    1ECLIP  C1212466   2.643   2.037  10.777
    1ECLIP H12R12467   2.720   2.116  10.784
    1ECLIP H12S12468   2.544   2.083  10.800
    1ECLIP  C1312469   2.644   1.972  10.637
    1ECLIP H13R12470   2.706   1.880  10.636
    1ECLIP  O1312471   2.704   2.063  10.546
    1ECLIP HO1312472   2.656   2.146  10.541
    1ECLIP  C1412473   2.502   1.940  10.584
    1ECLIP H14R12474   2.435   2.025  10.610
    1ECLIP H14S12475   2.465   1.852  10.641
    1ECLIP  C1512476   2.489   1.917  10.431
    1ECLIP H15R12477   2.507   2.014  10.381
    1ECLIP H15S12478   2.384   1.888  10.409
    1ECLIP  C1612479   2.583   1.812  10.369
    1ECLIP H16R12480   2.548   1.711  10.398
    1ECLIP H16S12481   2.686   1.824  10.411
    1ECLIP  C1712482   2.594   1.824  10.215
    1ECLIP H17R12483   2.493   1.847  10.175
    1ECLIP H17S12484   2.627   1.727  10.173
    1ECLIP  C1812485   2.694   1.933  10.174
    1ECLIP H18R12486   2.678   2.018  10.244
    1ECLIP H18S12487   2.798   1.899  10.193
    1ECLIP  C1912488   2.682   1.991  10.032
    1ECLIP H19R12489   2.739   2.086  10.034
    1ECLIP H19S12490   2.576   2.014  10.010
    1ECLIP C11012491   2.747   1.914   9.916
    1ECLIPH110R12492   2.846   1.876   9.950
    1ECLIPH110S12493   2.682   1.830   9.887
    1ECLIP C11112494   2.772   2.006   9.796
    1ECLIPH111R12495   2.677   2.060   9.776
    1ECLIPH111S12496   2.847   2.083   9.822
    1ECLIP C11212497   2.813   1.934   9.667
    1ECLIPH112R12498   2.923   1.922   9.664
    1ECLIPH112S12499   2.768   1.832   9.666
    1ECLIP C11312500   2.763   2.010   9.543
    1ECLIPH113R12501   2.652   2.012   9.547
    1ECLIPH113S12502   2.799   2.115   9.550
    1ECLIP C11412503   2.806   1.951   9.409
    1ECLIPH114R12504   2.915   1.968   9.393
    1ECLIPH114S12505   2.787   1.841   9.406
    1ECLIPH114T12506   2.751   1.999   9.326
    2AKDO    C112507   2.843   1.425  12.003
    2AKDO   O1112508   2.925   1.330  11.988
    2AKDO   O1212509   2.717   1.414  12.009
    2AKDO    C212510   2.901   1.563  12.050
    2AKDO    C612511   3.088   1.663  12.164
    2AKDO    H612512   3.094   1.732  12.077
    2AKDO    O612513   3.026   1.542  12.119
    2AKDO    C312514   2.813   1.639  12.152
    2AKDO   H3112515   2.799   1.573  12.241
    2AKDO   H3212516   2.714   1.659  12.105
    2AKDO    C412517   2.869   1.767  12.206
    2AKDO    H412518   2.881   1.843  12.126
    2AKDO    O412519   2.787   1.816  12.313
    2AKDO    C512520   3.004   1.735  12.271
    2AKDO    H512521   3.052   1.834  12.288
    2AKDO    O512522   2.993   1.667  12.400
    2AKDO    C712523   3.229   1.619  12.196
    2AKDO    H712524   3.224   1.542  12.275
    2AKDO    O712525   3.311   1.728  12.242
    2AKDO   HO712526   3.277   1.808  12.201
    2AKDO    C812527   3.290   1.556  12.070
    2AKDO   H8112528   3.226   1.472  12.036
    2AKDO   H8212529   3.290   1.631  11.988
    2AKDO    O812530   3.421   1.501  12.083
    2AKDO   HO812531   3.444   1.495  11.990
    3AKDO    C112532   2.694   2.019  12.205
    3AKDO   O1112533   2.608   2.041  12.115
    3AKDO   O1212534   2.769   2.107  12.257
    3AKDO    C212535   2.668   1.892  12.294
    3AKDO    C612536   2.523   1.697  12.331
    3AKDO    H612537   2.611   1.629  12.332
    3AKDO    O612538   2.554   1.813  12.249
    3AKDO    C312539   2.638   1.934  12.439
    3AKDO   H3112540   2.551   2.003  12.439
    3AKDO   H3212541   2.724   1.993  12.478
    3AKDO    C412542   2.613   1.817  12.528
    3AKDO    H412543   2.700   1.749  12.526
    3AKDO    O412544   2.594   1.860  12.662
    3AKDO   HO412545   2.677   1.895  12.694
    3AKDO    C512546   2.494   1.741  12.473
    3AKDO    H512547   2.477   1.651  12.536
    3AKDO    O512548   2.375   1.819  12.474
    3AKDO   HO512549   2.385   1.878  12.399
    3AKDO    C712550   2.405   1.622  12.271
    3AKDO    H712551   2.314   1.687  12.271
    3AKDO    O712552   2.376   1.502  12.345
    3AKDO   HO712553   2.342   1.449  12.272
    3AKDO    C812554   2.430   1.582  12.127
    3AKDO   H8112555   2.453   1.671  12.066
    3AKDO   H8212556   2.517   1.513  12.119
    3AKDO    O812557   2.313   1.517  12.073
    3AKDO   HO812558   2.278   1.578  12.008
    4AHEP    C112559   3.093   1.701  12.497
    4AHEP    H112560   3.189   1.663  12.458
    4AHEP    C512561   2.996   1.906  12.576
    4AHEP    H512562   2.908   1.876  12.516
    4AHEP    O512563   3.110   1.842  12.514
    4AHEP    C212564   3.077   1.640  12.637
    4AHEP    H212565   3.053   1.532  12.623
    4AHEP    O212566   3.199   1.645  12.711
    4AHEP   HO212567   3.223   1.738  12.714
    4AHEP    C312568   2.961   1.703  12.712
    4AHEP    H312569   2.865   1.674  12.663
    4AHEP    O312570   2.963   1.666  12.852
    4AHEP    C412571   2.979   1.852  12.717
    4AHEP    H412572   3.069   1.877  12.777
    4AHEP    O412573   2.859   1.906  12.772
    4AHEP    P412574   2.856   1.998  12.908
    4AHEP  OP4212575   2.714   1.980  12.962
    4AHEP  OP4312576   2.889   2.138  12.861
    4AHEP  OP4412577   2.962   1.942  13.002
    4AHEP    C612578   3.003   2.059  12.565
    4AHEP    H612579   2.901   2.098  12.583
    4AHEP    O612580   3.087   2.114  12.668
    4AHEP   HO612581   3.028   2.120  12.743
    4AHEP    C712582   3.048   2.107  12.427
    4AHEP   H7112583   3.033   2.217  12.421
    4AHEP   H7212584   2.982   2.060  12.352
    4AHEP    O712585   3.183   2.077  12.391
    4AHEP   HO712586   3.232   2.159  12.399
    5AHEP    C112587   2.844   1.618  12.910
    5AHEP    H112588   2.756   1.665  12.863
    5AHEP    C512589   2.963   1.414  12.944
    5AHEP    H512590   3.053   1.458  12.894
    5AHEP    O512591   2.843   1.476  12.893
    5AHEP    C212592   2.844   1.643  13.060
    5AHEP    H212593   2.849   1.753  13.075
    5AHEP    O212594   2.721   1.601  13.121
    5AHEP   HO212595   2.664   1.677  13.111
    5AHEP    C312596   2.968   1.585  13.125
    5AHEP    H312597   3.057   1.637  13.082
    5AHEP    O312598   2.964   1.601  13.269
    5AHEP    C412599   2.974   1.436  13.096
    5AHEP    H412600   2.892   1.386  13.150
    5AHEP    O412601   3.104   1.397  13.143
    5AHEP    P412602   3.138   1.253  13.211
    5AHEP  OP4212603   3.274   1.260  13.275
    5AHEP  OP4312604   3.144   1.144  13.106
    5AHEP  OP4412605   3.047   1.224  13.328
    5AHEP    C612606   2.947   1.273  12.892
    5AHEP    H612607   3.044   1.220  12.900
    5AHEP    O612608   2.850   1.204  12.972
    5AHEP   HO612609   2.787   1.274  12.987
    5AHEP    C712610   2.905   1.270  12.743
    5AHEP   H7112611   2.982   1.218  12.684
    5AHEP   H7212612   2.907   1.372  12.700
    5AHEP    O712613   2.777   1.207  12.720
    6AHEP    C112614   2.681   1.300  12.675
    6AHEP    H112615   2.683   1.390  12.741
    6AHEP    C512616   2.700   1.234  12.446
    6AHEP    H512617   2.765   1.152  12.482
    6AHEP    O512618   2.707   1.342  12.542
    6AHEP    C212619   2.542   1.240  12.680
    6AHEP    H212620   2.531   1.198  12.782
    6AHEP    O212621   2.437   1.336  12.660
    6AHEP   HO212622   2.468   1.398  12.593
    6AHEP    C312623   2.528   1.128  12.580
    6AHEP    H312624   2.604   1.050  12.599
    6AHEP    O312625   2.398   1.066  12.586
    6AHEP   HO312626   2.400   1.007  12.511
    6AHEP    C412627   2.556   1.183  12.443
    6AHEP    H412628   2.490   1.269  12.420
    6AHEP    O412629   2.531   1.085  12.343
    6AHEP   HO412630   2.521   1.127  12.258
    6AHEP    C612631   2.755   1.273  12.312
    6AHEP    H612632   2.743   1.190  12.239
    6AHEP    O612633   2.675   1.380  12.265
    6AHEP   HO612634   2.694   1.390  12.172
    6AHEP    C712635   2.905   1.303  12.320
    6AHEP   H7112636   2.944   1.336  12.222
    6AHEP   H7212637   2.958   1.208  12.343
    6AHEP    O712638   2.946   1.397  12.420
    6AHEP   HO712639   2.929   1.483  12.381
    7AGLC    C112640   3.021   1.719  13.320
    7AGLC    H112641   3.120   1.737  13.271
    7AGLC    C512642   2.813   1.829  13.365
    7AGLC    H512643   2.761   1.737  13.329
    7AGLC    O512644   2.942   1.836  13.302
    7AGLC    C212645   3.042   1.700  13.470
    7AGLC    H212646   3.099   1.787  13.508
    7AGLC    O212647   3.121   1.583  13.490
    7AGLC   HO212648   3.094   1.524  13.419
    7AGLC    C312649   2.910   1.691  13.547
    7AGLC    H312650   2.853   1.604  13.508
    7AGLC    O312651   2.928   1.679  13.691
    7AGLC    C412652   2.832   1.817  13.516
    7AGLC    H412653   2.893   1.904  13.548
    7AGLC    O412654   2.707   1.823  13.584
    7AGLC   HO412655   2.696   1.915  13.608
    7AGLC    C612656   2.733   1.948  13.316
    7AGLC   H6112657   2.764   1.975  13.213
    7AGLC   H6212658   2.625   1.920  13.310
    7AGLC    O612659   2.744   2.062  13.402
    7AGLC   HO612660   2.809   2.122  13.365
    8AGLC    C112661   2.881   1.558  13.749
    8AGLC    H112662   2.784   1.529  13.704
    8AGLC    C512663   3.107   1.479  13.779
    8AGLC    H512664   3.139   1.578  13.741
    8AGLC    O512665   2.975   1.452  13.725
    8AGLC    C212666   2.868   1.566  13.901
    8AGLC    H212667   2.836   1.464  13.932
    8AGLC    O212668   2.770   1.658  13.953
    8AGLC    C312669   3.003   1.600  13.966
    8AGLC    H312670   3.037   1.693  13.916
    8AGLC    O312671   2.997   1.634  14.108
    8AGLC    C412672   3.102   1.490  13.932
    8AGLC    H412673   3.066   1.394  13.973
    8AGLC    O412674   3.233   1.519  13.985
    8AGLC   HO412675   3.260   1.596  13.933
    8AGLC    C612676   3.204   1.376  13.721
    8AGLC   H6112677   3.256   1.425  13.636
    8AGLC   H6212678   3.282   1.347  13.795
    8AGLC    O612679   3.137   1.260  13.671
    8AGLC   HO612680   3.044   1.281  13.679
    9AGAL    C112681   2.644   1.675  13.892
    9AGAL    H112682   2.651   1.679  13.781
    9AGAL    C512683   2.527   1.566  14.071
    9AGAL    H512684   2.625   1.542  14.118
    9AGAL    O512685   2.548   1.575  13.929
    9AGAL    C212686   2.598   1.810  13.942
    9AGAL    H212687   2.500   1.835  13.897
    9AGAL    O212688   2.696   1.898  13.886
    9AGAL    C312689   2.584   1.806  14.094
    9AGAL    H312690   2.682   1.775  14.137
    9AGAL    O312691   2.554   1.932  14.154
    9AGAL   HO312692   2.625   1.993  14.130
    9AGAL    C412693   2.481   1.700  14.131
    9AGAL    H412694   2.482   1.689  14.241
    9AGAL    O412695   2.347   1.735  14.097
    9AGAL   HO412696   2.331   1.726  14.003
    9AGAL    C612697   2.435   1.448  14.099
    9AGAL   H6112698   2.485   1.354  14.066
    9AGAL   H6212699   2.415   1.440  14.208
    9AGAL    O612700   2.310   1.454  14.029
    9AGAL   HO612701   2.329   1.449  13.935
   10AGAL    C112702   2.708   2.031  13.926
   10AGAL    H112703   2.607   2.076  13.932
   10AGAL    C512704   2.906   1.974  14.045
   10AGAL    H512705   2.892   1.869  14.009
   10AGAL    O512706   2.777   2.038  14.052
   10AGAL    C212707   2.789   2.104  13.820
   10AGAL    H212708   2.799   2.210  13.849
   10AGAL    O212709   2.720   2.098  13.695
   10AGAL   HO212710   2.719   2.183  13.651
   10AGAL    C312711   2.928   2.042  13.809
   10AGAL    H312712   2.917   1.936  13.777
   10AGAL    O312713   3.010   2.107  13.713
   10AGAL   HO312714   2.962   2.122  13.631
   10AGAL    C412715   2.996   2.045  13.945
   10AGAL    H412716   3.091   1.989  13.937
   10AGAL    O412717   3.027   2.178  13.986
   10AGAL   HO412718   3.058   2.225  13.908
   10AGAL    C612719   2.964   1.961  14.185
   10AGAL   H6112720   2.891   1.908  14.250
   10AGAL   H6212721   3.056   1.900  14.181
   10AGAL    O612722   2.994   2.088  14.243
   10AGAL   HO612723   3.007   2.147  14.168
   11BGLC    C112724   2.977   1.532  14.203
   11BGLC    H112725   3.072   1.477  14.220
   11BGLC    C512726   2.857   1.328  14.239
   11BGLC    H512727   2.952   1.273  14.256
   11BGLC    O512728   2.880   1.441  14.155
   11BGLC    C212729   2.925   1.588  14.335
   11BGLC    H212730   2.831   1.643  14.314
   11BGLC    O212731   3.020   1.679  14.392
   11BGLC   HO212732   2.974   1.740  14.450
   11BGLC    C312733   2.897   1.476  14.434
   11BGLC    H312734   2.991   1.425  14.463
   11BGLC    O312735   2.827   1.526  14.549
   11BGLC    C412736   2.801   1.378  14.371
   11BGLC    H412737   2.704   1.428  14.352
   11BGLC    O412738   2.779   1.268  14.458
   11BGLC   HO412739   2.786   1.299  14.548
   11BGLC    C612740   2.764   1.241  14.158
   11BGLC   H6112741   2.735   1.150  14.215
   11BGLC   H6212742   2.672   1.297  14.134
   11BGLC    O612743   2.826   1.203  14.035
   11BGLC   HO612744   2.830   1.108  14.028
   12BGLCN   C112745   2.883   1.512  14.677
   12BGLCN   H112746   2.970   1.579  14.686
   12BGLCN   C512747   2.977   1.363  14.838
   12BGLCN   H512748   3.062   1.434  14.851
   12BGLCN   O512749   2.922   1.377  14.705
   12BGLCN   C212750   2.772   1.553  14.774
   12BGLCN   H212751   2.692   1.476  14.764
   12BGLCN    N12752   2.718   1.683  14.739
   12BGLCN   HN12753   2.785   1.756  14.731
   12BGLCN    C12754   2.588   1.706  14.713
   12BGLCN    O12755   2.499   1.623  14.732
   12BGLCN   CT12756   2.552   1.842  14.660
   12BGLCN  HT112757   2.479   1.891  14.728
   12BGLCN  HT212758   2.505   1.832  14.560
   12BGLCN  HT312759   2.643   1.906  14.651
   12BGLCN   C312760   2.823   1.543  14.918
   12BGLCN   H312761   2.911   1.610  14.926
   12BGLCN   O312762   2.725   1.583  15.016
   12BGLCN   C412763   2.870   1.400  14.940
   12BGLCN   H412764   2.783   1.332  14.925
   12BGLCN   O412765   2.915   1.378  15.073
   12BGLCN  HO412766   2.973   1.448  15.104
   12BGLCN   C612767   3.033   1.222  14.853
   12BGLCN  H6112768   3.043   1.196  14.960
   12BGLCN  H6212769   2.963   1.148  14.807
   12BGLCN   O612770   3.162   1.207  14.793
   12BGLCN  HO612771   3.217   1.152  14.851
   13AGAL    C112772   2.776   1.672  15.115
   13AGAL    H112773   2.879   1.642  15.144
   13AGAL    C512774   2.646   1.859  15.036
   13AGAL    H512775   2.598   1.788  14.966
   13AGAL    O512776   2.778   1.807  15.066
   13AGAL    C212777   2.692   1.676  15.243
   13AGAL    H212778   2.738   1.756  15.305
   13AGAL    O212779   2.696   1.553  15.317
   13AGAL    C312780   2.550   1.721  15.214
   13AGAL    H312781   2.508   1.653  15.137
   13AGAL    O312782   2.466   1.712  15.329
   13AGAL   HO312783   2.386   1.665  15.305
   13AGAL    C412784   2.556   1.863  15.160
   13AGAL    H412785   2.454   1.893  15.129
   13AGAL    O412786   2.603   1.957  15.256
   13AGAL   HO412787   2.698   1.951  15.260
   13AGAL    C612788   2.658   1.991  14.962
   13AGAL   H6112789   2.718   1.975  14.870
   13AGAL   H6212790   2.558   2.026  14.931
   13AGAL    O612791   2.722   2.094  15.039
   13AGAL   HO612792   2.662   2.120  15.110
   14ARHM    C112793   2.762   1.559  15.442
   14ARHM    H112794   2.826   1.650  15.449
   14ARHM    C512795   2.787   1.325  15.448
   14ARHM    H512796   2.739   1.315  15.348
   14ARHM    O512797   2.853   1.451  15.457
   14ARHM    C212798   2.660   1.557  15.555
   14ARHM    H212799   2.590   1.642  15.540
   14ARHM    O212800   2.714   1.565  15.687
   14ARHM    C312801   2.582   1.428  15.548
   14ARHM    H312802   2.531   1.421  15.450
   14ARHM    O312803   2.481   1.422  15.650
   14ARHM   HO312804   2.518   1.373  15.724
   14ARHM    C412805   2.682   1.313  15.559
   14ARHM    H412806   2.736   1.323  15.656
   14ARHM    O412807   2.616   1.187  15.564
   14ARHM   HO412808   2.592   1.161  15.475
   14ARHM    C612809   2.907   1.230  15.455
   14ARHM   H6112810   2.993   1.272  15.398
   14ARHM   H6212811   2.940   1.216  15.560
   14ARHM   H6312812   2.884   1.132  15.409
   15ARHM    C112813   2.815   1.661  15.708
   15ARHM    H112814   2.801   1.748  15.641
   15ARHM    C512815   2.977   1.497  15.780
   15ARHM    H512816   2.907   1.414  15.760
   15ARHM    O512817   2.947   1.606  15.691
   15ARHM    C212818   2.800   1.708  15.850
   15ARHM    H212819   2.697   1.747  15.864
   15ARHM    O212820   2.893   1.816  15.864
   15ARHM    C312821   2.822   1.592  15.945
   15ARHM    H312822   2.752   1.510  15.915
   15ARHM    O312823   2.791   1.629  16.080
   15ARHM    C412824   2.963   1.541  15.925
   15ARHM    H412825   3.035   1.624  15.943
   15ARHM    O412826   2.996   1.437  16.016
   15ARHM   HO412827   3.091   1.423  16.010
   15ARHM    C612828   3.119   1.449  15.744
   15ARHM   H6112829   3.148   1.361  15.804
   15ARHM   H6212830   3.122   1.421  15.636
   15ARHM   H6312831   3.193   1.530  15.760
   16BMANN   C112832   2.905   1.873  15.990
   16BMANN   H112833   2.956   1.800  16.057
   16BMANN   C512834   2.787   1.954  16.179
   16BMANN   H512835   2.833   1.875  16.243
   16BMANN   O512836   2.776   1.906  16.045
   16BMANN   C212837   2.992   1.996  15.979
   16BMANN   H212838   3.091   1.964  15.941
   16BMANN    N12839   2.938   2.098  15.888
   16BMANN   HN12840   2.884   2.170  15.929
   16BMANN    C12841   2.962   2.104  15.756
   16BMANN    O12842   3.030   2.022  15.696
   16BMANN   CT12843   2.898   2.219  15.683
   16BMANN  HT112844   2.973   2.300  15.668
   16BMANN  HT212845   2.812   2.259  15.740
   16BMANN  HT312846   2.862   2.184  15.584
   16BMANN   C312847   3.011   2.047  16.121
   16BMANN   H312848   3.059   1.966  16.180
   16BMANN   O312849   3.099   2.159  16.123
   16BMANN  HO312850   3.135   2.167  16.211
   16BMANN   C412851   2.875   2.078  16.181
   16BMANN   H412852   2.826   2.155  16.118
   16BMANN   O412853   2.886   2.129  16.314
   16BMANN  HO412854   2.801   2.158  16.347
   16BMANN   C612855   2.644   1.977  16.225
   16BMANN  H6112856   2.642   2.016  16.329
   16BMANN  H6212857   2.596   2.052  16.159
   16BMANN   O612858   2.566   1.857  16.220
   16BMANN  HO612859   2.583   1.814  16.136
   17BGLCN   C112860   2.724   1.529  16.152
   17BGLCN   H112861   2.766   1.429  16.128
   17BGLCN   C512862   2.513   1.431  16.200
   17BGLCN   H512863   2.557   1.332  16.177
   17BGLCN   O512864   2.584   1.532  16.126
   17BGLCN   C212865   2.748   1.561  16.298
   17BGLCN   H212866   2.697   1.658  16.321
   17BGLCN    N12867   2.890   1.584  16.319
   17BGLCN   HN12868   2.949   1.556  16.243
   17BGLCN    C12869   2.944   1.651  16.421
   17BGLCN    O12870   2.880   1.698  16.514
   17BGLCN   CT12871   3.094   1.665  16.417
   17BGLCN  HT112872   3.121   1.767  16.381
   17BGLCN  HT212873   3.138   1.590  16.348
   17BGLCN  HT312874   3.136   1.650  16.518
   17BGLCN   C312875   2.680   1.451  16.381
   17BGLCN   H312876   2.717   1.355  16.340
   17BGLCN   O312877   2.712   1.457  16.522
   17BGLCN   C412878   2.531   1.459  16.349
   17BGLCN   H412879   2.495   1.562  16.370
   17BGLCN   O412880   2.453   1.370  16.428
   17BGLCN  HO412881   2.439   1.412  16.513
   17BGLCN   C612882   2.369   1.428  16.151
   17BGLCN  H6112883   2.314   1.347  16.204
   17BGLCN  H6212884   2.320   1.524  16.175
   17BGLCN   O612885   2.361   1.406  16.010
   17BGLCN  HO612886   2.409   1.328  15.983
   18AGAL    C112887   2.721   1.333  16.590
   18AGAL    H112888   2.619   1.291  16.603
   18AGAL    C512889   2.935   1.280  16.501
   18AGAL    H512890   2.932   1.383  16.459
   18AGAL    O512891   2.799   1.236  16.517
   18AGAL    C212892   2.783   1.347  16.729
   18AGAL    H212893   2.785   1.245  16.772
   18AGAL    O212894   2.699   1.428  16.814
   18AGAL    C312895   2.927   1.397  16.716
   18AGAL    H312896   2.924   1.494  16.661
   18AGAL    O312897   2.991   1.422  16.842
   18AGAL   HO312898   3.051   1.496  16.835
   18AGAL    C412899   3.007   1.296  16.635
   18AGAL    H412900   3.109   1.337  16.615
   18AGAL    O412901   3.022   1.174  16.706
   18AGAL   HO412902   3.021   1.195  16.799
   18AGAL    C612903   3.004   1.201  16.391
   18AGAL   H6112904   2.938   1.197  16.302
   18AGAL   H6212905   3.097   1.254  16.360
   18AGAL    O612906   3.038   1.069  16.429
   18AGAL   HO612907   2.966   1.032  16.480
   19ARHM    C112908   2.704   1.391  16.950
   19ARHM    H112909   2.805   1.355  16.978
   19ARHM    C512910   2.476   1.318  16.961
   19ARHM    H512911   2.463   1.346  16.854
   19ARHM    O512912   2.613   1.285  16.985
   19ARHM    C212913   2.671   1.514  17.033
   19ARHM    H212914   2.729   1.598  16.988
   19ARHM    O212915   2.710   1.503  17.172
   19ARHM    C312916   2.526   1.554  17.013
   19ARHM    H312917   2.510   1.578  16.906
   19ARHM    O312918   2.495   1.670  17.089
   19ARHM   HO312919   2.551   1.673  17.167
   19ARHM    C412920   2.437   1.436  17.049
   19ARHM    H412921   2.456   1.408  17.155
   19ARHM    O412922   2.297   1.465  17.038
   19ARHM   HO412923   2.271   1.475  16.947
   19ARHM    C612924   2.394   1.190  16.986
   19ARHM   H6112925   2.429   1.109  16.920
   19ARHM   H6212926   2.404   1.158  17.092
   19ARHM   H6312927   2.286   1.209  16.965
   20ARHM    C112928   2.849   1.520  17.193
   20ARHM    H112929   2.894   1.582  17.113
   20ARHM    C512930   2.881   1.308  17.301
   20ARHM    H512931   2.775   1.277  17.286
   20ARHM    O512932   2.921   1.395  17.196
   20ARHM    C212933   2.868   1.591  17.326
   20ARHM    H212934   2.807   1.684  17.327
   20ARHM    O212935   3.005   1.626  17.350
   20ARHM    C312936   2.822   1.504  17.440
   20ARHM    H312937   2.713   1.485  17.428
   20ARHM    O312938   2.849   1.572  17.563
   20ARHM    C412939   2.898   1.374  17.437
   20ARHM    H412940   3.006   1.396  17.451
   20ARHM    O412941   2.857   1.287  17.543
   20ARHM   HO412942   2.761   1.280  17.543
   20ARHM    C612943   2.973   1.185  17.285
   20ARHM   H6112944   3.079   1.218  17.286
   20ARHM   H6212945   2.958   1.113  17.367
   20ARHM   H6312946   2.954   1.135  17.187
   21BMANN   C112947   3.062   1.724  17.266
   21BMANN   H112948   2.984   1.772  17.202
   21BMANN   C512949   3.232   1.759  17.100
   21BMANN   H512950   3.157   1.812  17.038
   21BMANN   O512951   3.164   1.664  17.185
   21BMANN   C212952   3.125   1.825  17.359
   21BMANN   H212953   3.040   1.876  17.408
   21BMANN    N12954   3.207   1.763  17.463
   21BMANN   HN12955   3.254   1.678  17.438
   21BMANN    C12956   3.211   1.805  17.590
   21BMANN    O12957   3.151   1.904  17.629
   21BMANN   CT12958   3.294   1.724  17.685
   21BMANN  HT112959   3.402   1.748  17.672
   21BMANN  HT212960   3.276   1.616  17.668
   21BMANN  HT312961   3.263   1.749  17.789
   21BMANN   C312962   3.197   1.928  17.274
   21BMANN   H312963   3.123   1.970  17.204
   21BMANN   O312964   3.240   2.040  17.351
   21BMANN  HO312965   3.317   2.020  17.406
   21BMANN   C412966   3.304   1.862  17.188
   21BMANN   H412967   3.377   1.809  17.254
   21BMANN   O412968   3.377   1.955  17.108
   21BMANN  HO412969   3.465   1.922  17.090
   21BMANN   C612970   3.323   1.682  17.006
   21BMANN  H6112971   3.371   1.753  16.935
   21BMANN  H6212972   3.405   1.632  17.062
   21BMANN   O612973   3.250   1.584  16.931
   21BMANN  HO612974   3.254   1.502  16.981
   22BGLCN   C112975   2.746   1.573  17.657
   22BGLCN   H112976   2.682   1.482  17.649
   22BGLCN   C512977   2.566   1.703  17.743
   22BGLCN   H512978   2.502   1.612  17.741
   22BGLCN   O512979   2.668   1.692  17.643
   22BGLCN   C212980   2.818   1.576  17.791
   22BGLCN   H212981   2.878   1.669  17.792
   22BGLCN    N12982   2.909   1.463  17.805
   22BGLCN   HN12983   2.882   1.378  17.760
   22BGLCN    C12984   3.028   1.469  17.866
   22BGLCN    O12985   3.076   1.573  17.909
   22BGLCN   CT12986   3.104   1.340  17.879
   22BGLCN  HT112987   3.201   1.349  17.826
   22BGLCN  HT212988   3.046   1.256  17.836
   22BGLCN  HT312989   3.124   1.320  17.987
   22BGLCN   C312990   2.716   1.586  17.903
   22BGLCN   H312991   2.648   1.498  17.897
   22BGLCN   O312992   2.788   1.579  18.027
   22BGLCN   C412993   2.634   1.712  17.879
   22BGLCN   H412994   2.703   1.799  17.878
   22BGLCN   O412995   2.538   1.737  17.981
   22BGLCN  HO412996   2.556   1.823  18.019
   22BGLCN   C612997   2.477   1.821  17.708
   22BGLCN  H6112998   2.401   1.835  17.787
   22BGLCN  H6212999   2.537   1.914  17.701
   22BGLCN   O613000   2.407   1.800  17.584
   22BGLCN  HO613001   2.450   1.848  17.513
   23AGAL    C113002   2.717   1.549  18.145
   23AGAL    H113003   2.649   1.633  18.170
   23AGAL    C513004   2.720   1.311  18.116
   23AGAL    H513005   2.780   1.327  18.024
   23AGAL    O513006   2.639   1.428  18.136
   23AGAL    C213007   2.816   1.536  18.260
   23AGAL    H213008   2.758   1.524  18.354
   23AGAL    O213009   2.898   1.654  18.268
   23AGAL    C313010   2.905   1.415  18.243
   23AGAL    H313011   2.965   1.428  18.150
   23AGAL    O313012   2.996   1.403  18.352
   23AGAL   HO313013   2.952   1.348  18.417
   23AGAL    C413014   2.818   1.292  18.232
   23AGAL    H413015   2.884   1.205  18.209
   23AGAL    O413016   2.751   1.264  18.354
   23AGAL   HO413017   2.674   1.212  18.329
   23AGAL    C613018   2.629   1.192  18.088
   23AGAL   H6113019   2.555   1.222  18.011
   23AGAL   H6213020   2.689   1.109  18.045
   23AGAL    O613021   2.559   1.143  18.203
   23AGAL   HO613022   2.489   1.082  18.178
   24ARHM    C113023   2.856   1.753  18.357
   24ARHM    H113024   2.746   1.751  18.365
   24ARHM    C513025   3.032   1.900  18.297
   24ARHM    H513026   3.073   1.824  18.227
   24ARHM    O513027   2.890   1.884  18.309
   24ARHM    C213028   2.918   1.726  18.492
   24ARHM    H213029   2.898   1.621  18.521
   24ARHM    O213030   2.863   1.814  18.591
   24ARHM    C313031   3.068   1.742  18.485
   24ARHM    H313032   3.109   1.668  18.413
   24ARHM    O313033   3.126   1.718  18.612
   24ARHM   HO313034   3.220   1.737  18.603
   24ARHM    C413035   3.099   1.882  18.434
   24ARHM    H413036   3.056   1.956  18.504
   24ARHM    O413037   3.240   1.905  18.426
   24ARHM   HO413038   3.256   2.000  18.425
   24ARHM    C613039   3.052   2.039  18.235
   24ARHM   H6113040   3.160   2.059  18.219
   24ARHM   H6213041   3.000   2.044  18.137
   24ARHM   H6313042   3.010   2.117  18.303
   25ARHM    C113043   2.748   1.764  18.654
   25ARHM    H113044   2.697   1.694  18.584
   25ARHM    C513045   2.704   1.963  18.775
   25ARHM    H513046   2.795   2.010  18.732
   25ARHM    O513047   2.653   1.867  18.682
   25ARHM    C213048   2.787   1.689  18.779
   25ARHM    H213049   2.870   1.618  18.756
   25ARHM    O213050   2.676   1.616  18.833
   25ARHM    C313051   2.843   1.786  18.881
   25ARHM    H313052   2.937   1.830  18.842
   25ARHM    O313053   2.870   1.710  19.000
   25ARHM    C413054   2.740   1.894  18.907
   25ARHM    H413055   2.648   1.846  18.947
   25ARHM    O413056   2.785   1.990  19.002
   25ARHM   HO413057   2.851   2.047  18.962
   25ARHM    C613058   2.595   2.071  18.786
   25ARHM   H6113059   2.572   2.112  18.686
   25ARHM   H6213060   2.502   2.027  18.829
   25ARHM   H6313061   2.630   2.153  18.852
   26BMANN   C113062   2.648   1.495  18.767
   26BMANN   H113063   2.741   1.447  18.731
   26BMANN   C513064   2.522   1.393  18.591
   26BMANN   H513065   2.617   1.347  18.557
   26BMANN   O513066   2.556   1.516  18.659
   26BMANN   C213067   2.580   1.407  18.869
   26BMANN   H213068   2.655   1.388  18.949
   26BMANN    N13069   2.466   1.474  18.933
   26BMANN   HN13070   2.432   1.554  18.885
   26BMANN    C13071   2.415   1.436  19.050
   26BMANN    O13072   2.460   1.339  19.111
   26BMANN   CT13073   2.300   1.515  19.105
   26BMANN  HT113074   2.254   1.578  19.026
   26BMANN  HT213075   2.335   1.578  19.189
   26BMANN  HT313076   2.223   1.444  19.144
   26BMANN   C313077   2.547   1.274  18.804
   26BMANN   H313078   2.641   1.230  18.765
   26BMANN   O313079   2.492   1.181  18.897
   26BMANN  HO313080   2.491   1.222  18.984
   26BMANN   C413081   2.453   1.297  18.687
   26BMANN   H413082   2.359   1.343  18.724
   26BMANN   O413083   2.420   1.175  18.621
   26BMANN  HO413084   2.409   1.110  18.691
   26BMANN   C613085   2.442   1.426  18.466
   26BMANN  H6113086   2.489   1.511  18.412
   26BMANN  H6213087   2.443   1.339  18.397
   26BMANN   O613088   2.305   1.459  18.495
   26BMANN  HO613089   2.258   1.376  18.508
   27BGLCN   C113090   2.972   1.755  19.084
   27BGLCN   H113091   2.985   1.865  19.077
   27BGLCN   C513092   3.201   1.729  19.145
   27BGLCN   H513093   3.213   1.840  19.141
   27BGLCN   O513094   3.096   1.689  19.056
   27BGLCN   C213095   2.927   1.714  19.223
   27BGLCN   H213096   2.920   1.603  19.224
   27BGLCN    N13097   2.794   1.767  19.252
   27BGLCN   HN13098   2.768   1.850  19.203
   27BGLCN    C13099   2.703   1.704  19.328
   27BGLCN    O13100   2.722   1.596  19.382
   27BGLCN   CT13101   2.570   1.774  19.345
   27BGLCN  HT113102   2.564   1.864  19.279
   27BGLCN  HT213103   2.559   1.806  19.451
   27BGLCN  HT313104   2.489   1.704  19.320
   27BGLCN   C313105   3.032   1.755  19.325
   27BGLCN   H313106   3.046   1.865  19.314
   27BGLCN   O313107   2.983   1.726  19.458
   27BGLCN   C413108   3.163   1.689  19.287
   27BGLCN   H413109   3.149   1.579  19.290
   27BGLCN   O413110   3.269   1.722  19.377
   27BGLCN  HO413111   3.295   1.814  19.364
   27BGLCN   C613112   3.331   1.666  19.099
   27BGLCN  H6113113   3.410   1.674  19.177
   27BGLCN  H6213114   3.314   1.558  19.080
   27BGLCN   O613115   3.382   1.728  18.980
   27BGLCN  HO613116   3.404   1.658  18.919
   28AGAL    C113117   3.048   1.787   0.095
   28AGAL    H113118   3.144   1.735   0.114
   28AGAL    C513119   2.953   2.003   0.053
   28AGAL    H513120   2.894   1.961  19.442
   28AGAL    O513121   3.075   1.927   0.070
   28AGAL    C213122   2.968   1.779   0.224
   28AGAL    H213123   3.028   1.838   0.296
   28AGAL    O213124   2.954   1.645   0.277
   28AGAL    C313125   2.835   1.850   0.208
   28AGAL    H313126   2.781   1.804   0.122
   28AGAL    O313127   2.751   1.834   0.323
   28AGAL   HO313128   2.659   1.849   0.301
   28AGAL    C413129   2.864   1.996   0.177
   28AGAL    H413130   2.768   2.045   0.151
   28AGAL    O413131   2.919   2.067   0.289
   28AGAL   HO413132   2.844   2.092   0.343
   28AGAL    C613133   2.992   2.145   0.013
   28AGAL   H6113134   3.040   2.144  19.385
   28AGAL   H6213135   2.901   2.208   0.007
   28AGAL    O613136   3.084   2.203   0.106
   28AGAL   HO613137   3.059   2.167   0.191
   29ARHM    C113138   2.987   1.639   0.414
   29ARHM    H113139   2.965   1.737   0.462
   29ARHM    C513140   3.160   1.478   0.376
   29ARHM    H513141   3.138   1.478   0.267
   29ARHM    O513142   3.127   1.607   0.432
   29ARHM    C213143   2.904   1.535   0.487
   29ARHM    H213144   2.797   1.559   0.469
   29ARHM    O213145   2.932   1.538   0.629
   29ARHM    C313146   2.932   1.398   0.430
   29ARHM    H313147   2.905   1.398   0.322
   29ARHM    O313148   2.854   1.298   0.495
   29ARHM   HO313149   2.893   1.215   0.469
   29ARHM    C413150   3.079   1.369   0.445
   29ARHM    H413151   3.105   1.370   0.553
   29ARHM    O413152   3.112   1.240   0.393
   29ARHM   HO413153   3.169   1.248   0.317
   29ARHM    C613154   3.312   1.461   0.395
   29ARHM   H6113155   3.367   1.544   0.346
   29ARHM   H6213156   3.338   1.460   0.503
   29ARHM   H6313157   3.347   1.365   0.349
   30ARHM    C113158   2.838   1.609   0.706
   30ARHM    H113159   2.736   1.576   0.679
   30ARHM    C513160   2.978   1.805   0.719
   30ARHM    H513161   3.057   1.753   0.660
   30ARHM    O513162   2.848   1.751   0.686
   30ARHM    C213163   2.864   1.579   0.852
   30ARHM    H213164   2.867   1.469   0.865
   30ARHM    O213165   2.762   1.634   0.937
   30ARHM    C313166   3.000   1.634   0.894
   30ARHM    H313167   3.075   1.585   0.828
   30ARHM    O313168   3.033   1.593   1.028
   30ARHM    C413169   3.007   1.783   0.867
   30ARHM    H413170   2.928   1.836   0.925
   30ARHM    O413171   3.133   1.840   0.902
   30ARHM   HO413172   3.201   1.772   0.896
   30ARHM    C613173   2.976   1.952   0.676
   30ARHM   H6113174   3.076   1.999   0.693
   30ARHM   H6213175   2.951   1.960   0.569
   30ARHM   H6313176   2.900   2.009   0.735
   31BMANN   C113177   2.644   1.558   0.953
   31BMANN   H113178   2.665   1.449   0.957
   31BMANN   C513179   2.423   1.520   0.869
   31BMANN   H513180   2.443   1.411   0.876
   31BMANN   O513181   2.548   1.590   0.851
   31BMANN   C213182   2.586   1.607   1.085
   31BMANN   H213183   2.657   1.576   1.165
   31BMANN    N13184   2.580   1.753   1.089
   31BMANN   HN13185   2.592   1.798   1.001
   31BMANN    C13186   2.569   1.826   1.200
   31BMANN    O13187   2.555   1.775   1.310
   31BMANN   CT13188   2.576   1.975   1.184
   31BMANN  HT113189   2.496   2.010   1.115
   31BMANN  HT213190   2.676   2.003   1.143
   31BMANN  HT313191   2.563   2.024   1.283
   31BMANN   C313192   2.455   1.535   1.111
   31BMANN   H313193   2.474   1.426   1.109
   31BMANN   O313194   2.403   1.563   1.242
   31BMANN  HO313195   2.446   1.642   1.276
   31BMANN   C413196   2.357   1.565   0.999
   31BMANN   H413197   2.338   1.674   0.994
   31BMANN   O413198   2.232   1.500   1.018
   31BMANN  HO413199   2.188   1.539   1.094
   31BMANN   C613200   2.337   1.539   0.745
   31BMANN  H6113201   2.239   1.488   0.760
   31BMANN  H6213202   2.317   1.646   0.726
   31BMANN   O613203   2.400   1.482   0.630
   31BMANN  HO613204   2.334   1.446   0.570
   32BGLCN   C113205   2.984   1.670   1.134
   32BGLCN   H113206   2.885   1.713   1.110
   32BGLCN   C513207   3.020   1.857   1.275
   32BGLCN   H513208   2.919   1.893   1.247
   32BGLCN   O513209   3.073   1.776   1.169
   32BGLCN   C213210   2.972   1.578   1.254
   32BGLCN   H213211   3.074   1.547   1.284
   32BGLCN    N13212   2.898   1.461   1.214
   32BGLCN   HN13213   2.843   1.470   1.132
   32BGLCN    C13214   2.916   1.339   1.265
   32BGLCN    O13215   2.990   1.314   1.359
   32BGLCN   CT13216   2.837   1.231   1.198
   32BGLCN  HT113217   2.777   1.271   1.113
   32BGLCN  HT213218   2.769   1.184   1.273
   32BGLCN  HT313219   2.907   1.154   1.159
   32BGLCN   C313220   2.910   1.659   1.367
   32BGLCN   H313221   2.816   1.702   1.328
   32BGLCN   O313222   2.878   1.583   1.486
   32BGLCN   C413223   3.007   1.771   1.400
   32BGLCN   H413224   3.106   1.728   1.425
   32BGLCN   O413225   2.963   1.848   1.511
   32BGLCN  HO413226   2.952   1.788   1.585
   32BGLCN   C613227   3.109   1.979   1.283
   32BGLCN  H6113228   3.073   2.048   1.363
   32BGLCN  H6213229   3.213   1.950   1.307
   32BGLCN   O613230   3.106   2.048   1.158
   32BGLCN  HO613231   3.134   1.984   1.091
   33AGAL    C113232   2.752   1.617   1.541
   33AGAL    H113233   2.728   1.724   1.524
   33AGAL    C513234   2.662   1.396   1.512
   33AGAL    H513235   2.761   1.363   1.472
   33AGAL    O513236   2.647   1.537   1.484
   33AGAL    C213237   2.755   1.593   1.692
   33AGAL    H213238   2.653   1.620   1.728
   33AGAL    O213239   2.849   1.682   1.756
   33AGAL    C313240   2.778   1.446   1.722
   33AGAL    H313241   2.874   1.417   1.674
   33AGAL    O313242   2.791   1.419   1.861
   33AGAL   HO313243   2.702   1.411   1.895
   33AGAL    C413244   2.666   1.366   1.661
   33AGAL    H413245   2.687   1.258   1.675
   33AGAL    O413246   2.540   1.394   1.722
   33AGAL   HO413247   2.473   1.387   1.654
   33AGAL    C613248   2.556   1.318   1.436
   33AGAL   H6113249   2.572   1.331   1.326
   33AGAL   H6213250   2.565   1.210   1.459
   33AGAL    O613251   2.422   1.360   1.466
   33AGAL   HO613252   2.404   1.439   1.415
   34ARHM    C113253   2.801   1.733   1.879
   34ARHM    H113254   2.752   1.652   1.937
   34ARHM    C513255   2.755   1.950   1.787
   34ARHM    H513256   2.789   1.918   1.686
   34ARHM    O513257   2.703   1.837   1.858
   34ARHM    C213258   2.918   1.788   1.959
   34ARHM    H213259   2.995   1.709   1.967
   34ARHM    O213260   2.883   1.830   2.092
   34ARHM    C313261   2.979   1.906   1.886
   34ARHM    H313262   3.016   1.871   1.787
   34ARHM    O313263   3.090   1.962   1.957
   34ARHM   HO313264   3.115   2.041   1.909
   34ARHM    C413265   2.872   2.010   1.864
   34ARHM    H413266   2.834   2.044   1.963
   34ARHM    O413267   2.924   2.124   1.795
   34ARHM   HO413268   2.886   2.204   1.832
   34ARHM    C613269   2.637   2.046   1.769
   34ARHM   H6113270   2.601   2.080   1.869
   34ARHM   H6213271   2.667   2.135   1.710
   34ARHM   H6313272   2.554   1.995   1.716
   35ARHM    C113273   2.831   1.732   2.178
   35ARHM    H113274   2.878   1.634   2.156
   35ARHM    C513275   2.623   1.848   2.186
   35ARHM    H513276   2.660   1.921   2.112
   35ARHM    O513277   2.688   1.721   2.166
   35ARHM    C213278   2.865   1.777   2.319
   35ARHM    H213279   2.975   1.792   2.323
   35ARHM    O213280   2.829   1.682   2.422
   35ARHM    C313281   2.800   1.910   2.347
   35ARHM    H313282   2.840   1.986   2.276
   35ARHM    O313283   2.834   1.954   2.479
   35ARHM   HO313284   2.885   1.885   2.521
   35ARHM    C413285   2.650   1.900   2.327
   35ARHM    H413286   2.608   1.829   2.401
   35ARHM    O413287   2.587   2.027   2.342
   35ARHM   HO413288   2.615   2.066   2.425
   35ARHM    C613289   2.474   1.821   2.157
   35ARHM   H6113290   2.462   1.785   2.053
   35ARHM   H6213291   2.435   1.744   2.227
   35ARHM   H6313292   2.415   1.915   2.170
   36BMANN   C113293   2.903   1.562   2.418
   36BMANN   H113294   3.007   1.581   2.385
   36BMANN   C513295   2.907   1.342   2.324
   36BMANN   H513296   3.009   1.361   2.286
   36BMANN   O513297   2.837   1.467   2.333
   36BMANN   C213298   2.903   1.503   2.559
   36BMANN   H213299   2.955   1.576   2.624
   36BMANN    N13300   2.767   1.488   2.610
   36BMANN   HN13301   2.695   1.499   2.542
   36BMANN    C13302   2.734   1.465   2.738
   36BMANN    O13303   2.819   1.448   2.825
   36BMANN   CT13304   2.588   1.458   2.771
   36BMANN  HT113305   2.544   1.364   2.731
   36BMANN  HT213306   2.535   1.545   2.727
   36BMANN  HT313307   2.575   1.460   2.882
   36BMANN   C313308   2.985   1.375   2.554
   36BMANN   H313309   3.084   1.400   2.512
   36BMANN   O313310   3.010   1.322   2.684
   36BMANN  HO313311   2.946   1.362   2.745
   36BMANN   C413312   2.917   1.276   2.462
   36BMANN   H413313   2.815   1.253   2.500
   36BMANN   O413314   2.990   1.154   2.454
   36BMANN  HO413315   3.025   1.138   2.542
   36BMANN   C613316   2.836   1.257   2.221
   36BMANN  H6113317   2.822   1.317   2.128
   36BMANN  H6213318   2.899   1.170   2.193
   36BMANN   O613319   2.707   1.211   2.265
   36BMANN  HO613320   2.715   1.139   2.328
    1ECLIP HB6S13321   1.144   3.942  11.804
    1ECLIP  OB613322   1.249   3.834  11.943
    1ECLIP  CB613323   1.248   3.938  11.841
    1ECLIP HB6R13324   1.272   4.036  11.886
    1ECLIP  CB513325   1.338   3.923  11.720
    1ECLIP  OB513326   1.312   3.795  11.665
    1ECLIP  HB513327   1.444   3.929  11.754
    1ECLIP  CB113328   1.391   3.761  11.551
    1ECLIP  HB113329   1.496   3.739  11.579
    1ECLIP  OA613330   1.331   3.649  11.489
    1ECLIP  CA613331   1.189   3.639  11.517
    1ECLIP HA6R13332   1.142   3.735  11.548
    1ECLIP HA6S13333   1.175   3.566  11.600
    1ECLIP  CB413334   1.313   4.027  11.607
    1ECLIP  HB413335   1.218   3.992  11.562
    1ECLIP  OB413336   1.296   4.162  11.656
    1ECLIP   PB13337   1.142   4.229  11.644
    1ECLIP OPB413338   1.132   4.361  11.720
    1ECLIP OPB313339   1.045   4.125  11.696
    1ECLIP OPB213340   1.105   4.231  11.497
    1ECLIP  CB313341   1.419   4.000  11.497
    1ECLIP  OB313342   1.428   4.097  11.390
    1ECLIP  HB313343   1.514   3.992  11.554
    1ECLIP  C7113344   1.554   4.105  11.338
    1ECLIP  O7113345   1.645   4.032  11.371
    1ECLIP  C7213346   1.562   4.179  11.205
    1ECLIP H72R13347   1.541   4.106  11.124
    1ECLIP H72S13348   1.667   4.214  11.194
    1ECLIP  CB213349   1.380   3.863  11.440
    1ECLIP  HB213350   1.273   3.870  11.412
    1ECLIP  NB213351   1.449   3.820  11.317
    1ECLIP HNB213352   1.539   3.779  11.330
    1ECLIP  CA413353   1.176   3.489  11.316
    1ECLIP  HA413354   1.270   3.532  11.275
    1ECLIP  OA413355   1.208   3.378  11.399
    1ECLIP HOA413356   1.303   3.365  11.392
    1ECLIP  CA513357   1.110   3.597  11.396
    1ECLIP  HA513358   1.012   3.561  11.433
    1ECLIP  OA513359   1.089   3.712  11.313
    1ECLIP  CA113360   0.999   3.686  11.204
    1ECLIP  HA113361   0.998   3.777  11.140
    1ECLIP  OA113362   0.868   3.662  11.253
    1ECLIP OPA213363   0.698   3.711  11.428
    1ECLIP OPA313364   0.870   3.893  11.378
    1ECLIP OPA413365   0.677   3.826  11.222
    1ECLIP   PA13366   0.782   3.782  11.323
    1ECLIP  CA313367   1.085   3.450  11.203
    1ECLIP  HA313368   0.987   3.420  11.247
    1ECLIP  OA313369   1.135   3.335  11.134
    1ECLIP  C3113370   1.256   3.349  11.077
    1ECLIP  O3113371   1.272   3.405  10.970
    1ECLIP  C3213372   1.349   3.238  11.126
    1ECLIP H32R13373   1.363   3.167  11.041
    1ECLIP H32S13374   1.302   3.184  11.210
    1ECLIP  CA213375   1.057   3.573  11.117
    1ECLIP  HA213376   1.153   3.611  11.076
    1ECLIP  NA213377   0.974   3.536  11.004
    1ECLIP HNA213378   0.941   3.441  11.006
    1ECLIP  C7313379   1.467   4.298  11.194
    1ECLIP H73R13380   1.477   4.361  11.285
    1ECLIP  O7313381   1.337   4.242  11.183
    1ECLIP  C8113382   1.236   4.320  11.214
    1ECLIP  O8113383   1.240   4.441  11.226
    1ECLIP  C8213384   1.109   4.242  11.176
    1ECLIP H82R13385   1.022   4.306  11.202
    1ECLIP H82S13386   1.108   4.150  11.239
    1ECLIP  C8313387   1.109   4.202  11.027
    1ECLIP H83R13388   1.192   4.130  11.009
    1ECLIP H83S13389   1.128   4.292  10.965
    1ECLIP  C8413390   0.978   4.136  10.981
    1ECLIP H84R13391   0.895   4.209  10.993
    1ECLIP H84S13392   0.957   4.048  11.044
    1ECLIP  C8513393   0.990   4.091  10.835
    1ECLIP H85R13394   1.062   4.007  10.831
    1ECLIP H85S13395   1.033   4.175  10.776
    1ECLIP  C8613396   0.858   4.046  10.771
    1ECLIP H86R13397   0.791   4.134  10.762
    1ECLIP H86S13398   0.809   3.973  10.839
    1ECLIP  C8713399   0.878   3.981  10.633
    1ECLIP H87R13400   0.779   3.965  10.586
    1ECLIP H87S13401   0.923   3.880  10.650
    1ECLIP  C8813402   0.971   4.060  10.541
    1ECLIP H88R13403   1.072   4.061  10.587
    1ECLIP H88S13404   0.937   4.165  10.534
    1ECLIP  C8913405   0.987   4.001  10.400
    1ECLIP H89R13406   1.003   3.891  10.407
    1ECLIP H89S13407   1.079   4.045  10.357
    1ECLIP C81013408   0.869   4.032  10.306
    1ECLIPH810R13409   0.841   4.139  10.318
    1ECLIPH810S13410   0.782   3.971  10.339
    1ECLIP C81113411   0.899   4.003  10.158
    1ECLIPH811R13412   0.805   4.014  10.100
    1ECLIPH811S13413   0.931   3.896  10.151
    1ECLIP C81213414   1.008   4.091  10.094
    1ECLIPH812R13415   1.024   4.057   9.990
    1ECLIPH812S13416   1.103   4.077  10.149
    1ECLIP C81313417   0.974   4.241  10.093
    1ECLIPH813R13418   0.879   4.256  10.037
    1ECLIPH813S13419   0.958   4.276  10.197
    1ECLIP C81413420   1.084   4.327  10.030
    1ECLIPH814R13421   1.107   4.293   9.926
    1ECLIPH814S13422   1.177   4.320  10.090
    1ECLIPH814T13423   1.053   4.434  10.027
    1ECLIP  C7413424   1.499   4.386  11.070
    1ECLIP H74R13425   1.604   4.423  11.078
    1ECLIP H74S13426   1.434   4.476  11.077
    1ECLIP  C7513427   1.477   4.323  10.931
    1ECLIP H75R13428   1.432   4.401  10.866
    1ECLIP H75S13429   1.404   4.240  10.938
    1ECLIP  C7613430   1.605   4.274  10.860
    1ECLIP H76R13431   1.646   4.186  10.913
    1ECLIP H76S13432   1.681   4.355  10.865
    1ECLIP  C7713433   1.580   4.240  10.712
    1ECLIP H77R13434   1.529   4.326  10.664
    1ECLIP H77S13435   1.510   4.153  10.707
    1ECLIP  C7813436   1.708   4.207  10.633
    1ECLIP H78R13437   1.772   4.298  10.631
    1ECLIP H78S13438   1.764   4.128  10.688
    1ECLIP  C7913439   1.685   4.158  10.489
    1ECLIP H79R13440   1.639   4.058  10.492
    1ECLIP H79S13441   1.784   4.147  10.439
    1ECLIP C71013442   1.596   4.250  10.403
    1ECLIPH710R13443   1.495   4.256  10.449
    1ECLIPH710S13444   1.639   4.352  10.402
    1ECLIP C71113445   1.581   4.199  10.258
    1ECLIPH711R13446   1.682   4.195  10.211
    1ECLIPH711S13447   1.541   4.096  10.261
    1ECLIP C71213448   1.487   4.287  10.174
    1ECLIPH712R13449   1.531   4.388  10.164
    1ECLIPH712S13450   1.391   4.297  10.229
    1ECLIP C71313451   1.457   4.230  10.034
    1ECLIPH713R13452   1.407   4.131  10.047
    1ECLIPH713S13453   1.385   4.297   9.983
    1ECLIP C71413454   1.580   4.212   9.945
    1ECLIPH714R13455   1.632   4.309   9.932
    1ECLIPH714S13456   1.651   4.139   9.990
    1ECLIPH714T13457   1.550   4.174   9.844
    1ECLIP  C5113458   1.398   3.831  11.193
    1ECLIP  O5113459   1.293   3.891  11.170
    1ECLIP  C5213460   1.474   3.761  11.081
    1ECLIP H52R13461   1.575   3.806  11.072
    1ECLIP H52S13462   1.484   3.655  11.111
    1ECLIP  C5313463   1.402   3.768  10.945
    1ECLIP H53R13464   1.294   3.746  10.959
    1ECLIP  O5313465   1.467   3.670  10.863
    1ECLIP  C6113466   1.389   3.596  10.784
    1ECLIP  O6113467   1.275   3.624  10.752
    1ECLIP  C6213468   1.482   3.510  10.696
    1ECLIP H62R13469   1.548   3.451  10.764
    1ECLIP H62S13470   1.545   3.581  10.638
    1ECLIP  C6313471   1.405   3.414  10.602
    1ECLIP H63R13472   1.321   3.469  10.554
    1ECLIP H63S13473   1.362   3.333  10.663
    1ECLIP  C6413474   1.492   3.354  10.489
    1ECLIP H64R13475   1.432   3.274  10.440
    1ECLIP H64S13476   1.582   3.306  10.534
    1ECLIP  C6513477   1.533   3.457  10.383
    1ECLIP H65R13478   1.596   3.533  10.433
    1ECLIP H65S13479   1.443   3.509  10.345
    1ECLIP  C6613480   1.615   3.399  10.266
    1ECLIP H66R13481   1.701   3.343  10.307
    1ECLIP H66S13482   1.655   3.484  10.207
    1ECLIP  C6713483   1.536   3.307  10.170
    1ECLIP H67R13484   1.508   3.214  10.223
    1ECLIP H67S13485   1.603   3.280  10.086
    1ECLIP  C6813486   1.409   3.372  10.113
    1ECLIP H68R13487   1.431   3.476  10.082
    1ECLIP H68S13488   1.333   3.378  10.194
    1ECLIP  C6913489   1.350   3.295   9.994
    1ECLIP H69R13490   1.345   3.187  10.020
    1ECLIP H69S13491   1.420   3.306   9.908
    1ECLIP C61013492   1.210   3.344   9.956
    1ECLIPH610R13493   1.212   3.455   9.943
    1ECLIPH610S13494   1.142   3.322  10.041
    1ECLIP C61113495   1.152   3.279   9.830
    1ECLIPH611R13496   1.164   3.169   9.838
    1ECLIPH611S13497   1.043   3.300   9.826
    1ECLIP C61213498   1.217   3.328   9.701
    1ECLIPH612R13499   1.202   3.438   9.689
    1ECLIPH612S13500   1.326   3.307   9.702
    1ECLIPH612T13501   1.174   3.276   9.612
    1ECLIP  C5413502   1.416   3.908  10.879
    1ECLIP H54R13503   1.524   3.930  10.862
    1ECLIP H54S13504   1.379   3.982  10.953
    1ECLIP  C5513505   1.336   3.931  10.749
    1ECLIP H55R13506   1.310   4.039  10.742
    1ECLIP H55S13507   1.241   3.875  10.755
    1ECLIP  C5613508   1.412   3.893  10.621
    1ECLIP H56R13509   1.445   3.786  10.626
    1ECLIP H56S13510   1.505   3.953  10.614
    1ECLIP  C5713511   1.327   3.910  10.495
    1ECLIP H57R13512   1.304   4.018  10.482
    1ECLIP H57S13513   1.231   3.856  10.510
    1ECLIP  C5813514   1.395   3.855  10.370
    1ECLIP H58R13515   1.496   3.901  10.361
    1ECLIP H58S13516   1.410   3.745  10.381
    1ECLIP  C5913517   1.314   3.884  10.243
    1ECLIP H59R13518   1.294   3.993  10.238
    1ECLIP H59S13519   1.216   3.832  10.250
    1ECLIP C51013520   1.387   3.842  10.115
    1ECLIPH510R13521   1.414   3.734  10.122
    1ECLIPH510S13522   1.482   3.900  10.109
    1ECLIP C51113523   1.304   3.866   9.988
    1ECLIPH511R13524   1.225   3.788   9.982
    1ECLIPH511S13525   1.253   3.964   9.998
    1ECLIP C51213526   1.387   3.867   9.860
    1ECLIPH512R13527   1.320   3.881   9.772
    1ECLIPH512S13528   1.456   3.955   9.864
    1ECLIP C51313529   1.473   3.741   9.840
    1ECLIPH513R13530   1.406   3.653   9.832
    1ECLIPH513S13531   1.537   3.726   9.930
    1ECLIP C51413532   1.564   3.751   9.718
    1ECLIPH514R13533   1.625   3.843   9.722
    1ECLIPH514S13534   1.633   3.664   9.717
    1ECLIPH514T13535   1.504   3.750   9.624
    1ECLIP  C3313536   1.489   3.290  11.170
    1ECLIP H33R13537   1.551   3.204  11.202
    1ECLIP  O3313538   1.472   3.377  11.280
    1ECLIP HO3313539   1.555   3.407  11.318
    1ECLIP  C3413540   1.563   3.366  11.057
    1ECLIP H34R13541   1.498   3.448  11.020
    1ECLIP H34S13542   1.578   3.295  10.973
    1ECLIP  C3513543   1.698   3.431  11.092
    1ECLIP H35R13544   1.773   3.356  11.125
    1ECLIP H35S13545   1.684   3.504  11.174
    1ECLIP  C3613546   1.751   3.507  10.968
    1ECLIP H36R13547   1.665   3.562  10.925
    1ECLIP H36S13548   1.786   3.434  10.892
    1ECLIP  C3713549   1.860   3.613  10.994
    1ECLIP H37R13550   1.958   3.563  11.002
    1ECLIP H37S13551   1.840   3.662  11.092
    1ECLIP  C3813552   1.862   3.722  10.885
    1ECLIP H38R13553   1.770   3.783  10.895
    1ECLIP H38S13554   1.949   3.789  10.903
    1ECLIP  C3913555   1.868   3.667  10.741
    1ECLIP H39R13556   1.779   3.603  10.724
    1ECLIP H39S13557   1.958   3.602  10.731
    1ECLIP C31013558   1.870   3.775  10.633
    1ECLIPH310R13559   1.968   3.827  10.634
    1ECLIPH310S13560   1.791   3.851  10.656
    1ECLIP C31113561   1.842   3.717  10.493
    1ECLIPH311R13562   1.914   3.634  10.474
    1ECLIPH311S13563   1.740   3.674  10.495
    1ECLIP C31213564   1.851   3.819  10.379
    1ECLIPH312R13565   1.788   3.907  10.404
    1ECLIPH312S13566   1.956   3.854  10.369
    1ECLIP C31313567   1.803   3.761  10.245
    1ECLIPH313R13568   1.862   3.670  10.222
    1ECLIPH313S13569   1.697   3.730  10.257
    1ECLIP C31413570   1.813   3.859  10.128
    1ECLIPH314R13571   1.919   3.889  10.112
    1ECLIPH314S13572   1.775   3.813  10.034
    1ECLIPH314T13573   1.755   3.951  10.149
    1ECLIP  C1113574   0.943   3.614  10.900
    1ECLIP  O1113575   0.985   3.728  10.886
    1ECLIP  C1213576   0.845   3.555  10.800
    1ECLIP H12R13577   0.753   3.616  10.805
    1ECLIP H12S13578   0.820   3.450  10.827
    1ECLIP  C1313579   0.901   3.561  10.657
    1ECLIP H13R13580   0.943   3.662  10.637
    1ECLIP  O1313581   0.792   3.540  10.568
    1ECLIP HO1313582   0.819   3.548  10.476
    1ECLIP  C1413583   1.007   3.453  10.625
    1ECLIP H14R13584   0.972   3.356  10.665
    1ECLIP H14S13585   1.101   3.479  10.679
    1ECLIP  C1513586   1.039   3.434  10.474
    1ECLIP H15R13587   0.948   3.391  10.426
    1ECLIP H15S13588   1.118   3.357  10.464
    1ECLIP  C1613589   1.083   3.561  10.399
    1ECLIP H16R13590   1.190   3.580  10.422
    1ECLIP H16S13591   1.027   3.650  10.434
    1ECLIP  C1713592   1.064   3.549  10.247
    1ECLIP H17R13593   1.101   3.449  10.214
    1ECLIP H17S13594   1.128   3.626  10.198
    1ECLIP  C1813595   0.918   3.570  10.202
    1ECLIP H18R13596   0.854   3.499  10.258
    1ECLIP H18S13597   0.887   3.673  10.230
    1ECLIP  C1913598   0.894   3.548  10.051
    1ECLIP H19R13599   0.786   3.561  10.031
    1ECLIP H19S13600   0.922   3.444  10.025
    1ECLIP C11013601   0.973   3.645   9.963
    1ECLIPH110R13602   0.948   3.750   9.992
    1ECLIPH110S13603   1.082   3.630   9.981
    1ECLIP C11113604   0.947   3.628   9.812
    1ECLIPH111R13605   0.975   3.525   9.782
    1ECLIPH111S13606   0.839   3.641   9.793
    1ECLIP C11213607   1.027   3.729   9.729
    1ECLIPH112R13608   1.003   3.832   9.765
    1ECLIPH112S13609   1.136   3.713   9.747
    1ECLIP C11313610   0.999   3.721   9.579
    1ECLIPH113R13611   1.034   3.622   9.542
    1ECLIPH113S13612   0.889   3.725   9.563
    1ECLIP C11413613   1.066   3.832   9.499
    1ECLIPH114R13614   1.028   3.931   9.531
    1ECLIPH114S13615   1.176   3.830   9.515
    1ECLIPH114T13616   1.046   3.820   9.390
    2AKDO    C113617   1.485   3.790  11.989
    2AKDO   O1113618   1.588   3.850  12.029
    2AKDO   O1213619   1.478   3.671  11.945
    2AKDO    C213620   1.349   3.846  12.044
    2AKDO    C613621   1.228   4.026  12.152
    2AKDO    H613622   1.152   4.013  12.072
    2AKDO    O613623   1.355   3.980  12.100
    2AKDO    C313624   1.299   3.755  12.158
    2AKDO   H3113625   1.377   3.756  12.237
    2AKDO   H3213626   1.291   3.652  12.118
    2AKDO    C413627   1.168   3.798  12.214
    2AKDO    H413628   1.092   3.797  12.133
    2AKDO    O413629   1.128   3.710  12.320
    2AKDO    C513630   1.177   3.939  12.270
    2AKDO    H513631   1.071   3.970  12.286
    2AKDO    O513632   1.245   3.946  12.398
    2AKDO    C713633   1.237   4.176  12.174
    2AKDO    H713634   1.315   4.198  12.250
    2AKDO    O713635   1.110   4.228  12.215
    2AKDO   HO713636   1.117   4.316  12.176
    2AKDO    C813637   1.274   4.248  12.045
    2AKDO   H8113638   1.375   4.214  12.013
    2AKDO   H8213639   1.203   4.221  11.964
    2AKDO    O813640   1.274   4.391  12.059
    2AKDO   HO813641   1.322   4.420  11.981
    3AKDO    C113642   0.955   3.587  12.189
    3AKDO   O1113643   0.935   3.483  12.121
    3AKDO   O1213644   0.871   3.679  12.211
    3AKDO    C213645   1.072   3.582  12.292
    3AKDO    C613646   1.279   3.469  12.353
    3AKDO    H613647   1.330   3.567  12.361
    3AKDO    O613648   1.170   3.480  12.258
    3AKDO    C313649   1.018   3.550  12.432
    3AKDO   H3113650   0.962   3.454  12.427
    3AKDO   H3213651   0.946   3.629  12.461
    3AKDO    C413652   1.127   3.541  12.534
    3AKDO    H413653   1.185   3.636  12.536
    3AKDO    O413654   1.069   3.525  12.663
    3AKDO   HO413655   1.052   3.614  12.696
    3AKDO    C513656   1.224   3.431  12.491
    3AKDO    H513657   1.308   3.428  12.564
    3AKDO    O513658   1.164   3.301  12.488
    3AKDO   HO513659   1.115   3.299  12.405
    3AKDO    C713660   1.382   3.370  12.298
    3AKDO    H713661   1.332   3.273  12.276
    3AKDO    O713662   1.486   3.347  12.393
    3AKDO   HO713663   1.561   3.338  12.334
    3AKDO    C813664   1.448   3.420  12.170
    3AKDO   H8113665   1.371   3.437  12.091
    3AKDO   H8213666   1.499   3.517  12.187
    3AKDO    O813667   1.543   3.323  12.122
    3AKDO   HO813668   1.592   3.367  12.052
    4AHEP    C113669   1.198   4.048  12.486
    4AHEP    H113670   1.222   4.145  12.439
    4AHEP    C513671   1.012   3.929  12.582
    4AHEP    H513672   1.055   3.842  12.528
    4AHEP    O513673   1.056   4.046  12.508
    4AHEP    C213674   1.269   4.048  12.622
    4AHEP    H213675   1.376   4.033  12.600
    4AHEP    O213676   1.260   4.172  12.693
    4AHEP   HO213677   1.324   4.164  12.764
    4AHEP    C313678   1.225   3.930  12.708
    4AHEP    H313679   1.260   3.837  12.658
    4AHEP    O313680   1.285   3.946  12.839
    4AHEP    C413681   1.073   3.929  12.723
    4AHEP    H413682   1.041   4.021  12.778
    4AHEP    O413683   1.035   3.810  12.793
    4AHEP    P413684   0.922   3.796  12.911
    4AHEP  OP4213685   0.972   3.681  12.998
    4AHEP  OP4313686   0.792   3.759  12.840
    4AHEP  OP4413687   0.905   3.927  12.985
    4AHEP    C613688   0.860   3.910  12.571
    4AHEP    H613689   0.838   3.803  12.589
    4AHEP    O613690   0.791   3.986  12.672
    4AHEP   HO613691   0.798   3.928  12.748
    4AHEP    C713692   0.804   3.946  12.433
    4AHEP   H7113693   0.697   3.917  12.428
    4AHEP   H7213694   0.858   3.887  12.356
    4AHEP    O713695   0.816   4.086  12.401
    4AHEP   HO713696   0.909   4.103  12.413
    5AHEP    C113697   1.325   3.827  12.904
    5AHEP    H113698   1.282   3.741  12.850
    5AHEP    C513699   1.538   3.909  12.981
    5AHEP    H513700   1.506   4.009  12.947
    5AHEP    O513701   1.468   3.809  12.903
    5AHEP    C213702   1.276   3.820  13.048
    5AHEP    H213703   1.172   3.859  13.046
    5AHEP    O213704   1.264   3.686  13.096
    5AHEP   HO213705   1.173   3.665  13.075
    5AHEP    C313706   1.349   3.919  13.137
    5AHEP    H313707   1.327   4.022  13.103
    5AHEP    O313708   1.318   3.903  13.277
    5AHEP    C413709   1.498   3.896  13.128
    5AHEP    H413710   1.524   3.794  13.164
    5AHEP    O413711   1.561   4.000  13.203
    5AHEP    P413712   1.662   3.976  13.329
    5AHEP  OP4213713   1.651   4.101  13.414
    5AHEP  OP4313714   1.803   3.966  13.274
    5AHEP  OP4413715   1.622   3.851  13.406
    5AHEP    C613716   1.688   3.901  12.956
    5AHEP    H613717   1.740   3.973  13.024
    5AHEP    O613718   1.738   3.769  12.983
    5AHEP   HO613719   1.771   3.746  12.896
    5AHEP    C713720   1.722   3.939  12.813
    5AHEP   H7113721   1.811   4.007  12.816
    5AHEP   H7213722   1.642   3.999  12.765
    5AHEP    O713723   1.760   3.826  12.732
    6AHEP    C113724   1.652   3.775  12.658
    6AHEP    H113725   1.555   3.820  12.689
    6AHEP    C513726   1.786   3.748  12.460
    6AHEP    H513727   1.875   3.796  12.506
    6AHEP    O513728   1.665   3.801  12.518
    6AHEP    C213729   1.648   3.626  12.681
    6AHEP    H213730   1.641   3.609  12.791
    6AHEP    O213731   1.531   3.567  12.623
    6AHEP   HO213732   1.531   3.586  12.529
    6AHEP    C313733   1.778   3.565  12.631
    6AHEP    H313734   1.863   3.614  12.684
    6AHEP    O313735   1.789   3.424  12.654
    6AHEP   HO313736   1.846   3.400  12.581
    6AHEP    C413737   1.791   3.596  12.483
    6AHEP    H413738   1.708   3.547  12.427
    6AHEP    O413739   1.915   3.539  12.437
    6AHEP   HO413740   1.931   3.556  12.344
    6AHEP    C613741   1.783   3.781  12.311
    6AHEP    H613742   1.870   3.733  12.262
    6AHEP    O613743   1.664   3.724  12.253
    6AHEP   HO613744   1.639   3.779  12.178
    6AHEP    C713745   1.793   3.931  12.280
    6AHEP   H7113746   1.784   3.946  12.171
    6AHEP   H7213747   1.894   3.967  12.310
    6AHEP    O713748   1.695   4.014  12.344
    6AHEP   HO713749   1.711   4.006  12.439
    7AGLC    C113750   1.212   3.979  13.326
    7AGLC    H113751   1.204   4.076  13.273
    7AGLC    C513752   1.097   3.777  13.377
    7AGLC    H513753   1.181   3.719  13.332
    7AGLC    O513754   1.089   3.907  13.315
    7AGLC    C213755   1.238   4.002  13.474
    7AGLC    H213756   1.150   4.056  13.515
    7AGLC    O213757   1.350   4.089  13.496
    7AGLC   HO213758   1.429   4.051  13.458
    7AGLC    C313759   1.252   3.871  13.549
    7AGLC    H313760   1.338   3.815  13.507
    7AGLC    O313761   1.270   3.893  13.692
    7AGLC    C413762   1.124   3.793  13.525
    7AGLC    H413763   1.039   3.852  13.566
    7AGLC    O413764   1.125   3.665  13.587
    7AGLC   HO413765   1.050   3.661  13.648
    7AGLC    C613766   0.968   3.704  13.344
    7AGLC   H6113767   0.961   3.693  13.234
    7AGLC   H6213768   0.970   3.601  13.388
    7AGLC    O613769   0.852   3.773  13.391
    7AGLC   HO613770   0.839   3.842  13.326
    8AGLC    C113771   1.397   3.859  13.743
    8AGLC    H113772   1.434   3.766  13.694
    8AGLC    C513773   1.464   4.086  13.788
    8AGLC    H513774   1.363   4.117  13.755
    8AGLC    O513775   1.496   3.962  13.723
    8AGLC    C213776   1.389   3.835  13.894
    8AGLC    H213777   1.488   3.797  13.926
    8AGLC    O213778   1.288   3.742  13.933
    8AGLC    C313779   1.356   3.962  13.970
    8AGLC    H313780   1.260   4.000  13.931
    8AGLC    O313781   1.336   3.934  14.111
    8AGLC    C413782   1.462   4.066  13.939
    8AGLC    H413783   1.561   4.027  13.969
    8AGLC    O413784   1.440   4.190  14.006
    8AGLC   HO413785   1.510   4.248  13.972
    8AGLC    C613786   1.559   4.196  13.741
    8AGLC   H6113787   1.579   4.183  13.632
    8AGLC   H6213788   1.509   4.295  13.752
    8AGLC    O613789   1.682   4.200  13.813
    8AGLC   HO613790   1.749   4.163  13.755
    9AGAL    C113791   1.287   3.613  13.880
    9AGAL    H113792   1.289   3.615  13.769
    9AGAL    C513793   1.403   3.529  14.070
    9AGAL    H513794   1.402   3.634  14.107
    9AGAL    O513795   1.397   3.534  13.927
    9AGAL    C213796   1.155   3.553  13.927
    9AGAL    H213797   1.145   3.450  13.886
    9AGAL    O213798   1.054   3.637  13.865
    9AGAL    C313799   1.157   3.543  14.080
    9AGAL    H313800   1.169   3.645  14.121
    9AGAL    O313801   1.036   3.491  14.135
    9AGAL   HO313802   0.971   3.561  14.131
    9AGAL    C413803   1.278   3.461  14.126
    9AGAL    H413804   1.282   3.466  14.237
    9AGAL    O413805   1.269   3.323  14.091
    9AGAL   HO413806   1.312   3.309  14.006
    9AGAL    C613807   1.540   3.478  14.113
    9AGAL   H6113808   1.617   3.532  14.055
    9AGAL   H6213809   1.555   3.502  14.221
    9AGAL    O613810   1.560   3.337  14.096
    9AGAL   HO613811   1.527   3.312  14.010
   10AGAL    C113812   0.926   3.656  13.921
   10AGAL    H113813   0.878   3.556  13.934
   10AGAL    C513814   0.988   3.856  14.036
   10AGAL    H513815   1.085   3.848  13.983
   10AGAL    O513816   0.933   3.723  14.048
   10AGAL    C213817   0.839   3.738  13.826
   10AGAL    H213818   0.737   3.743  13.870
   10AGAL    O213819   0.828   3.674  13.698
   10AGAL   HO213820   0.785   3.736  13.639
   10AGAL    C313821   0.892   3.880  13.812
   10AGAL    H313822   0.996   3.875  13.771
   10AGAL    O313823   0.812   3.958  13.722
   10AGAL   HO313824   0.863   4.024  13.673
   10AGAL    C413825   0.900   3.945  13.949
   10AGAL    H413826   0.949   4.044  13.938
   10AGAL    O413827   0.772   3.965  14.009
   10AGAL   HO413828   0.715   4.005  13.943
   10AGAL    C613829   1.021   3.912  14.173
   10AGAL   H6113830   1.098   3.848  14.220
   10AGAL   H6213831   1.064   4.014  14.161
   10AGAL    O613832   0.908   3.918  14.260
   10AGAL   HO613833   0.833   3.938  14.203
   11BGLC    C113834   1.446   3.940  14.198
   11BGLC    H113835   1.481   4.045  14.209
   11BGLC    C513836   1.670   3.862  14.236
   11BGLC    H513837   1.703   3.968  14.246
   11BGLC    O513838   1.554   3.857  14.151
   11BGLC    C213839   1.401   3.887  14.333
   11BGLC    H213840   1.364   3.783  14.319
   11BGLC    O213841   1.294   3.966  14.386
   11BGLC   HO213842   1.217   3.954  14.329
   11BGLC    C313843   1.516   3.886  14.430
   11BGLC    H313844   1.548   3.990  14.454
   11BGLC    O313845   1.479   3.813  14.548
   11BGLC    C413846   1.631   3.807  14.372
   11BGLC    H413847   1.600   3.701  14.360
   11BGLC    O413848   1.742   3.813  14.461
   11BGLC   HO413849   1.706   3.814  14.550
   11BGLC    C613850   1.783   3.783  14.172
   11BGLC   H6113851   1.877   3.796  14.230
   11BGLC   H6213852   1.757   3.675  14.173
   11BGLC    O613853   1.808   3.820  14.035
   11BGLC   HO613854   1.866   3.896  14.029
   12BGLCN   C113855   1.451   3.888  14.663
   12BGLCN   H113856   1.363   3.954  14.645
   12BGLCN   C513857   1.546   4.041  14.817
   12BGLCN   H513858   1.458   4.108  14.804
   12BGLCN   O513859   1.566   3.963  14.699
   12BGLCN   C213860   1.421   3.786  14.773
   12BGLCN   H213861   1.513   3.725  14.785
   12BGLCN    N13862   1.314   3.697  14.727
   12BGLCN   HN13863   1.253   3.731  14.657
   12BGLCN    C13864   1.305   3.567  14.758
   12BGLCN    O13865   1.377   3.513  14.842
   12BGLCN   CT13866   1.198   3.490  14.687
   12BGLCN  HT113867   1.174   3.398  14.743
   12BGLCN  HT213868   1.234   3.461  14.585
   12BGLCN  HT313869   1.106   3.552  14.676
   12BGLCN   C313870   1.396   3.859  14.905
   12BGLCN   H313871   1.306   3.922  14.895
   12BGLCN   O313872   1.377   3.763  15.013
   12BGLCN   C413873   1.519   3.945  14.934
   12BGLCN   H413874   1.607   3.879  14.945
   12BGLCN   O413875   1.507   4.019  15.054
   12BGLCN  HO413876   1.427   4.074  15.052
   12BGLCN   C613877   1.670   4.128  14.832
   12BGLCN  H6113878   1.666   4.184  14.928
   12BGLCN  H6213879   1.760   4.063  14.835
   12BGLCN   O613880   1.683   4.222  14.725
   12BGLCN  HO613881   1.774   4.250  14.716
   13AGAL    C113882   1.295   3.802  15.123
   13AGAL    H113883   1.314   3.907  15.152
   13AGAL    C513884   1.121   3.649  15.059
   13AGAL    H513885   1.188   3.617  14.977
   13AGAL    O513886   1.155   3.786  15.092
   13AGAL    C213887   1.321   3.715  15.247
   13AGAL    H213888   1.245   3.745  15.321
   13AGAL    O213889   1.451   3.739  15.306
   13AGAL    C313890   1.295   3.569  15.214
   13AGAL    H313891   1.359   3.540  15.128
   13AGAL    O313892   1.326   3.482  15.323
   13AGAL   HO313893   1.244   3.465  15.369
   13AGAL    C413894   1.149   3.555  15.176
   13AGAL    H413895   1.132   3.451  15.141
   13AGAL    O413896   1.061   3.577  15.287
   13AGAL   HO413897   1.066   3.668  15.315
   13AGAL    C613898   0.980   3.641  15.004
   13AGAL   H6113899   0.972   3.703  14.912
   13AGAL   H6213900   0.957   3.536  14.975
   13AGAL    O613901   0.881   3.685  15.097
   13AGAL   HO613902   0.891   3.632  15.177
   14ARHM    C113903   1.452   3.803  15.433
   14ARHM    H113904   1.365   3.871  15.440
   14ARHM    C513905   1.689   3.813  15.452
   14ARHM    H513906   1.702   3.758  15.357
   14ARHM    O513907   1.566   3.888  15.449
   14ARHM    C213908   1.442   3.699  15.544
   14ARHM    H213909   1.356   3.632  15.524
   14ARHM    O213910   1.428   3.749  15.678
   14ARHM    C313911   1.569   3.617  15.546
   14ARHM    H313912   1.582   3.568  15.447
   14ARHM    O313913   1.564   3.514  15.644
   14ARHM   HO313914   1.541   3.554  15.728
   14ARHM    C413915   1.685   3.714  15.568
   14ARHM    H413916   1.665   3.772  15.660
   14ARHM    O413917   1.810   3.649  15.588
   14ARHM   HO413918   1.799   3.556  15.565
   14ARHM    C613919   1.802   3.917  15.463
   14ARHM   H6113920   1.801   3.985  15.375
   14ARHM   H6213921   1.789   3.979  15.555
   14ARHM   H6313922   1.901   3.867  15.467
   15ARHM    C113923   1.318   3.831  15.705
   15ARHM    H113924   1.239   3.816  15.628
   15ARHM    C513925   1.452   4.002  15.810
   15ARHM    H513926   1.546   3.946  15.791
   15ARHM    O513927   1.356   3.970  15.708
   15ARHM    C213928   1.262   3.791  15.840
   15ARHM    H213929   1.239   3.682  15.839
   15ARHM    O213930   1.139   3.863  15.851
   15ARHM    C313931   1.365   3.817  15.947
   15ARHM    H313932   1.457   3.761  15.919
   15ARHM    O313933   1.320   3.769  16.074
   15ARHM    C413934   1.398   3.965  15.948
   15ARHM    H413935   1.304   4.023  15.962
   15ARHM    O413936   1.484   4.001  16.055
   15ARHM   HO413937   1.575   4.009  16.025
   15ARHM    C613938   1.482   4.152  15.797
   15ARHM   H6113939   1.559   4.183  15.871
   15ARHM   H6213940   1.521   4.174  15.695
   15ARHM   H6313941   1.390   4.211  15.814
   16BMANN   C113942   1.072   3.868  15.973
   16BMANN   H113943   1.134   3.919  16.049
   16BMANN   C513944   0.967   3.747  16.149
   16BMANN   H513945   1.035   3.794  16.223
   16BMANN   O513946   1.034   3.738  16.022
   16BMANN   C213947   0.948   3.951  15.947
   16BMANN   H213948   0.983   4.052  15.916
   16BMANN    N13949   0.863   3.900  15.840
   16BMANN   HN13950   0.788   3.840  15.867
   16BMANN    C13951   0.875   3.932  15.711
   16BMANN    O13952   0.961   4.009  15.668
   16BMANN   CT13953   0.777   3.868  15.616
   16BMANN  HT113954   0.686   3.932  15.608
   16BMANN  HT213955   0.750   3.767  15.652
   16BMANN  HT313956   0.823   3.859  15.515
   16BMANN   C313957   0.876   3.967  16.079
   16BMANN   H313958   0.946   4.017  16.149
   16BMANN   O313959   0.760   4.049  16.066
   16BMANN  HO313960   0.783   4.142  16.071
   16BMANN   C413961   0.841   3.831  16.135
   16BMANN   H413962   0.772   3.778  16.065
   16BMANN   O413963   0.776   3.844  16.261
   16BMANN  HO413964   0.693   3.889  16.244
   16BMANN   C613965   0.938   3.606  16.195
   16BMANN  H6113966   0.879   3.607  16.290
   16BMANN  H6213967   0.876   3.554  16.118
   16BMANN   O613968   1.057   3.531  16.217
   16BMANN  HO613969   1.103   3.527  16.133
   17BGLCN   C113970   1.422   3.709  16.150
   17BGLCN   H113971   1.521   3.753  16.127
   17BGLCN   C513972   1.525   3.502  16.210
   17BGLCN   H513973   1.624   3.546  16.186
   17BGLCN   O513974   1.424   3.568  16.130
   17BGLCN   C213975   1.386   3.738  16.295
   17BGLCN   H213976   1.292   3.684  16.316
   17BGLCN    N13977   1.358   3.879  16.314
   17BGLCN   HN13978   1.397   3.939  16.244
   17BGLCN    C13979   1.279   3.930  16.410
   17BGLCN    O13980   1.220   3.862  16.493
   17BGLCN   CT13981   1.264   4.079  16.409
   17BGLCN  HT113982   1.193   4.109  16.329
   17BGLCN  HT213983   1.362   4.128  16.391
   17BGLCN  HT313984   1.224   4.113  16.507
   17BGLCN   C313985   1.497   3.679  16.381
   17BGLCN   H313986   1.593   3.717  16.340
   17BGLCN   O313987   1.487   3.723  16.518
   17BGLCN   C413988   1.494   3.529  16.357
   17BGLCN   H413989   1.391   3.493  16.378
   17BGLCN   O413990   1.581   3.455  16.441
   17BGLCN  HO413991   1.532   3.378  16.471
   17BGLCN   C613992   1.529   3.355  16.173
   17BGLCN  H6113993   1.605   3.303  16.235
   17BGLCN  H6213994   1.431   3.309  16.194
   17BGLCN   O613995   1.561   3.334  16.035
   17BGLCN  HO613996   1.651   3.362  16.017
   18AGAL    C113997   1.611   3.732  16.586
   18AGAL    H113998   1.657   3.632  16.595
   18AGAL    C513999   1.657   3.956  16.509
   18AGAL    H514000   1.561   3.952  16.454
   18AGAL    O514001   1.705   3.820  16.521
   18AGAL    C214002   1.588   3.788  16.726
   18AGAL    H214003   1.690   3.797  16.769
   18AGAL    O214004   1.514   3.698  16.810
   18AGAL    C314005   1.527   3.927  16.717
   18AGAL    H314006   1.434   3.920  16.657
   18AGAL    O314007   1.490   3.979  16.845
   18AGAL   HO314008   1.428   4.052  16.835
   18AGAL    C414009   1.627   4.017  16.647
   18AGAL    H414010   1.581   4.117  16.631
   18AGAL    O414011   1.746   4.035  16.724
   18AGAL   HO414012   1.725   4.062  16.813
   18AGAL    C614013   1.752   4.037  16.422
   18AGAL   H6114014   1.770   3.982  16.327
   18AGAL   H6214015   1.705   4.134  16.397
   18AGAL    O614016   1.877   4.062  16.486
   18AGAL   HO614017   1.867   4.029  16.576
   19ARHM    C114018   1.561   3.697  16.943
   19ARHM    H114019   1.602   3.797  16.970
   19ARHM    C514020   1.620   3.466  16.940
   19ARHM    H514021   1.585   3.457  16.835
   19ARHM    O514022   1.665   3.600  16.964
   19ARHM    C214023   1.442   3.669  17.032
   19ARHM    H214024   1.360   3.735  16.999
   19ARHM    O214025   1.471   3.695  17.171
   19ARHM    C314026   1.391   3.529  17.009
   19ARHM    H314027   1.359   3.519  16.903
   19ARHM    O314028   1.279   3.500  17.092
   19ARHM   HO314029   1.280   3.405  17.107
   19ARHM    C414030   1.505   3.432  17.034
   19ARHM    H414031   1.542   3.447  17.138
   19ARHM    O414032   1.463   3.296  17.024
   19ARHM   HO414033   1.434   3.275  16.935
   19ARHM    C614034   1.742   3.374  16.957
   19ARHM   H6114035   1.822   3.404  16.886
   19ARHM   H6214036   1.782   3.380  17.060
   19ARHM   H6314037   1.715   3.268  16.935
   20ARHM    C114038   1.463   3.832  17.204
   20ARHM    H114039   1.405   3.888  17.126
   20ARHM    C514040   1.673   3.845  17.316
   20ARHM    H514041   1.687   3.736  17.301
   20ARHM    O514042   1.591   3.897  17.211
   20ARHM    C214043   1.390   3.847  17.336
   20ARHM    H214044   1.299   3.783  17.332
   20ARHM    O214045   1.349   3.982  17.362
   20ARHM    C314046   1.473   3.796  17.450
   20ARHM    H314047   1.490   3.687  17.437
   20ARHM    O314048   1.401   3.822  17.571
   20ARHM    C414049   1.605   3.869  17.450
   20ARHM    H414050   1.584   3.978  17.460
   20ARHM    O414051   1.688   3.831  17.560
   20ARHM   HO414052   1.759   3.895  17.565
   20ARHM    C614053   1.810   3.914  17.303
   20ARHM   H6114054   1.800   4.023  17.318
   20ARHM   H6214055   1.883   3.872  17.376
   20ARHM   H6314056   1.851   3.897  17.201
   21BMANN   C114057   1.240   4.025  17.285
   21BMANN   H114058   1.193   3.941  17.230
   21BMANN   C514059   1.177   4.176  17.112
   21BMANN   H514060   1.131   4.092  17.056
   21BMANN   O514061   1.284   4.126  17.193
   21BMANN   C214062   1.142   4.086  17.382
   21BMANN   H214063   1.105   4.003  17.446
   21BMANN    N14064   1.209   4.180  17.472
   21BMANN   HN14065   1.305   4.196  17.448
   21BMANN    C14066   1.160   4.226  17.587
   21BMANN    O14067   1.043   4.213  17.619
   21BMANN   CT14068   1.256   4.297  17.679
   21BMANN  HT114069   1.212   4.394  17.711
   21BMANN  HT214070   1.353   4.315  17.627
   21BMANN  HT314071   1.273   4.234  17.769
   21BMANN   C314072   1.024   4.139  17.301
   21BMANN   H314073   0.981   4.054  17.245
   21BMANN   O314074   0.920   4.188  17.385
   21BMANN  HO314075   0.960   4.210  17.470
   21BMANN   C414076   1.072   4.242  17.201
   21BMANN   H414077   1.117   4.328  17.254
   21BMANN   O414078   0.963   4.289  17.122
   21BMANN  HO414079   0.886   4.288  17.179
   21BMANN   C614080   1.240   4.271  17.012
   21BMANN  H6114081   1.163   4.311  16.943
   21BMANN  H6214082   1.285   4.358  17.065
   21BMANN   O614083   1.340   4.205  16.934
   21BMANN  HO614084   1.414   4.187  16.993
   22BGLCN   C114085   1.405   3.721  17.667
   22BGLCN   H114086   1.500   3.665  17.662
   22BGLCN   C514087   1.286   3.534  17.752
   22BGLCN   H514088   1.381   3.477  17.752
   22BGLCN   O514089   1.292   3.635  17.651
   22BGLCN   C214090   1.392   3.795  17.798
   22BGLCN   H214091   1.296   3.850  17.796
   22BGLCN    N14092   1.500   3.893  17.809
   22BGLCN   HN14093   1.581   3.873  17.753
   22BGLCN    C14094   1.492   4.011  17.870
   22BGLCN    O14095   1.392   4.052  17.928
   22BGLCN   CT14096   1.616   4.096  17.865
   22BGLCN  HT114097   1.610   4.163  17.776
   22BGLCN  HT214098   1.706   4.032  17.858
   22BGLCN  HT314099   1.621   4.158  17.957
   22BGLCN   C314100   1.387   3.695  17.912
   22BGLCN   H314101   1.481   3.635  17.910
   22BGLCN   O314102   1.382   3.771  18.034
   22BGLCN   C414103   1.270   3.600  17.889
   22BGLCN   H414104   1.176   3.660  17.890
   22BGLCN   O414105   1.262   3.499  17.988
   22BGLCN  HO414106   1.172   3.467  17.999
   22BGLCN   C614107   1.175   3.440  17.712
   22BGLCN  H6114108   1.173   3.352  17.780
   22BGLCN  H6214109   1.077   3.491  17.720
   22BGLCN   O614110   1.193   3.395  17.578
   22BGLCN  HO614111   1.188   3.471  17.520
   23AGAL    C114112   1.412   3.706  18.155
   23AGAL    H114113   1.331   3.635  18.180
   23AGAL    C514114   1.650   3.722  18.126
   23AGAL    H514115   1.632   3.775  18.030
   23AGAL    O514116   1.537   3.635  18.151
   23AGAL    C214117   1.418   3.811  18.265
   23AGAL    H214118   1.436   3.759  18.361
   23AGAL    O214119   1.295   3.885  18.274
   23AGAL    C314120   1.533   3.907  18.241
   23AGAL    H314121   1.516   3.959  18.145
   23AGAL    O314122   1.540   4.006  18.344
   23AGAL   HO314123   1.598   3.970  18.411
   23AGAL    C414124   1.663   3.829  18.235
   23AGAL    H414125   1.745   3.898  18.206
   23AGAL    O414126   1.697   3.772  18.361
   23AGAL   HO414127   1.747   3.693  18.340
   23AGAL    C614128   1.774   3.636  18.105
   23AGAL   H6114129   1.754   3.562  18.025
   23AGAL   H6214130   1.858   3.700  18.072
   23AGAL    O614131   1.815   3.565  18.223
   23AGAL   HO614132   1.877   3.495  18.200
   24ARHM    C114133   1.196   3.831  18.358
   24ARHM    H114134   1.212   3.722  18.368
   24ARHM    C514135   1.032   3.985  18.283
   24ARHM    H514136   1.106   4.030  18.214
   24ARHM    O514137   1.065   3.847  18.303
   24ARHM    C214138   1.207   3.899  18.493
   24ARHM    H214139   1.312   3.893  18.527
   24ARHM    O214140   1.122   3.836  18.591
   24ARHM    C314141   1.173   4.045  18.477
   24ARHM    H314142   1.246   4.092  18.408
   24ARHM    O314143   1.181   4.113  18.602
   24ARHM   HO314144   1.138   4.198  18.588
   24ARHM    C414145   1.035   4.059  18.416
   24ARHM    H414146   0.960   4.011  18.484
   24ARHM    O414147   0.998   4.196  18.399
   24ARHM   HO414148   0.936   4.205  18.327
   24ARHM    C614149   0.895   3.987  18.213
   24ARHM   H6114150   0.868   4.090  18.181
   24ARHM   H6214151   0.898   3.923  18.122
   24ARHM   H6314152   0.816   3.948  18.280
   25ARHM    C114153   1.178   3.721  18.649
   25ARHM    H114154   1.253   3.676  18.580
   25ARHM    C514155   0.986   3.655  18.771
   25ARHM    H514156   0.933   3.747  18.738
   25ARHM    O514157   1.082   3.617  18.670
   25ARHM    C214158   1.252   3.758  18.776
   25ARHM    H214159   1.315   3.847  18.757
   25ARHM    O214160   1.335   3.651  18.824
   25ARHM    C314161   1.154   3.798  18.883
   25ARHM    H314162   1.099   3.888  18.849
   25ARHM    O314163   1.229   3.830  19.002
   25ARHM    C414164   1.057   3.683  18.904
   25ARHM    H414165   1.114   3.592  18.934
   25ARHM    O414166   0.963   3.713  19.006
   25ARHM   HO414167   0.896   3.645  19.012
   25ARHM    C614168   0.883   3.541  18.777
   25ARHM   H6114169   0.839   3.523  18.677
   25ARHM   H6214170   0.932   3.447  18.812
   25ARHM   H6314171   0.800   3.566  18.847
   26BMANN   C114172   1.461   3.643  18.763
   26BMANN   H114173   1.493   3.741  18.722
   26BMANN   C514174   1.589   3.532  18.594
   26BMANN   H514175   1.616   3.632  18.554
   26BMANN   O514176   1.460   3.544  18.659
   26BMANN   C214177   1.558   3.598  18.870
   26BMANN   H214178   1.558   3.678  18.948
   26BMANN    N14179   1.517   3.473  18.933
   26BMANN   HN14180   1.472   3.407  18.874
   26BMANN    C14181   1.538   3.444  19.063
   26BMANN    O14182   1.588   3.523  19.142
   26BMANN   CT14183   1.495   3.307  19.107
   26BMANN  HT114184   1.431   3.258  19.030
   26BMANN  HT214185   1.438   3.315  19.202
   26BMANN  HT314186   1.584   3.244  19.125
   26BMANN   C314187   1.696   3.594  18.807
   26BMANN   H314188   1.716   3.693  18.762
   26BMANN   O314189   1.798   3.572  18.903
   26BMANN  HO314190   1.880   3.560  18.854
   26BMANN   C414191   1.696   3.491  18.695
   26BMANN   H414192   1.672   3.391  18.737
   26BMANN   O414193   1.824   3.485  18.632
   26BMANN  HO414194   1.856   3.395  18.629
   26BMANN   C614195   1.576   3.438  18.475
   26BMANN  H6114196   1.494   3.475  18.409
   26BMANN  H6214197   1.669   3.440  18.415
   26BMANN   O614198   1.547   3.303  18.512
   26BMANN  HO614199   1.628   3.251  18.514
   27BGLCN   C114200   1.172   3.927  19.085
   27BGLCN   H114201   1.061   3.925  19.079
   27BGLCN   C514202   1.162   4.158  19.137
   27BGLCN   H514203   1.051   4.149  19.131
   27BGLCN   O514204   1.221   4.057  19.052
   27BGLCN   C214205   1.215   3.893  19.227
   27BGLCN   H214206   1.326   3.902  19.231
   27BGLCN    N14207   1.181   3.755  19.258
   27BGLCN   HN14208   1.107   3.715  19.205
   27BGLCN    C14209   1.251   3.677  19.342
   27BGLCN    O14210   1.349   3.717  19.404
   27BGLCN   CT14211   1.205   3.534  19.356
   27BGLCN  HT114212   1.112   3.517  19.297
   27BGLCN  HT214213   1.184   3.513  19.463
   27BGLCN  HT314214   1.285   3.466  19.320
   27BGLCN   C314215   1.155   3.994  19.323
   27BGLCN   H314216   1.045   3.990  19.309
   27BGLCN   O314217   1.187   3.953  19.457
   27BGLCN   C414218   1.202   4.133  19.282
   27BGLCN   H414219   1.312   4.138  19.290
   27BGLCN   O414220   1.145   4.235  19.363
   27BGLCN  HO414221   1.050   4.225  19.360
   27BGLCN   C614222   1.199   4.293  19.080
   27BGLCN  H6114223   1.175   4.374  19.152
   27BGLCN  H6214224   1.308   4.297  19.059
   27BGLCN   O614225   1.126   4.319  18.959
   27BGLCN  HO614226   1.165   4.393  18.912
   28AGAL    C114227   1.120   4.014   0.092
   28AGAL    H114228   1.161   4.116   0.108
   28AGAL    C514229   0.913   3.896   0.058
   28AGAL    H514230   0.962   3.838  19.449
   28AGAL    O514231   0.978   4.025   0.069
   28AGAL    C214232   1.140   3.937   0.222
   28AGAL    H214233   1.078   3.993   0.295
   28AGAL    O214234   1.277   3.935   0.270
   28AGAL    C314235   1.080   3.798   0.210
   28AGAL    H314236   1.127   3.749   0.122
   28AGAL    O314237   1.109   3.715   0.323
   28AGAL   HO314238   1.184   3.659   0.302
   28AGAL    C414239   0.931   3.812   0.185
   28AGAL    H414240   0.890   3.710   0.163
   28AGAL    O414241   0.859   3.864   0.297
   28AGAL   HO414242   0.772   3.824   0.301
   28AGAL    C614243   0.769   3.917   0.014
   28AGAL   H6114244   0.769   3.955  19.382
   28AGAL   H6214245   0.715   3.820   0.014
   28AGAL    O614246   0.699   4.010   0.096
   28AGAL   HO614247   0.758   4.083   0.115
   29ARHM    C114248   1.284   3.970   0.406
   29ARHM    H114249   1.191   3.937   0.457
   29ARHM    C514250   1.421   4.164   0.374
   29ARHM    H514251   1.430   4.143   0.265
   29ARHM    O514252   1.297   4.113   0.423
   29ARHM    C214253   1.398   3.901   0.479
   29ARHM    H214254   1.391   3.792   0.460
   29ARHM    O214255   1.388   3.928   0.620
   29ARHM    C314256   1.533   3.949   0.429
   29ARHM    H314257   1.542   3.924   0.321
   29ARHM    O314258   1.639   3.883   0.499
   29ARHM   HO314259   1.719   3.883   0.447
   29ARHM    C414260   1.538   4.099   0.447
   29ARHM    H414261   1.527   4.122   0.555
   29ARHM    O414262   1.663   4.155   0.406
   29ARHM   HO414263   1.677   4.142   0.312
   29ARHM    C614264   1.416   4.316   0.394
   29ARHM   H6114265   1.331   4.360   0.338
   29ARHM   H6214266   1.400   4.339   0.502
   29ARHM   H6314267   1.510   4.364   0.360
   30ARHM    C114268   1.318   3.831   0.695
   30ARHM    H114269   1.354   3.729   0.668
   30ARHM    C514270   1.122   3.968   0.713
   30ARHM    H514271   1.171   4.047   0.652
   30ARHM    O514272   1.176   3.839   0.677
   30ARHM    C214273   1.350   3.856   0.841
   30ARHM    H214274   1.460   3.859   0.853
   30ARHM    O214275   1.293   3.753   0.921
   30ARHM    C314276   1.296   3.991   0.885
   30ARHM    H314277   1.342   4.067   0.819
   30ARHM    O314278   1.340   4.024   1.019
   30ARHM    C414279   1.147   3.998   0.860
   30ARHM    H414280   1.094   3.921   0.921
   30ARHM    O414281   1.096   4.127   0.894
   30ARHM   HO414282   1.043   4.165   0.824
   30ARHM    C614283   0.973   3.962   0.674
   30ARHM   H6114284   0.923   4.060   0.691
   30ARHM   H6214285   0.962   3.936   0.567
   30ARHM   H6314286   0.921   3.885   0.734
   31BMANN   C114287   1.377   3.644   0.949
   31BMANN   H114288   1.482   3.677   0.962
   31BMANN   C514289   1.452   3.428   0.878
   31BMANN   H514290   1.557   3.462   0.886
   31BMANN   O514291   1.368   3.542   0.849
   31BMANN   C214292   1.324   3.585   1.077
   31BMANN   H214293   1.333   3.664   1.155
   31BMANN    N14294   1.183   3.548   1.065
   31BMANN   HN14295   1.154   3.514   0.976
   31BMANN    C14296   1.094   3.557   1.164
   31BMANN    O14297   1.126   3.595   1.276
   31BMANN   CT14298   0.953   3.519   1.131
   31BMANN  HT114299   0.952   3.425   1.072
   31BMANN  HT214300   0.904   3.599   1.073
   31BMANN  HT314301   0.896   3.502   1.225
   31BMANN   C314302   1.414   3.471   1.118
   31BMANN   H314303   1.518   3.508   1.124
   31BMANN   O314304   1.380   3.423   1.247
   31BMANN  HO314305   1.285   3.431   1.260
   31BMANN   C414306   1.410   3.364   1.010
   31BMANN   H414307   1.307   3.324   1.001
   31BMANN   O414308   1.498   3.256   1.042
   31BMANN  HO414309   1.452   3.200   1.105
   31BMANN   C614310   1.440   3.331   0.762
   31BMANN  H6114311   1.502   3.241   0.780
   31BMANN  H6214312   1.334   3.297   0.754
   31BMANN   O614313   1.480   3.390   0.638
   31BMANN  HO614314   1.575   3.400   0.636
   32BGLCN   C114315   1.265   3.972   1.128
   32BGLCN   H114316   1.233   3.868   1.108
   32BGLCN   C514317   1.071   3.999   1.267
   32BGLCN   H514318   1.037   3.897   1.241
   32BGLCN   O514319   1.151   4.052   1.159
   32BGLCN   C214320   1.354   3.975   1.252
   32BGLCN   H214321   1.367   4.081   1.280
   32BGLCN    N14322   1.486   3.916   1.232
   32BGLCN   HN14323   1.494   3.817   1.242
   32BGLCN    C14324   1.597   3.991   1.218
   32BGLCN    O14325   1.593   4.113   1.209
   32BGLCN   CT14326   1.728   3.919   1.209
   32BGLCN  HT114327   1.730   3.856   1.118
   32BGLCN  HT214328   1.746   3.857   1.300
   32BGLCN  HT314329   1.810   3.994   1.202
   32BGLCN   C314330   1.278   3.909   1.365
   32BGLCN   H314331   1.244   3.811   1.328
   32BGLCN   O314332   1.358   3.889   1.483
   32BGLCN   C414333   1.156   3.994   1.393
   32BGLCN   H414334   1.189   4.097   1.417
   32BGLCN   O414335   1.081   3.947   1.504
   32BGLCN  HO414336   1.114   3.995   1.580
   32BGLCN   C614337   0.950   4.089   1.281
   32BGLCN  H6114338   0.885   4.053   1.364
   32BGLCN  H6214339   0.982   4.192   1.305
   32BGLCN   O614340   0.872   4.091   1.161
   32BGLCN  HO614341   0.933   4.108   1.088
   33AGAL    C114342   1.342   3.758   1.535
   33AGAL    H114343   1.237   3.724   1.524
   33AGAL    C514344   1.568   3.696   1.483
   33AGAL    H514345   1.587   3.801   1.452
   33AGAL    O514346   1.428   3.668   1.463
   33AGAL    C214347   1.375   3.751   1.683
   33AGAL    H214348   1.357   3.646   1.714
   33AGAL    O214349   1.283   3.836   1.755
   33AGAL    C314350   1.521   3.784   1.707
   33AGAL    H314351   1.540   3.888   1.671
   33AGAL    O314352   1.557   3.781   1.845
   33AGAL   HO314353   1.555   3.689   1.871
   33AGAL    C414354   1.608   3.687   1.629
   33AGAL    H414355   1.714   3.719   1.639
   33AGAL    O414356   1.598   3.554   1.679
   33AGAL   HO414357   1.596   3.494   1.605
   33AGAL    C614358   1.650   3.607   1.390
   33AGAL   H6114359   1.630   3.636   1.285
   33AGAL   H6214360   1.758   3.623   1.410
   33AGAL    O614361   1.620   3.468   1.405
   33AGAL   HO614362   1.531   3.450   1.374
   34ARHM    C114363   1.238   3.782   1.877
   34ARHM    H114364   1.325   3.748   1.936
   34ARHM    C514365   1.028   3.704   1.790
   34ARHM    H514366   1.053   3.742   1.689
   34ARHM    O514367   1.150   3.671   1.858
   34ARHM    C214368   1.166   3.892   1.953
   34ARHM    H214369   1.234   3.980   1.959
   34ARHM    O214370   1.130   3.855   2.088
   34ARHM    C314371   1.040   3.933   1.880
   34ARHM    H314372   1.068   3.966   1.777
   34ARHM    O314373   0.974   4.042   1.944
   34ARHM   HO314374   0.964   4.116   1.883
   34ARHM    C414375   0.951   3.811   1.867
   34ARHM    H414376   0.928   3.772   1.968
   34ARHM    O414377   0.826   3.842   1.804
   34ARHM   HO414378   0.789   3.915   1.854
   34ARHM    C614379   0.954   3.570   1.774
   34ARHM   H6114380   0.924   3.530   1.873
   34ARHM   H6214381   0.862   3.584   1.712
   34ARHM   H6314382   1.019   3.496   1.724
   35ARHM    C114383   1.233   3.813   2.173
   35ARHM    H114384   1.326   3.870   2.152
   35ARHM    C514385   1.139   3.593   2.180
   35ARHM    H514386   1.061   3.624   2.108
   35ARHM    O514387   1.258   3.672   2.160
   35ARHM    C214388   1.184   3.841   2.313
   35ARHM    H214389   1.157   3.949   2.318
   35ARHM    O214390   1.281   3.813   2.415
   35ARHM    C314391   1.059   3.762   2.342
   35ARHM    H314392   0.979   3.792   2.271
   35ARHM    O314393   1.010   3.792   2.473
   35ARHM   HO314394   1.075   3.761   2.537
   35ARHM    C414395   1.089   3.615   2.322
   35ARHM    H414396   1.171   3.586   2.392
   35ARHM    O414397   0.978   3.529   2.352
   35ARHM   HO414398   0.898   3.566   2.315
   35ARHM    C614399   1.177   3.447   2.147
   35ARHM   H6114400   1.213   3.441   2.042
   35ARHM   H6214401   1.258   3.411   2.214
   35ARHM   H6314402   1.089   3.381   2.158
   36BMANN   C114403   1.395   3.897   2.416
   36BMANN   H114404   1.371   3.997   2.374
   36BMANN   C514405   1.622   3.919   2.348
   36BMANN   H514406   1.596   4.019   2.307
   36BMANN   O514407   1.503   3.837   2.344
   36BMANN   C214408   1.436   3.907   2.561
   36BMANN   H214409   1.352   3.957   2.613
   36BMANN    N14410   1.456   3.777   2.623
   36BMANN   HN14411   1.482   3.703   2.561
   36BMANN    C14412   1.441   3.754   2.754
   36BMANN    O14413   1.408   3.843   2.831
   36BMANN   CT14414   1.469   3.614   2.802
   36BMANN  HT114415   1.571   3.583   2.772
   36BMANN  HT214416   1.395   3.543   2.758
   36BMANN  HT314417   1.461   3.610   2.912
   36BMANN   C314418   1.557   3.999   2.570
   36BMANN   H314419   1.530   4.097   2.526
   36BMANN   O314420   1.591   4.023   2.707
   36BMANN  HO314421   1.520   3.988   2.761
   36BMANN   C414422   1.671   3.938   2.491
   36BMANN   H414423   1.699   3.840   2.534
   36BMANN   O414424   1.787   4.021   2.490
   36BMANN  HO414425   1.785   4.081   2.565
   36BMANN   C614426   1.726   3.859   2.253
   36BMANN  H6114427   1.679   3.841   2.154
   36BMANN  H6214428   1.809   3.932   2.238
   36BMANN   O614429   1.780   3.736   2.301
   36BMANN  HO614430   1.849   3.754   2.366
    1ECLIP HB6S14431   5.933   6.432  11.837
    1ECLIP  OB614432   6.106   6.469  11.948
    1ECLIP  CB614433   6.007   6.514  11.851
    1ECLIP HB6R14434   5.951   6.603  11.887
    1ECLIP  CB514435   6.070   6.544  11.716
    1ECLIP  OB514436   6.143   6.425  11.680
    1ECLIP  HB514437   6.142   6.627  11.729
    1ECLIP  CB114438   6.215   6.444  11.558
    1ECLIP  HB114439   6.277   6.536  11.570
    1ECLIP  OA614440   6.307   6.343  11.531
    1ECLIP  CA614441   6.258   6.209  11.536
    1ECLIP HA6R14442   6.147   6.204  11.530
    1ECLIP HA6S14443   6.290   6.165  11.634
    1ECLIP  CB414444   5.968   6.577  11.606
    1ECLIP  HB414445   5.892   6.497  11.599
    1ECLIP  OB414446   5.912   6.704  11.639
    1ECLIP   PB14447   5.753   6.744  11.648
    1ECLIP OPB414448   5.747   6.884  11.590
    1ECLIP OPB314449   5.722   6.757  11.796
    1ECLIP OPB214450   5.669   6.642  11.576
    1ECLIP  CB314451   6.041   6.591  11.473
    1ECLIP  OB314452   5.947   6.596  11.367
    1ECLIP  HB314453   6.110   6.678  11.474
    1ECLIP  C7114454   5.906   6.712  11.321
    1ECLIP  O7114455   5.955   6.820  11.351
    1ECLIP  C7214456   5.847   6.687  11.182
    1ECLIP H72R14457   5.930   6.655  11.116
    1ECLIP H72S14458   5.808   6.784  11.146
    1ECLIP  CB214459   6.122   6.466  11.442
    1ECLIP  HB214460   6.053   6.380  11.434
    1ECLIP  NB214461   6.198   6.479  11.318
    1ECLIP HNB214462   6.287   6.524  11.323
    1ECLIP  CA414463   6.442   6.196  11.362
    1ECLIP  HA414464   6.408   6.295  11.324
    1ECLIP  OA414465   6.545   6.214  11.459
    1ECLIP HOA414466   6.629   6.194  11.418
    1ECLIP  CA514467   6.321   6.128  11.423
    1ECLIP  HA514468   6.349   6.028  11.462
    1ECLIP  OA514469   6.221   6.114  11.320
    1ECLIP  CA114470   6.263   6.033  11.209
    1ECLIP  HA114471   6.180   6.032  11.135
    1ECLIP  OA114472   6.296   5.902  11.252
    1ECLIP OPA214473   6.235   5.654  11.310
    1ECLIP OPA314474   6.060   5.808  11.341
    1ECLIP OPA414475   6.126   5.745  11.121
    1ECLIP   PA14476   6.183   5.785  11.256
    1ECLIP  CA314477   6.493   6.118  11.243
    1ECLIP  HA314478   6.523   6.017  11.279
    1ECLIP  OA314479   6.614   6.187  11.209
    1ECLIP  C3114480   6.615   6.294  11.130
    1ECLIP  O3114481   6.542   6.313  11.034
    1ECLIP  C3214482   6.704   6.403  11.192
    1ECLIP H32R14483   6.786   6.424  11.120
    1ECLIP H32S14484   6.750   6.362  11.285
    1ECLIP  CA214485   6.383   6.100  11.140
    1ECLIP  HA214486   6.346   6.199  11.107
    1ECLIP  NA214487   6.431   6.028  11.023
    1ECLIP HNA214488   6.524   5.992  11.030
    1ECLIP  C7314489   5.737   6.579  11.182
    1ECLIP H73R14490   5.670   6.596  11.269
    1ECLIP  O7314491   5.800   6.451  11.188
    1ECLIP  C8114492   5.726   6.351  11.233
    1ECLIP  O8114493   5.609   6.358  11.267
    1ECLIP  C8214494   5.788   6.218  11.187
    1ECLIP H82R14495   5.718   6.137  11.217
    1ECLIP H82S14496   5.885   6.204  11.240
    1ECLIP  C8314497   5.811   6.214  11.034
    1ECLIP H83R14498   5.891   6.286  11.009
    1ECLIP H83S14499   5.719   6.246  10.980
    1ECLIP  C8414500   5.854   6.076  10.981
    1ECLIP H84R14501   5.770   6.004  10.990
    1ECLIP H84S14502   5.939   6.038  11.043
    1ECLIP  C8514503   5.901   6.087  10.836
    1ECLIP H85R14504   5.996   6.145  10.835
    1ECLIP H85S14505   5.826   6.143  10.777
    1ECLIP  C8614506   5.928   5.952  10.767
    1ECLIP H86R14507   5.832   5.898  10.753
    1ECLIP H86S14508   5.992   5.891  10.835
    1ECLIP  C8714509   6.001   5.966  10.632
    1ECLIP H87R14510   6.007   5.867  10.583
    1ECLIP H87S14511   6.105   5.999  10.653
    1ECLIP  C8814512   5.937   6.069  10.537
    1ECLIP H88R14513   5.943   6.168  10.587
    1ECLIP H88S14514   5.829   6.045  10.524
    1ECLIP  C8914515   6.005   6.082  10.400
    1ECLIP H89R14516   6.115   6.089  10.414
    1ECLIP H89S14517   5.971   6.178  10.357
    1ECLIP C81014518   5.971   5.968  10.303
    1ECLIPH810R14519   5.863   5.944  10.311
    1ECLIPH810S14520   6.027   5.877  10.335
    1ECLIP C81114521   6.006   6.000  10.156
    1ECLIPH811R14522   5.990   5.909  10.095
    1ECLIPH811S14523   6.114   6.026  10.151
    1ECLIP C81214524   5.925   6.116  10.093
    1ECLIPH812R14525   5.962   6.133   9.990
    1ECLIPH812S14526   5.943   6.209  10.150
    1ECLIP C81314527   5.773   6.090  10.088
    1ECLIPH813R14528   5.753   6.001  10.024
    1ECLIPH813S14529   5.737   6.067  10.190
    1ECLIP C81414530   5.694   6.210  10.035
    1ECLIPH814R14531   5.728   6.239   9.934
    1ECLIPH814S14532   5.707   6.297  10.103
    1ECLIPH814T14533   5.585   6.186  10.032
    1ECLIP  C7414534   5.650   6.581  11.052
    1ECLIP H74R14535   5.587   6.672  11.048
    1ECLIP H74S14536   5.580   6.495  11.059
    1ECLIP  C7514537   5.725   6.568  10.918
    1ECLIP H75R14538   5.653   6.524  10.845
    1ECLIP H75S14539   5.809   6.496  10.928
    1ECLIP  C7614540   5.774   6.701  10.857
    1ECLIP H76R14541   5.866   6.735  10.909
    1ECLIP H76S14542   5.696   6.778  10.871
    1ECLIP  C7714543   5.803   6.686  10.707
    1ECLIP H77R14544   5.712   6.645  10.658
    1ECLIP H77S14545   5.885   6.612  10.694
    1ECLIP  C7814546   5.842   6.817  10.638
    1ECLIP H78R14547   5.755   6.886  10.639
    1ECLIP H78S14548   5.924   6.866  10.695
    1ECLIP  C7914549   5.890   6.798  10.493
    1ECLIP H79R14550   5.988   6.747  10.496
    1ECLIP H79S14551   5.904   6.897  10.446
    1ECLIP C71014552   5.796   6.713  10.405
    1ECLIPH710R14553   5.790   6.611  10.449
    1ECLIPH710S14554   5.694   6.756  10.407
    1ECLIP C71114555   5.844   6.699  10.260
    1ECLIPH711R14556   5.839   6.798  10.210
    1ECLIPH711S14557   5.951   6.667  10.260
    1ECLIP C71214558   5.763   6.595  10.182
    1ECLIPH712R14559   5.658   6.631  10.171
    1ECLIPH712S14560   5.759   6.502  10.242
    1ECLIP C71314561   5.822   6.561  10.044
    1ECLIPH713R14562   5.918   6.509  10.061
    1ECLIPH713S14563   5.754   6.488   9.994
    1ECLIP C71414564   5.845   6.680   9.951
    1ECLIPH714R14565   5.749   6.732   9.928
    1ECLIPH714S14566   5.915   6.752   9.996
    1ECLIPH714T14567   5.887   6.645   9.854
    1ECLIP  C5114568   6.161   6.435  11.196
    1ECLIP  O5114569   6.066   6.362  11.176
    1ECLIP  C5214570   6.248   6.486  11.084
    1ECLIP H52R14571   6.232   6.596  11.078
    1ECLIP H52S14572   6.353   6.466  11.116
    1ECLIP  C5314573   6.230   6.424  10.944
    1ECLIP H53R14574   6.232   6.313  10.951
    1ECLIP  O5314575   6.342   6.476  10.872
    1ECLIP  C6114576   6.409   6.392  10.795
    1ECLIP  O6114577   6.365   6.291  10.745
    1ECLIP  C6214578   6.527   6.472  10.738
    1ECLIP H62R14579   6.593   6.501  10.822
    1ECLIP H62S14580   6.483   6.565  10.695
    1ECLIP  C6314581   6.608   6.394  10.632
    1ECLIP H63R14582   6.547   6.313  10.587
    1ECLIP H63S14583   6.695   6.346  10.682
    1ECLIP  C6414584   6.654   6.481  10.515
    1ECLIP H64R14585   6.724   6.421  10.453
    1ECLIP H64S14586   6.712   6.567  10.556
    1ECLIP  C6514587   6.536   6.528  10.430
    1ECLIP H65R14588   6.472   6.597  10.490
    1ECLIP H65S14589   6.474   6.439  10.406
    1ECLIP  C6614590   6.572   6.600  10.300
    1ECLIP H66R14591   6.629   6.692  10.324
    1ECLIP H66S14592   6.479   6.632  10.249
    1ECLIP  C6714593   6.655   6.516  10.203
    1ECLIP H67R14594   6.753   6.489  10.249
    1ECLIP H67S14595   6.675   6.581  10.115
    1ECLIP  C6814596   6.585   6.389  10.155
    1ECLIP H68R14597   6.486   6.418  10.113
    1ECLIP H68S14598   6.566   6.321  10.241
    1ECLIP  C6914599   6.667   6.318  10.048
    1ECLIP H69R14600   6.745   6.256  10.097
    1ECLIP H69S14601   6.719   6.396   9.988
    1ECLIP C61014602   6.583   6.233   9.952
    1ECLIPH610R14603   6.481   6.274   9.943
    1ECLIPH610S14604   6.576   6.131   9.994
    1ECLIP C61114605   6.647   6.229   9.813
    1ECLIPH611R14606   6.757   6.222   9.826
    1ECLIPH611S14607   6.611   6.137   9.761
    1ECLIP C61214608   6.612   6.350   9.729
    1ECLIPH612R14609   6.514   6.335   9.679
    1ECLIPH612S14610   6.604   6.439   9.796
    1ECLIPH612T14611   6.690   6.369   9.651
    1ECLIP  C5414612   6.100   6.471  10.875
    1ECLIP H54R14613   6.100   6.582  10.867
    1ECLIP H54S14614   6.017   6.442  10.943
    1ECLIP  C5514615   6.073   6.408  10.737
    1ECLIP H55R14616   5.963   6.399  10.722
    1ECLIP H55S14617   6.114   6.305  10.737
    1ECLIP  C5614618   6.132   6.488  10.620
    1ECLIP H56R14619   6.240   6.508  10.638
    1ECLIP H56S14620   6.082   6.587  10.614
    1ECLIP  C5714621   6.119   6.414  10.486
    1ECLIP H57R14622   6.012   6.389  10.468
    1ECLIP H57S14623   6.175   6.318  10.494
    1ECLIP  C5814624   6.174   6.497  10.371
    1ECLIP H58R14625   6.115   6.591  10.365
    1ECLIP H58S14626   6.278   6.527  10.394
    1ECLIP  C5914627   6.171   6.425  10.236
    1ECLIP H59R14628   6.067   6.388  10.218
    1ECLIP H59S14629   6.239   6.337  10.238
    1ECLIP C51014630   6.210   6.520  10.122
    1ECLIPH510R14631   6.314   6.556  10.135
    1ECLIPH510S14632   6.144   6.609  10.131
    1ECLIP C51114633   6.193   6.460   9.982
    1ECLIPH511R14634   6.280   6.397   9.955
    1ECLIPH511S14635   6.104   6.393   9.985
    1ECLIP C51214636   6.166   6.568   9.877
    1ECLIPH512R14637   6.113   6.523   9.791
    1ECLIPH512S14638   6.098   6.644   9.922
    1ECLIP C51314639   6.290   6.644   9.829
    1ECLIPH513R14640   6.365   6.573   9.789
    1ECLIPH513S14641   6.337   6.696   9.915
    1ECLIP C51414642   6.252   6.747   9.721
    1ECLIPH514R14643   6.169   6.811   9.758
    1ECLIPH514S14644   6.337   6.812   9.695
    1ECLIPH514T14645   6.217   6.695   9.629
    1ECLIP  C3314646   6.631   6.535  11.228
    1ECLIP H33R14647   6.702   6.599  11.285
    1ECLIP  O3314648   6.520   6.508  11.311
    1ECLIP HO3314649   6.541   6.461  11.392
    1ECLIP  C3414650   6.585   6.612  11.101
    1ECLIP H34R14651   6.529   6.543  11.035
    1ECLIP H34S14652   6.675   6.643  11.044
    1ECLIP  C3514653   6.494   6.735  11.122
    1ECLIP H35R14654   6.550   6.820  11.166
    1ECLIP H35S14655   6.413   6.709  11.193
    1ECLIP  C3614656   6.431   6.778  10.989
    1ECLIP H36R14657   6.362   6.698  10.955
    1ECLIP H36S14658   6.510   6.783  10.911
    1ECLIP  C3714659   6.349   6.908  10.996
    1ECLIP H37R14660   6.418   6.995  11.005
    1ECLIP H37S14661   6.287   6.906  11.088
    1ECLIP  C3814662   6.256   6.926  10.875
    1ECLIP H38R14663   6.183   6.842  10.875
    1ECLIP H38S14664   6.199   7.020  10.887
    1ECLIP  C3914665   6.329   6.928  10.740
    1ECLIP H39R14666   6.392   6.837  10.730
    1ECLIP H39S14667   6.396   7.016  10.736
    1ECLIP C31014668   6.233   6.932  10.620
    1ECLIPH310R14669   6.178   7.029  10.621
    1ECLIPH310S14670   6.159   6.850  10.630
    1ECLIP C31114671   6.307   6.915  10.487
    1ECLIPH311R14672   6.388   6.991  10.480
    1ECLIPH311S14673   6.355   6.815  10.486
    1ECLIP C31214674   6.215   6.929  10.365
    1ECLIPH312R14675   6.124   6.868  10.380
    1ECLIPH312S14676   6.183   7.036  10.356
    1ECLIP C31314677   6.282   6.884  10.235
    1ECLIPH313R14678   6.378   6.938  10.228
    1ECLIPH313S14679   6.305   6.775  10.244
    1ECLIP C31414680   6.198   6.908  10.110
    1ECLIPH314R14681   6.178   7.017  10.098
    1ECLIPH314S14682   6.251   6.872  10.020
    1ECLIPH314T14683   6.101   6.855  10.118
    1ECLIP  C1114684   6.359   6.001  10.913
    1ECLIP  O1114685   6.250   6.052  10.891
    1ECLIP  C1214686   6.416   5.895  10.820
    1ECLIP H12R14687   6.350   5.806  10.832
    1ECLIP H12S14688   6.519   5.867  10.852
    1ECLIP  C1314689   6.416   5.939  10.673
    1ECLIP H13R14690   6.324   5.995  10.650
    1ECLIP  O1314691   6.419   5.822  10.593
    1ECLIP HO1314692   6.414   5.842  10.499
    1ECLIP  C1414693   6.539   6.023  10.632
    1ECLIP H14R14694   6.630   5.974  10.673
    1ECLIP H14S14695   6.530   6.122  10.681
    1ECLIP  C1514696   6.560   6.040  10.479
    1ECLIP H15R14697   6.588   5.941  10.437
    1ECLIP H15S14698   6.648   6.106  10.463
    1ECLIP  C1614699   6.440   6.097  10.401
    1ECLIP H16R14700   6.436   6.206  10.420
    1ECLIP H16S14701   6.344   6.054  10.437
    1ECLIP  C1714702   6.449   6.071  10.249
    1ECLIP H17R14703   6.553   6.090  10.216
    1ECLIP H17S14704   6.383   6.142  10.196
    1ECLIP  C1814705   6.409   5.928  10.209
    1ECLIP H18R14706   6.469   5.857  10.269
    1ECLIP H18S14707   6.302   5.911  10.235
    1ECLIP  C1914708   6.432   5.894  10.061
    1ECLIP H19R14709   6.424   5.784  10.049
    1ECLIP H19S14710   6.536   5.922  10.033
    1ECLIP C11014711   6.333   5.959   9.963
    1ECLIPH110R14712   6.232   5.919   9.983
    1ECLIPH110S14713   6.329   6.069   9.979
    1ECLIP C11114714   6.370   5.929   9.817
    1ECLIPH111R14715   6.461   5.988   9.790
    1ECLIPH111S14716   6.398   5.822   9.809
    1ECLIP C11214717   6.258   5.958   9.716
    1ECLIPH112R14718   6.167   5.901   9.747
    1ECLIPH112S14719   6.232   6.066   9.719
    1ECLIP C11314720   6.297   5.916   9.574
    1ECLIPH113R14721   6.379   5.983   9.539
    1ECLIPH113S14722   6.337   5.813   9.578
    1ECLIP C11414723   6.182   5.923   9.473
    1ECLIPH114R14724   6.096   5.861   9.507
    1ECLIPH114S14725   6.148   6.028   9.463
    1ECLIPH114T14726   6.216   5.887   9.373
    2AKDO    C114727   6.163   6.691  12.020
    2AKDO   O1114728   6.078   6.784  12.015
    2AKDO   O1214729   6.287   6.704  12.003
    2AKDO    C214730   6.115   6.549  12.065
    2AKDO    C614731   5.933   6.428  12.165
    2AKDO    H614732   5.931   6.366  12.074
    2AKDO    O614733   5.987   6.557  12.132
    2AKDO    C314734   6.210   6.474  12.162
    2AKDO   H3114735   6.224   6.536  12.253
    2AKDO   H3214736   6.309   6.462  12.113
    2AKDO    C414737   6.157   6.338  12.200
    2AKDO    H414738   6.145   6.279  12.107
    2AKDO    O414739   6.240   6.270  12.296
    2AKDO    C514740   6.021   6.350  12.266
    2AKDO    H514741   5.980   6.247  12.272
    2AKDO    O514742   6.034   6.402  12.401
    2AKDO    C714743   5.788   6.456  12.199
    2AKDO    H714744   5.784   6.532  12.281
    2AKDO    O714745   5.718   6.337  12.241
    2AKDO   HO714746   5.652   6.327  12.172
    2AKDO    C814747   5.719   6.512  12.075
    2AKDO   H8114748   5.770   6.604  12.042
    2AKDO   H8214749   5.726   6.439  11.991
    2AKDO    O814750   5.581   6.543  12.100
    2AKDO   HO814751   5.552   6.588  12.020
    3AKDO    C114752   6.296   6.083  12.142
    3AKDO   O1114753   6.386   6.016  12.085
    3AKDO   O1214754   6.179   6.038  12.158
    3AKDO    C214755   6.343   6.183  12.253
    3AKDO    C614756   6.510   6.339  12.328
    3AKDO    H614757   6.425   6.405  12.356
    3AKDO    O614758   6.464   6.256  12.218
    3AKDO    C314759   6.371   6.098  12.378
    3AKDO   H3114760   6.446   6.020  12.352
    3AKDO   H3214761   6.279   6.044  12.408
    3AKDO    C414762   6.421   6.178  12.493
    3AKDO    H414763   6.346   6.255  12.522
    3AKDO    O414764   6.443   6.093  12.605
    3AKDO   HO414765   6.363   6.085  12.657
    3AKDO    C514766   6.546   6.250  12.446
    3AKDO    H514767   6.585   6.311  12.530
    3AKDO    O514768   6.647   6.159  12.403
    3AKDO   HO514769   6.631   6.144  12.310
    3AKDO    C714770   6.628   6.432  12.298
    3AKDO    H714771   6.723   6.376  12.308
    3AKDO    O714772   6.626   6.539  12.394
    3AKDO   HO714773   6.711   6.582  12.381
    3AKDO    C814774   6.624   6.492  12.159
    3AKDO   H8114775   6.614   6.412  12.082
    3AKDO   H8214776   6.538   6.561  12.148
    3AKDO    O814777   6.747   6.564  12.136
    3AKDO   HO814778   6.817   6.499  12.122
    4AHEP    C114779   5.939   6.355  12.494
    4AHEP    H114780   5.840   6.391  12.457
    4AHEP    C514781   6.042   6.149  12.571
    4AHEP    H514782   6.130   6.171  12.508
    4AHEP    O514783   5.926   6.212  12.509
    4AHEP    C214784   5.960   6.417  12.631
    4AHEP    H214785   5.982   6.524  12.615
    4AHEP    O214786   5.843   6.410  12.713
    4AHEP   HO214787   5.868   6.348  12.782
    4AHEP    C314788   6.080   6.357  12.702
    4AHEP    H314789   6.173   6.385  12.650
    4AHEP    O314790   6.075   6.403  12.839
    4AHEP    C414791   6.064   6.207  12.711
    4AHEP    H414792   5.974   6.184  12.774
    4AHEP    O414793   6.184   6.150  12.766
    4AHEP    P414794   6.189   6.050  12.898
    4AHEP  OP4214795   6.305   6.100  12.984
    4AHEP  OP4314796   6.211   5.908  12.848
    4AHEP  OP4414797   6.055   6.065  12.967
    4AHEP    C614798   6.022   5.997  12.577
    4AHEP    H614799   6.114   5.950  12.618
    4AHEP    O614800   5.913   5.966  12.667
    4AHEP   HO614801   5.960   5.951  12.749
    4AHEP    C714802   5.999   5.931  12.441
    4AHEP   H7114803   5.979   5.822  12.456
    4AHEP   H7214804   6.092   5.939  12.381
    4AHEP    O714805   5.891   5.988  12.366
    4AHEP   HO714806   5.880   6.074  12.407
    5AHEP    C114807   6.198   6.431  12.899
    5AHEP    H114808   6.279   6.380  12.843
    5AHEP    C514809   6.123   6.645  12.973
    5AHEP    H514810   6.023   6.610  12.938
    5AHEP    O514811   6.223   6.573  12.898
    5AHEP    C214812   6.199   6.384  13.043
    5AHEP    H214813   6.146   6.286  13.040
    5AHEP    O214814   6.328   6.343  13.090
    5AHEP   HO214815   6.321   6.250  13.068
    5AHEP    C314816   6.102   6.461  13.132
    5AHEP    H314817   5.999   6.440  13.097
    5AHEP    O314818   6.116   6.427  13.271
    5AHEP    C414819   6.128   6.609  13.122
    5AHEP    H414820   6.225   6.640  13.167
    5AHEP    O414821   6.017   6.679  13.177
    5AHEP    P414822   6.004   6.751  13.323
    5AHEP  OP4214823   5.856   6.742  13.356
    5AHEP  OP4314824   6.047   6.895  13.310
    5AHEP  OP4414825   6.088   6.675  13.423
    5AHEP    C614826   6.128   6.792  12.934
    5AHEP    H614827   6.053   6.849  12.994
    5AHEP    O614828   6.257   6.848  12.962
    5AHEP   HO614829   6.310   6.771  12.981
    5AHEP    C714830   6.090   6.802  12.786
    5AHEP   H7114831   6.011   6.880  12.778
    5AHEP   H7214832   6.044   6.709  12.748
    5AHEP    O714833   6.196   6.844  12.700
    6AHEP    C114834   6.269   6.740  12.636
    6AHEP    H114835   6.226   6.639  12.655
    6AHEP    C514836   6.317   6.898  12.462
    6AHEP    H514837   6.252   6.972  12.513
    6AHEP    O514838   6.271   6.764  12.494
    6AHEP    C214839   6.411   6.749  12.688
    6AHEP    H214840   6.407   6.735  12.798
    6AHEP    O214841   6.498   6.645  12.642
    6AHEP   HO214842   6.499   6.635  12.546
    6AHEP    C314843   6.462   6.887  12.659
    6AHEP    H314844   6.386   6.957  12.702
    6AHEP    O314845   6.584   6.921  12.727
    6AHEP   HO314846   6.655   6.871  12.687
    6AHEP    C414847   6.461   6.918  12.511
    6AHEP    H414848   6.528   6.848  12.457
    6AHEP    O414849   6.503   7.053  12.492
    6AHEP   HO414850   6.549   7.059  12.408
    6AHEP    C614851   6.300   6.928  12.313
    6AHEP    H614852   6.346   7.027  12.291
    6AHEP    O614853   6.371   6.831  12.236
    6AHEP   HO614854   6.306   6.770  12.200
    6AHEP    C714855   6.154   6.937  12.272
    6AHEP   H7114856   6.147   6.965  12.164
    6AHEP   H7214857   6.105   7.019  12.329
    6AHEP    O714858   6.078   6.817  12.294
    6AHEP   HO714859   6.066   6.777  12.208
    7AGLC    C114860   6.031   6.327  13.323
    7AGLC    H114861   5.933   6.329  13.272
    7AGLC    C514862   6.217   6.184  13.371
    7AGLC    H514863   6.284   6.263  13.330
    7AGLC    O514864   6.088   6.196  13.308
    7AGLC    C214865   6.011   6.349  13.472
    7AGLC    H214866   5.946   6.266  13.509
    7AGLC    O214867   5.939   6.469  13.499
    7AGLC   HO214868   5.994   6.543  13.471
    7AGLC    C314869   6.142   6.342  13.548
    7AGLC    H314870   6.209   6.421  13.508
    7AGLC    O314871   6.125   6.357  13.692
    7AGLC    C414872   6.201   6.206  13.520
    7AGLC    H414873   6.131   6.129  13.559
    7AGLC    O414874   6.327   6.188  13.583
    7AGLC   HO414875   6.352   6.096  13.569
    7AGLC    C614876   6.277   6.049  13.332
    7AGLC   H6114877   6.233   6.016  13.235
    7AGLC   H6214878   6.386   6.062  13.314
    7AGLC    O614879   6.261   5.948  13.432
    7AGLC   HO614880   6.311   5.871  13.402
    8AGLC    C114881   6.196   6.467  13.746
    8AGLC    H114882   6.294   6.478  13.696
    8AGLC    C514883   5.991   6.586  13.791
    8AGLC    H514884   5.935   6.497  13.755
    8AGLC    O514885   6.121   6.588  13.728
    8AGLC    C214886   6.217   6.453  13.896
    8AGLC    H214887   6.277   6.539  13.930
    8AGLC    O214888   6.283   6.331  13.931
    8AGLC    C314889   6.087   6.449  13.972
    8AGLC    H314890   6.029   6.362  13.934
    8AGLC    O314891   6.117   6.422  14.111
    8AGLC    C414892   6.008   6.574  13.942
    8AGLC    H414893   6.064   6.664  13.976
    8AGLC    O414894   5.881   6.572  14.008
    8AGLC   HO414895   5.829   6.498  13.977
    8AGLC    C614896   5.914   6.708  13.743
    8AGLC   H6114897   5.909   6.706  13.632
    8AGLC   H6214898   5.809   6.704  13.781
    8AGLC    O614899   5.973   6.831  13.785
    8AGLC   HO614900   6.045   6.850  13.725
    9AGAL    C114901   6.414   6.307  13.887
    9AGAL    H114902   6.418   6.305  13.776
    9AGAL    C514903   6.503   6.419  14.077
    9AGAL    H514904   6.398   6.443  14.106
    9AGAL    O514905   6.506   6.406  13.934
    9AGAL    C214906   6.446   6.171  13.944
    9AGAL    H214907   6.547   6.141  13.910
    9AGAL    O214908   6.349   6.083  13.881
    9AGAL    C314909   6.443   6.180  14.096
    9AGAL    H314910   6.340   6.207  14.127
    9AGAL    O314911   6.478   6.057  14.161
    9AGAL   HO314912   6.571   6.046  14.141
    9AGAL    C414913   6.539   6.287  14.144
    9AGAL    H414914   6.528   6.300  14.254
    9AGAL    O414915   6.674   6.248  14.120
    9AGAL   HO414916   6.722   6.326  14.093
    9AGAL    C614917   6.585   6.542  14.116
    9AGAL   H6114918   6.571   6.621  14.039
    9AGAL   H6214919   6.546   6.582  14.212
    9AGAL    O614920   6.724   6.514  14.132
    9AGAL   HO614921   6.778   6.576  14.082
   10AGAL    C114922   6.319   5.958  13.937
   10AGAL    H114923   6.414   5.907  13.963
   10AGAL    C514924   6.109   6.036  14.024
   10AGAL    H514925   6.130   6.133  13.975
   10AGAL    O514926   6.235   5.970  14.053
   10AGAL    C214927   6.245   5.873  13.834
   10AGAL    H214928   6.226   5.774  13.881
   10AGAL    O214929   6.328   5.847  13.720
   10AGAL   HO214930   6.277   5.855  13.639
   10AGAL    C314931   6.111   5.935  13.797
   10AGAL    H314932   6.129   6.035  13.752
   10AGAL    O314933   6.040   5.852  13.704
   10AGAL   HO314934   6.029   5.891  13.616
   10AGAL    C414935   6.029   5.952  13.924
   10AGAL    H414936   5.936   6.008  13.897
   10AGAL    O414937   5.989   5.826  13.977
   10AGAL   HO414938   5.990   5.766  13.902
   10AGAL    C614939   6.040   6.068  14.156
   10AGAL   H6114940   6.090   6.156  14.201
   10AGAL   H6214941   5.934   6.095  14.139
   10AGAL    O614942   6.049   5.960  14.250
   10AGAL   HO614943   6.122   5.907  14.217
   11BGLC    C114944   6.128   6.528  14.203
   11BGLC    H114945   6.027   6.571  14.221
   11BGLC    C514946   6.224   6.744  14.247
   11BGLC    H514947   6.122   6.786  14.259
   11BGLC    O514948   6.218   6.631  14.158
   11BGLC    C214949   6.183   6.475  14.336
   11BGLC    H214950   6.287   6.440  14.316
   11BGLC    O214951   6.112   6.363  14.389
   11BGLC   HO214952   6.169   6.286  14.388
   11BGLC    C314953   6.190   6.587  14.437
   11BGLC    H314954   6.088   6.625  14.458
   11BGLC    O314955   6.254   6.545  14.559
   11BGLC    C414956   6.277   6.697  14.382
   11BGLC    H414957   6.380   6.658  14.368
   11BGLC    O414958   6.282   6.804  14.476
   11BGLC   HO414959   6.266   6.765  14.562
   11BGLC    C614960   6.314   6.851  14.187
   11BGLC   H6114961   6.317   6.940  14.253
   11BGLC   H6214962   6.417   6.811  14.180
   11BGLC    O614963   6.275   6.892  14.055
   11BGLC   HO614964   6.182   6.914  14.050
   12BGLCN   C114965   6.173   6.532  14.672
   12BGLCN   H114966   6.093   6.457  14.653
   12BGLCN   C514967   6.042   6.651  14.831
   12BGLCN   H514968   5.962   6.575  14.820
   12BGLCN   O514969   6.119   6.659  14.709
   12BGLCN   C214970   6.269   6.485  14.780
   12BGLCN   H214971   6.344   6.567  14.791
   12BGLCN    N14972   6.340   6.366  14.736
   12BGLCN   HN14973   6.288   6.304  14.677
   12BGLCN    C14974   6.471   6.344  14.755
   12BGLCN    O14975   6.541   6.416  14.826
   12BGLCN   CT14976   6.529   6.224  14.685
   12BGLCN  HT114977   6.602   6.174  14.752
   12BGLCN  HT214978   6.582   6.257  14.593
   12BGLCN  HT314979   6.449   6.152  14.658
   12BGLCN   C314980   6.196   6.474  14.914
   12BGLCN   H314981   6.117   6.396  14.904
   12BGLCN   O314982   6.287   6.437  15.020
   12BGLCN   C414983   6.135   6.609  14.945
   12BGLCN   H414984   6.217   6.684  14.951
   12BGLCN   O414985   6.065   6.611  15.069
   12BGLCN  HO414986   6.128   6.600  15.140
   12BGLCN   C614987   5.977   6.787  14.850
   12BGLCN  H6114988   5.938   6.795  14.954
   12BGLCN  H6214989   6.051   6.868  14.835
   12BGLCN   O614990   5.865   6.806  14.763
   12BGLCN  HO614991   5.893   6.816  14.672
   13AGAL    C114992   6.235   6.356  15.124
   13AGAL    H114993   6.131   6.384  15.148
   13AGAL    C514994   6.370   6.168  15.058
   13AGAL    H514995   6.410   6.234  14.977
   13AGAL    O514996   6.237   6.216  15.090
   13AGAL    C214997   6.322   6.372  15.248
   13AGAL    H214998   6.284   6.301  15.323
   13AGAL    O214999   6.311   6.506  15.303
   13AGAL    C315000   6.466   6.331  15.215
   13AGAL    H315001   6.500   6.392  15.128
   13AGAL    O315002   6.557   6.358  15.322
   13AGAL   HO315003   6.645   6.375  15.287
   13AGAL    C415004   6.465   6.184  15.176
   13AGAL    H415005   6.568   6.157  15.142
   13AGAL    O415006   6.433   6.097  15.285
   13AGAL   HO415007   6.338   6.093  15.295
   13AGAL    C615008   6.362   6.029  14.997
   13AGAL   H6115009   6.293   6.032  14.910
   13AGAL   H6215010   6.462   6.000  14.959
   13AGAL    O615011   6.316   5.929  15.088
   13AGAL   HO615012   6.383   5.915  15.155
   14ARHM    C115013   6.258   6.516  15.433
   14ARHM    H115014   6.178   6.440  15.445
   14ARHM    C515015   6.285   6.753  15.446
   14ARHM    H515016   6.330   6.755  15.345
   14ARHM    O515017   6.193   6.643  15.454
   14ARHM    C215018   6.366   6.492  15.538
   14ARHM    H215019   6.417   6.397  15.514
   14ARHM    O215020   6.322   6.482  15.675
   14ARHM    C315021   6.466   6.605  15.530
   14ARHM    H315022   6.511   6.606  15.428
   14ARHM    O315023   6.573   6.588  15.622
   14ARHM   HO315024   6.538   6.556  15.705
   14ARHM    C415025   6.395   6.738  15.550
   14ARHM    H415026   6.347   6.737  15.650
   14ARHM    O415027   6.486   6.847  15.546
   14ARHM   HO415028   6.574   6.809  15.544
   14ARHM    C615029   6.199   6.879  15.464
   14ARHM   H6115030   6.121   6.884  15.385
   14ARHM   H6215031   6.148   6.878  15.562
   14ARHM   H6315032   6.262   6.971  15.457
   15ARHM    C115033   6.229   6.380  15.701
   15ARHM    H115034   6.245   6.294  15.632
   15ARHM    C515035   6.067   6.539  15.774
   15ARHM    H515036   6.136   6.622  15.748
   15ARHM    O515037   6.095   6.427  15.689
   15ARHM    C215038   6.250   6.333  15.844
   15ARHM    H215039   6.354   6.297  15.856
   15ARHM    O215040   6.161   6.222  15.863
   15ARHM    C315041   6.227   6.449  15.939
   15ARHM    H315042   6.298   6.529  15.911
   15ARHM    O315043   6.254   6.409  16.074
   15ARHM    C415044   6.086   6.499  15.920
   15ARHM    H415045   6.015   6.417  15.943
   15ARHM    O415046   6.057   6.609  16.007
   15ARHM   HO415047   5.962   6.621  16.008
   15ARHM    C615048   5.924   6.584  15.740
   15ARHM   H6115049   5.895   6.676  15.797
   15ARHM   H6215050   5.916   6.608  15.632
   15ARHM   H6315051   5.851   6.503  15.763
   16BMANN   C115052   6.160   6.155  15.986
   16BMANN   H115053   6.116   6.220  16.064
   16BMANN   C515054   6.286   6.043  16.154
   16BMANN   H515055   6.243   6.111  16.230
   16BMANN   O515056   6.291   6.111  16.027
   16BMANN   C215057   6.070   6.035  15.965
   16BMANN   H215058   5.970   6.077  15.944
   16BMANN    N15059   6.113   5.951  15.853
   16BMANN   HN15060   6.205   5.915  15.856
   16BMANN    C15061   6.034   5.921  15.749
   16BMANN    O15062   5.921   5.966  15.736
   16BMANN   CT15063   6.093   5.828  15.645
   16BMANN  HT115064   6.016   5.753  15.616
   16BMANN  HT215065   6.182   5.776  15.685
   16BMANN  HT315066   6.122   5.887  15.556
   16BMANN   C315067   6.059   5.961  16.097
   16BMANN   H315068   6.016   6.029  16.173
   16BMANN   O315069   5.971   5.850  16.084
   16BMANN  HO315070   5.884   5.881  16.057
   16BMANN   C415071   6.198   5.918  16.144
   16BMANN   H415072   6.242   5.848  16.070
   16BMANN   O415073   6.192   5.852  16.270
   16BMANN  HO415074   6.133   5.777  16.263
   16BMANN   C615075   6.429   6.012  16.195
   16BMANN  H6115076   6.429   5.957  16.292
   16BMANN  H6215077   6.477   5.947  16.119
   16BMANN   O615078   6.506   6.132  16.211
   16BMANN  HO615079   6.499   6.183  16.130
   17BGLCN   C115080   6.332   6.499  16.147
   17BGLCN   H115081   6.304   6.604  16.122
   17BGLCN   C515082   6.554   6.567  16.200
   17BGLCN   H515083   6.530   6.671  16.171
   17BGLCN   O515084   6.471   6.477  16.124
   17BGLCN   C215085   6.302   6.471  16.292
   17BGLCN   H215086   6.343   6.370  16.315
   17BGLCN    N15087   6.158   6.464  16.313
   17BGLCN   HN15088   6.103   6.506  16.241
   17BGLCN    C15089   6.098   6.392  16.408
   17BGLCN    O15090   6.158   6.331  16.495
   17BGLCN   CT15091   5.947   6.390  16.404
   17BGLCN  HT115092   5.913   6.319  16.326
   17BGLCN  HT215093   5.907   6.491  16.383
   17BGLCN  HT315094   5.909   6.356  16.503
   17BGLCN   C315095   6.380   6.572  16.377
   17BGLCN   H315096   6.354   6.673  16.339
   17BGLCN   O315097   6.344   6.565  16.516
   17BGLCN   C415098   6.528   6.549  16.349
   17BGLCN   H415099   6.554   6.445  16.377
   17BGLCN   O415100   6.611   6.638  16.423
   17BGLCN  HO415101   6.632   6.598  16.508
   17BGLCN   C615102   6.698   6.540  16.160
   17BGLCN  H6115103   6.768   6.599  16.223
   17BGLCN  H6215104   6.721   6.432  16.176
   17BGLCN   O615105   6.723   6.572  16.022
   17BGLCN  HO615106   6.758   6.661  16.014
   18AGAL    C115107   6.351   6.686  16.591
   18AGAL    H115108   6.457   6.717  16.603
   18AGAL    C515109   6.138   6.761  16.516
   18AGAL    H515110   6.131   6.665  16.462
   18AGAL    O515111   6.278   6.793  16.529
   18AGAL    C215112   6.293   6.666  16.730
   18AGAL    H215113   6.297   6.767  16.777
   18AGAL    O215114   6.372   6.578  16.812
   18AGAL    C315115   6.147   6.624  16.719
   18AGAL    H315116   6.143   6.532  16.657
   18AGAL    O315117   6.087   6.590  16.845
   18AGAL   HO315118   6.020   6.523  16.833
   18AGAL    C415119   6.070   6.736  16.651
   18AGAL    H415120   5.967   6.701  16.632
   18AGAL    O415121   6.062   6.851  16.735
   18AGAL   HO415122   6.052   6.819  16.825
   18AGAL    C615123   6.068   6.860  16.424
   18AGAL   H6115124   6.118   6.857  16.324
   18AGAL   H6215125   5.963   6.827  16.409
   18AGAL    O615126   6.069   6.995  16.470
   18AGAL   HO615127   6.153   7.035  16.446
   19ARHM    C115128   6.376   6.622  16.947
   19ARHM    H115129   6.281   6.673  16.974
   19ARHM    C515130   6.612   6.657  16.948
   19ARHM    H515131   6.618   6.623  16.842
   19ARHM    O515132   6.482   6.714  16.972
   19ARHM    C215133   6.392   6.501  17.036
   19ARHM    H215134   6.318   6.425  17.002
   19ARHM    O215135   6.363   6.533  17.173
   19ARHM    C315136   6.527   6.436  17.016
   19ARHM    H315137   6.534   6.401  16.910
   19ARHM    O315138   6.540   6.321  17.100
   19ARHM   HO315139   6.629   6.320  17.138
   19ARHM    C415140   6.635   6.538  17.041
   19ARHM    H415141   6.628   6.574  17.146
   19ARHM    O415142   6.765   6.483  17.022
   19ARHM   HO415143   6.768   6.450  16.931
   19ARHM    C615144   6.713   6.772  16.966
   19ARHM   H6115145   6.689   6.854  16.896
   19ARHM   H6215146   6.709   6.810  17.070
   19ARHM   H6315147   6.816   6.736  16.945
   20ARHM    C115148   6.226   6.547  17.199
   20ARHM    H115149   6.165   6.503  17.117
   20ARHM    C515150   6.250   6.752  17.319
   20ARHM    H515151   6.359   6.752  17.299
   20ARHM    O515152   6.183   6.684  17.213
   20ARHM    C215153   6.198   6.472  17.326
   20ARHM    H215154   6.242   6.370  17.318
   20ARHM    O215155   6.056   6.461  17.347
   20ARHM    C315156   6.267   6.538  17.442
   20ARHM    H315157   6.377   6.533  17.427
   20ARHM    O315158   6.230   6.464  17.559
   20ARHM    C415159   6.223   6.682  17.452
   20ARHM    H415160   6.113   6.685  17.472
   20ARHM    O415161   6.290   6.750  17.559
   20ARHM   HO415162   6.373   6.783  17.525
   20ARHM    C615163   6.199   6.897  17.315
   20ARHM   H6115164   6.090   6.901  17.333
   20ARHM   H6215165   6.250   6.959  17.393
   20ARHM   H6315166   6.220   6.942  17.216
   21BMANN   C115167   5.997   6.361  17.267
   21BMANN   H115168   6.073   6.309  17.205
   21BMANN   C515169   5.840   6.314  17.095
   21BMANN   H515170   5.922   6.264  17.039
   21BMANN   O515171   5.898   6.416  17.180
   21BMANN   C215172   5.935   6.261  17.361
   21BMANN   H215173   6.019   6.217  17.418
   21BMANN    N15174   5.846   6.324  17.459
   21BMANN   HN15175   5.811   6.415  17.437
   21BMANN    C15176   5.819   6.271  17.578
   21BMANN    O15177   5.862   6.160  17.609
   21BMANN   CT15178   5.735   6.352  17.673
   21BMANN  HT115179   5.630   6.317  17.668
   21BMANN  HT215180   5.741   6.460  17.647
   21BMANN  HT315181   5.774   6.338  17.776
   21BMANN   C315182   5.872   6.151  17.278
   21BMANN   H315183   5.952   6.102  17.218
   21BMANN   O315184   5.816   6.050  17.362
   21BMANN  HO315185   5.836   6.073  17.453
   21BMANN   C415186   5.770   6.210  17.182
   21BMANN   H415187   5.689   6.259  17.239
   21BMANN   O415188   5.713   6.109  17.099
   21BMANN  HO415189   5.701   6.029  17.152
   21BMANN   C615190   5.751   6.381  16.993
   21BMANN  H6115191   5.711   6.305  16.922
   21BMANN  H6215192   5.664   6.429  17.043
   21BMANN   O615193   5.822   6.480  16.918
   21BMANN  HO615194   5.846   6.552  16.978
   22BGLCN   C115195   6.328   6.453  17.659
   22BGLCN   H115196   6.398   6.540  17.656
   22BGLCN   C515197   6.495   6.311  17.749
   22BGLCN   H515198   6.563   6.400  17.753
   22BGLCN   O515199   6.399   6.330  17.644
   22BGLCN   C215200   6.249   6.452  17.788
   22BGLCN   H215201   6.181   6.364  17.784
   22BGLCN    N15202   6.166   6.572  17.797
   22BGLCN   HN15203   6.197   6.651  17.743
   22BGLCN    C15204   6.047   6.578  17.857
   22BGLCN    O15205   5.995   6.482  17.913
   22BGLCN   CT15206   5.977   6.711  17.854
   22BGLCN  HT115207   5.908   6.714  17.767
   22BGLCN  HT215208   6.050   6.794  17.846
   22BGLCN  HT315209   5.918   6.723  17.947
   22BGLCN   C315210   6.344   6.433  17.905
   22BGLCN   H315211   6.417   6.517  17.904
   22BGLCN   O315212   6.268   6.439  18.028
   22BGLCN   C415213   6.421   6.303  17.882
   22BGLCN   H415214   6.347   6.220  17.877
   22BGLCN   O415215   6.513   6.273  17.987
   22BGLCN  HO415216   6.516   6.178  18.000
   22BGLCN   C615217   6.581   6.191  17.714
   22BGLCN  H6115218   6.650   6.168  17.798
   22BGLCN  H6215219   6.517   6.101  17.698
   22BGLCN   O615220   6.661   6.215  17.599
   22BGLCN  HO615221   6.605   6.233  17.522
   23AGAL    C115222   6.337   6.465  18.148
   23AGAL    H115223   6.401   6.378  18.174
   23AGAL    C515224   6.344   6.702  18.113
   23AGAL    H515225   6.286   6.686  18.020
   23AGAL    O515226   6.420   6.583  18.140
   23AGAL    C215227   6.237   6.483  18.262
   23AGAL    H215228   6.295   6.499  18.355
   23AGAL    O215229   6.153   6.368  18.280
   23AGAL    C315230   6.153   6.607  18.238
   23AGAL    H315231   6.096   6.592  18.144
   23AGAL    O315232   6.058   6.626  18.343
   23AGAL   HO315233   6.106   6.654  18.421
   23AGAL    C415234   6.243   6.728  18.225
   23AGAL    H415235   6.181   6.815  18.194
   23AGAL    O415236   6.307   6.761  18.348
   23AGAL   HO415237   6.396   6.788  18.323
   23AGAL    C615238   6.440   6.817  18.085
   23AGAL   H6115239   6.510   6.786  18.005
   23AGAL   H6215240   6.382   6.904  18.046
   23AGAL    O615241   6.515   6.860  18.199
   23AGAL   HO615242   6.582   6.924  18.173
   24ARHM    C115243   6.202   6.262  18.357
   24ARHM    H115244   6.313   6.269  18.364
   24ARHM    C515245   6.032   6.111  18.287
   24ARHM    H515246   5.986   6.190  18.224
   24ARHM    O515247   6.174   6.135  18.297
   24ARHM    C215248   6.143   6.271  18.496
   24ARHM    H215249   6.161   6.374  18.536
   24ARHM    O215250   6.200   6.173  18.585
   24ARHM    C315251   5.994   6.250  18.489
   24ARHM    H315252   5.949   6.329  18.425
   24ARHM    O315253   5.935   6.262  18.619
   24ARHM   HO315254   5.840   6.253  18.608
   24ARHM    C415255   5.968   6.115  18.426
   24ARHM    H415256   6.016   6.037  18.488
   24ARHM    O415257   5.829   6.085  18.419
   24ARHM   HO415258   5.819   5.990  18.434
   24ARHM    C615259   6.015   5.977  18.214
   24ARHM   H6115260   5.907   5.955  18.198
   24ARHM   H6215261   6.065   5.981  18.115
   24ARHM   H6315262   6.060   5.894  18.273
   25ARHM    C115263   6.315   6.212  18.654
   25ARHM    H115264   6.374   6.278  18.587
   25ARHM    C515265   6.340   6.012  18.780
   25ARHM    H515266   6.245   5.974  18.737
   25ARHM    O515267   6.401   6.102  18.686
   25ARHM    C215268   6.278   6.289  18.779
   25ARHM    H215269   6.203   6.367  18.754
   25ARHM    O215270   6.393   6.350  18.839
   25ARHM    C315271   6.213   6.199  18.881
   25ARHM    H315272   6.118   6.159  18.839
   25ARHM    O315273   6.185   6.282  18.994
   25ARHM    C415274   6.309   6.085  18.911
   25ARHM    H415275   6.404   6.128  18.950
   25ARHM    O415276   6.259   5.996  19.011
   25ARHM   HO415277   6.319   5.922  19.023
   25ARHM    C615278   6.437   5.895  18.794
   25ARHM   H6115279   6.459   5.851  18.694
   25ARHM   H6215280   6.533   5.928  18.839
   25ARHM   H6315281   6.394   5.815  18.858
   26BMANN   C115282   6.430   6.471  18.779
   26BMANN   H115283   6.340   6.528  18.748
   26BMANN   C515284   6.554   6.567  18.600
   26BMANN   H515285   6.462   6.619  18.567
   26BMANN   O515286   6.516   6.446  18.667
   26BMANN   C215287   6.507   6.552  18.881
   26BMANN   H215288   6.435   6.574  18.964
   26BMANN    N15289   6.619   6.480  18.940
   26BMANN   HN15290   6.650   6.400  18.890
   26BMANN    C15291   6.679   6.513  19.056
   26BMANN    O15292   6.642   6.609  19.122
   26BMANN   CT15293   6.795   6.430  19.100
   26BMANN  HT115294   6.840   6.376  19.014
   26BMANN  HT215295   6.761   6.356  19.176
   26BMANN  HT315296   6.872   6.497  19.146
   26BMANN   C315297   6.544   6.685  18.816
   26BMANN   H315298   6.451   6.734  18.782
   26BMANN   O315299   6.606   6.772  18.910
   26BMANN  HO315300   6.617   6.724  18.993
   26BMANN   C415301   6.631   6.658  18.694
   26BMANN   H415302   6.725   6.609  18.726
   26BMANN   O415303   6.663   6.776  18.622
   26BMANN  HO415304   6.706   6.841  18.678
   26BMANN   C615305   6.631   6.529  18.474
   26BMANN  H6115306   6.573   6.453  18.417
   26BMANN  H6215307   6.641   6.618  18.408
   26BMANN   O615308   6.761   6.477  18.501
   26BMANN  HO615309   6.824   6.550  18.507
   27BGLCN   C115310   6.077   6.244  19.074
   27BGLCN   H115311   6.059   6.134  19.068
   27BGLCN   C515312   5.849   6.281  19.127
   27BGLCN   H515313   5.834   6.171  19.119
   27BGLCN   O515314   5.958   6.316  19.040
   27BGLCN   C215315   6.119   6.284  19.213
   27BGLCN   H215316   6.126   6.395  19.213
   27BGLCN    N15317   6.251   6.230  19.245
   27BGLCN   HN15318   6.272   6.142  19.203
   27BGLCN    C15319   6.346   6.297  19.311
   27BGLCN    O15320   6.331   6.411  19.353
   27BGLCN   CT15321   6.477   6.225  19.331
   27BGLCN  HT115322   6.479   6.130  19.274
   27BGLCN  HT215323   6.490   6.204  19.440
   27BGLCN  HT315324   6.560   6.290  19.296
   27BGLCN   C315325   6.012   6.245  19.312
   27BGLCN   H315326   5.997   6.135  19.304
   27BGLCN   O315327   6.060   6.279  19.444
   27BGLCN   C415328   5.883   6.315  19.272
   27BGLCN   H415329   5.897   6.425  19.281
   27BGLCN   O415330   5.775   6.276  19.356
   27BGLCN  HO415331   5.760   6.182  19.344
   27BGLCN   C615332   5.723   6.350  19.077
   27BGLCN  H6115333   5.644   6.347  19.155
   27BGLCN  H6215334   5.745   6.457  19.057
   27BGLCN   O615335   5.668   6.290  18.959
   27BGLCN  HO615336   5.668   6.356  18.889
   28AGAL    C115337   5.998   6.217   0.082
   28AGAL    H115338   5.897   6.261   0.098
   28AGAL    C515339   6.113   6.009   0.050
   28AGAL    H515340   6.168   6.060  19.440
   28AGAL    O515341   5.985   6.075   0.063
   28AGAL    C215342   6.077   6.238   0.211
   28AGAL    H215343   6.019   6.179   0.285
   28AGAL    O215344   6.087   6.375   0.256
   28AGAL    C315345   6.215   6.176   0.198
   28AGAL    H315346   6.267   6.221   0.111
   28AGAL    O315347   6.296   6.201   0.314
   28AGAL   HO315348   6.353   6.276   0.298
   28AGAL    C415349   6.200   6.026   0.175
   28AGAL    H415350   6.300   5.983   0.154
   28AGAL    O415351   6.149   5.961   0.291
   28AGAL   HO415352   6.169   6.019   0.365
   28AGAL    C615353   6.090   5.868  19.472
   28AGAL   H6115354   6.024   5.871  19.383
   28AGAL   H6215355   6.187   5.823  19.439
   28AGAL    O615356   6.032   5.781   0.096
   28AGAL   HO615357   5.950   5.820   0.128
   29ARHM    C115358   6.051   6.389   0.393
   29ARHM    H115359   6.062   6.292   0.446
   29ARHM    C515360   5.893   6.564   0.350
   29ARHM    H515361   5.917   6.563   0.242
   29ARHM    O515362   5.915   6.433   0.406
   29ARHM    C215363   6.142   6.487   0.464
   29ARHM    H215364   6.247   6.455   0.446
   29ARHM    O215365   6.115   6.488   0.606
   29ARHM    C315366   6.126   6.626   0.409
   29ARHM    H315367   6.155   6.626   0.302
   29ARHM    O315368   6.213   6.717   0.478
   29ARHM   HO315369   6.169   6.738   0.561
   29ARHM    C415370   5.980   6.666   0.422
   29ARHM    H415371   5.951   6.663   0.529
   29ARHM    O415372   5.955   6.799   0.375
   29ARHM   HO415373   5.965   6.803   0.280
   29ARHM    C615374   5.742   6.590   0.366
   29ARHM   H6115375   5.683   6.511   0.316
   29ARHM   H6215376   5.715   6.590   0.474
   29ARHM   H6315377   5.714   6.688   0.322
   30ARHM    C115378   6.205   6.412   0.683
   30ARHM    H115379   6.309   6.437   0.655
   30ARHM    C515380   6.053   6.227   0.706
   30ARHM    H515381   5.976   6.279   0.646
   30ARHM    O515382   6.184   6.271   0.666
   30ARHM    C215383   6.184   6.448   0.829
   30ARHM    H215384   6.193   6.558   0.840
   30ARHM    O215385   6.281   6.381   0.911
   30ARHM    C315386   6.046   6.406   0.875
   30ARHM    H315387   5.972   6.459   0.811
   30ARHM    O315388   6.023   6.453   1.010
   30ARHM    C415389   6.028   6.258   0.853
   30ARHM    H415390   6.102   6.199   0.912
   30ARHM    O415391   5.897   6.218   0.891
   30ARHM   HO415392   5.881   6.255   0.978
   30ARHM    C615393   6.049   6.077   0.673
   30ARHM   H6115394   5.950   6.033   0.699
   30ARHM   H6215395   6.066   6.061   0.564
   30ARHM   H6315396   6.128   6.022   0.729
   31BMANN   C115397   6.400   6.450   0.937
   31BMANN   H115398   6.380   6.558   0.957
   31BMANN   C515399   6.621   6.496   0.859
   31BMANN   H515400   6.604   6.604   0.880
   31BMANN   O515401   6.495   6.432   0.831
   31BMANN   C215402   6.454   6.381   1.060
   31BMANN   H215403   6.383   6.401   1.142
   31BMANN    N15404   6.460   6.236   1.041
   31BMANN   HN15405   6.456   6.204   0.947
   31BMANN    C15406   6.459   6.148   1.142
   31BMANN    O15407   6.460   6.185   1.258
   31BMANN   CT15408   6.456   6.002   1.104
   31BMANN  HT115409   6.523   5.983   1.018
   31BMANN  HT215410   6.352   5.972   1.078
   31BMANN  HT315411   6.490   5.941   1.191
   31BMANN   C315412   6.586   6.446   1.097
   31BMANN   H315413   6.567   6.554   1.113
   31BMANN   O315414   6.636   6.395   1.220
   31BMANN  HO315415   6.590   6.315   1.243
   31BMANN   C415416   6.684   6.433   0.983
   31BMANN   H415417   6.705   6.326   0.963
   31BMANN   O415418   6.806   6.498   1.016
   31BMANN  HO415419   6.823   6.479   1.108
   31BMANN   C615420   6.708   6.486   0.734
   31BMANN  H6115421   6.805   6.537   0.751
   31BMANN  H6215422   6.729   6.380   0.713
   31BMANN   O615423   6.643   6.543   0.619
   31BMANN  HO615424   6.666   6.636   0.609
   32BGLCN   C115425   6.062   6.370   1.117
   32BGLCN   H115426   6.158   6.318   1.095
   32BGLCN   C515427   5.998   6.186   1.256
   32BGLCN   H515428   6.092   6.132   1.231
   32BGLCN   O515429   5.961   6.273   1.148
   32BGLCN   C215430   6.081   6.459   1.239
   32BGLCN   H215431   5.980   6.496   1.267
   32BGLCN    N15432   6.161   6.577   1.210
   32BGLCN   HN15433   6.224   6.572   1.133
   32BGLCN    C15434   6.143   6.696   1.270
   32BGLCN    O15435   6.062   6.715   1.360
   32BGLCN   CT15436   6.232   6.808   1.224
   32BGLCN  HT115437   6.307   6.772   1.151
   32BGLCN  HT215438   6.284   6.852   1.312
   32BGLCN  HT315439   6.170   6.887   1.176
   32BGLCN   C315440   6.132   6.371   1.352
   32BGLCN   H315441   6.220   6.316   1.312
   32BGLCN   O315442   6.174   6.440   1.471
   32BGLCN   C415443   6.022   6.270   1.381
   32BGLCN   H415444   5.929   6.326   1.404
   32BGLCN   O415445   6.052   6.190   1.494
   32BGLCN  HO415446   6.085   6.247   1.563
   32BGLCN   C615447   5.887   6.084   1.270
   32BGLCN  H6115448   5.908   6.016   1.355
   32BGLCN  H6215449   5.790   6.136   1.289
   32BGLCN   O615450   5.873   6.004   1.152
   32BGLCN  HO615451   5.872   6.059   1.074
   33AGAL    C115452   6.298   6.394   1.522
   33AGAL    H115453   6.311   6.285   1.504
   33AGAL    C515454   6.411   6.605   1.493
   33AGAL    H515455   6.315   6.649   1.460
   33AGAL    O515456   6.409   6.464   1.462
   33AGAL    C215457   6.305   6.415   1.673
   33AGAL    H215458   6.405   6.377   1.705
   33AGAL    O215459   6.205   6.335   1.738
   33AGAL    C315460   6.298   6.563   1.706
   33AGAL    H315461   6.205   6.605   1.661
   33AGAL    O315462   6.287   6.588   1.846
   33AGAL   HO315463   6.330   6.671   1.869
   33AGAL    C415464   6.418   6.631   1.643
   33AGAL    H415465   6.409   6.741   1.661
   33AGAL    O415466   6.543   6.590   1.698
   33AGAL   HO415467   6.578   6.519   1.643
   33AGAL    C615468   6.521   6.672   1.413
   33AGAL   H6115469   6.489   6.679   1.306
   33AGAL   H6215470   6.536   6.776   1.450
   33AGAL    O615471   6.646   6.603   1.416
   33AGAL   HO615472   6.638   6.521   1.367
   34ARHM    C115473   6.252   6.280   1.859
   34ARHM    H115474   6.310   6.356   1.916
   34ARHM    C515475   6.270   6.060   1.768
   34ARHM    H515476   6.239   6.094   1.667
   34ARHM    O515477   6.336   6.166   1.838
   34ARHM    C215478   6.130   6.240   1.940
   34ARHM    H215479   6.064   6.329   1.948
   34ARHM    O215480   6.164   6.195   2.072
   34ARHM    C315481   6.054   6.131   1.868
   34ARHM    H315482   6.022   6.170   1.768
   34ARHM    O315483   5.936   6.093   1.938
   34ARHM   HO315484   5.890   6.029   1.883
   34ARHM    C415485   6.147   6.013   1.845
   34ARHM    H415486   6.181   5.974   1.943
   34ARHM    O415487   6.081   5.908   1.774
   34ARHM   HO415488   6.038   5.851   1.838
   34ARHM    C615489   6.378   5.952   1.752
   34ARHM   H6115490   6.414   5.920   1.852
   34ARHM   H6215491   6.338   5.863   1.698
   34ARHM   H6315492   6.464   5.992   1.695
   35ARHM    C115493   6.219   6.291   2.159
   35ARHM    H115494   6.174   6.391   2.139
   35ARHM    C515495   6.427   6.174   2.168
   35ARHM    H515496   6.393   6.102   2.090
   35ARHM    O515497   6.362   6.300   2.149
   35ARHM    C215498   6.184   6.244   2.299
   35ARHM    H215499   6.074   6.229   2.303
   35ARHM    O215500   6.222   6.334   2.404
   35ARHM    C315501   6.247   6.109   2.323
   35ARHM    H315502   6.210   6.037   2.246
   35ARHM    O315503   6.209   6.058   2.450
   35ARHM   HO315504   6.220   6.129   2.513
   35ARHM    C415505   6.398   6.119   2.307
   35ARHM    H415506   6.438   6.190   2.382
   35ARHM    O415507   6.461   5.993   2.325
   35ARHM   HO415508   6.534   5.984   2.264
   35ARHM    C615509   6.577   6.203   2.145
   35ARHM   H6115510   6.591   6.246   2.043
   35ARHM   H6215511   6.613   6.277   2.219
   35ARHM   H6315512   6.638   6.111   2.153
   36BMANN   C115513   6.149   6.454   2.406
   36BMANN   H115514   6.043   6.434   2.382
   36BMANN   C515515   6.125   6.673   2.314
   36BMANN   H515516   6.021   6.645   2.286
   36BMANN   O515517   6.203   6.552   2.316
   36BMANN   C215518   6.158   6.512   2.546
   36BMANN   H215519   6.112   6.437   2.614
   36BMANN    N15520   6.296   6.536   2.590
   36BMANN   HN15521   6.359   6.569   2.520
   36BMANN    C15522   6.339   6.519   2.716
   36BMANN    O15523   6.270   6.465   2.802
   36BMANN   CT15524   6.478   6.566   2.747
   36BMANN  HT115525   6.486   6.676   2.729
   36BMANN  HT215526   6.552   6.513   2.683
   36BMANN  HT315527   6.501   6.546   2.853
   36BMANN   C315528   6.071   6.637   2.551
   36BMANN   H315529   5.967   6.609   2.523
   36BMANN   O315530   6.065   6.691   2.682
   36BMANN  HO315531   5.995   6.649   2.732
   36BMANN   C415532   6.123   6.738   2.451
   36BMANN   H415533   6.225   6.770   2.479
   36BMANN   O415534   6.038   6.853   2.445
   36BMANN  HO415535   6.034   6.891   2.533
   36BMANN   C615536   6.177   6.763   2.202
   36BMANN  H6115537   6.179   6.705   2.108
   36BMANN  H6215538   6.107   6.848   2.187
   36BMANN   O615539   6.308   6.816   2.226
   36BMANN  HO615540   6.308   6.873   2.303
    1ECLIP HB6S15541   6.919   5.012  11.833
    1ECLIP  OB615542   7.029   4.902  11.968
    1ECLIP  CB615543   7.025   5.001  11.864
    1ECLIP HB6R15544   7.059   5.100  11.903
    1ECLIP  CB515545   7.108   4.973  11.741
    1ECLIP  OB515546   7.072   4.842  11.698
    1ECLIP  HB515547   7.216   4.976  11.767
    1ECLIP  CB115548   7.148   4.797  11.586
    1ECLIP  HB115549   7.256   4.797  11.612
    1ECLIP  OA615550   7.110   4.666  11.550
    1ECLIP  CA615551   6.970   4.637  11.572
    1ECLIP HA6R15552   6.909   4.728  11.592
    1ECLIP HA6S15553   6.961   4.571  11.660
    1ECLIP  CB415554   7.078   5.069  11.626
    1ECLIP  HB415555   6.972   5.051  11.597
    1ECLIP  OB415556   7.102   5.203  11.672
    1ECLIP   PB15557   6.973   5.306  11.684
    1ECLIP OPB415558   6.991   5.418  11.784
    1ECLIP OPB315559   6.854   5.219  11.723
    1ECLIP OPB215560   6.938   5.351  11.544
    1ECLIP  CB315561   7.161   5.030  11.505
    1ECLIP  OB315562   7.127   5.118  11.397
    1ECLIP  HB315563   7.267   5.036  11.536
    1ECLIP  C7115564   7.227   5.142  11.311
    1ECLIP  O7115565   7.337   5.090  11.316
    1ECLIP  C7215566   7.177   5.204  11.182
    1ECLIP H72R15567   7.201   5.133  11.100
    1ECLIP H72S15568   7.238   5.296  11.169
    1ECLIP  CB215569   7.123   4.887  11.467
    1ECLIP  HB215570   7.014   4.886  11.449
    1ECLIP  NB215571   7.189   4.840  11.345
    1ECLIP HNB215572   7.286   4.817  11.352
    1ECLIP  CA415573   7.017   4.494  11.370
    1ECLIP  HA415574   7.094   4.567  11.338
    1ECLIP  OA415575   7.077   4.396  11.456
    1ECLIP HOA415576   7.105   4.441  11.536
    1ECLIP  CA515577   6.913   4.570  11.449
    1ECLIP  HA515578   6.830   4.503  11.480
    1ECLIP  OA515579   6.861   4.674  11.367
    1ECLIP  CA115580   6.795   4.624  11.250
    1ECLIP  HA115581   6.770   4.715  11.192
    1ECLIP  OA115582   6.677   4.554  11.285
    1ECLIP OPA215583   6.508   4.609  11.475
    1ECLIP OPA315584   6.572   4.788  11.305
    1ECLIP OPA415585   6.438   4.600  11.228
    1ECLIP   PA15586   6.543   4.640  11.331
    1ECLIP  CA315587   6.957   4.434  11.245
    1ECLIP  HA315588   6.874   4.367  11.275
    1ECLIP  OA315589   7.057   4.352  11.180
    1ECLIP  C3115590   7.173   4.407  11.132
    1ECLIP  O3115591   7.195   4.407  11.012
    1ECLIP  C3215592   7.291   4.359  11.217
    1ECLIP H32R15593   7.340   4.278  11.159
    1ECLIP H32S15594   7.254   4.314  11.312
    1ECLIP  CA215595   6.895   4.548  11.162
    1ECLIP  HA215596   6.978   4.618  11.139
    1ECLIP  NA215597   6.839   4.509  11.031
    1ECLIP HNA215598   6.840   4.412  11.011
    1ECLIP  C7315599   7.028   5.239  11.180
    1ECLIP H73R15600   7.005   5.295  11.274
    1ECLIP  O7315601   6.952   5.121  11.163
    1ECLIP  C8115602   6.848   5.102  11.242
    1ECLIP  O8115603   6.810   5.181  11.328
    1ECLIP  C8215604   6.744   5.021  11.167
    1ECLIP H82R15605   6.652   5.020  11.229
    1ECLIP H82S15606   6.781   4.917  11.157
    1ECLIP  C8315607   6.717   5.082  11.029
    1ECLIP H83R15608   6.802   5.051  10.965
    1ECLIP H83S15609   6.714   5.193  11.032
    1ECLIP  C8415610   6.589   5.030  10.965
    1ECLIP H84R15611   6.500   5.085  11.002
    1ECLIP H84S15612   6.580   4.922  10.992
    1ECLIP  C8515613   6.604   5.036  10.814
    1ECLIP H85R15614   6.693   4.973  10.792
    1ECLIP H85S15615   6.628   5.140  10.782
    1ECLIP  C8615616   6.484   4.983  10.736
    1ECLIP H86R15617   6.415   5.068  10.715
    1ECLIP H86S15618   6.429   4.908  10.796
    1ECLIP  C8715619   6.529   4.917  10.605
    1ECLIP H87R15620   6.441   4.904  10.539
    1ECLIP H87S15621   6.568   4.816  10.629
    1ECLIP  C8815622   6.640   4.995  10.533
    1ECLIP H88R15623   6.733   4.995  10.593
    1ECLIP H88S15624   6.609   5.101  10.520
    1ECLIP  C8915625   6.677   4.936  10.397
    1ECLIP H89R15626   6.703   4.829  10.409
    1ECLIP H89S15627   6.769   4.989  10.362
    1ECLIP C81015628   6.564   4.952  10.295
    1ECLIPH810R15629   6.514   5.050  10.311
    1ECLIPH810S15630   6.488   4.873  10.315
    1ECLIP C81115631   6.612   4.942  10.150
    1ECLIPH811R15632   6.521   4.938  10.086
    1ECLIPH811S15633   6.665   4.845  10.138
    1ECLIP C81215634   6.704   5.056  10.104
    1ECLIPH812R15635   6.736   5.035   9.999
    1ECLIPH812S15636   6.797   5.058  10.165
    1ECLIP C81315637   6.638   5.194  10.109
    1ECLIPH813R15638   6.543   5.191  10.052
    1ECLIPH813S15639   6.612   5.218  10.215
    1ECLIP C81415640   6.726   5.306  10.054
    1ECLIPH814R15641   6.756   5.284   9.949
    1ECLIPH814S15642   6.818   5.317  10.115
    1ECLIPH814T15643   6.672   5.403  10.056
    1ECLIP  C7415644   6.991   5.331  11.061
    1ECLIP H74R15645   7.062   5.417  11.066
    1ECLIP H74S15646   6.888   5.369  11.080
    1ECLIP  C7515647   6.996   5.277  10.916
    1ECLIP H75R15648   6.933   5.345  10.854
    1ECLIP H75S15649   6.952   5.176  10.910
    1ECLIP  C7615650   7.136   5.276  10.851
    1ECLIP H76R15651   7.199   5.198  10.899
    1ECLIP H76S15652   7.185   5.373  10.872
    1ECLIP  C7715653   7.136   5.256  10.699
    1ECLIP H77R15654   7.088   5.344  10.651
    1ECLIP H77S15655   7.075   5.166  10.673
    1ECLIP  C7815656   7.279   5.238  10.645
    1ECLIP H78R15657   7.334   5.333  10.663
    1ECLIP H78S15658   7.330   5.161  10.706
    1ECLIP  C7915659   7.293   5.202  10.496
    1ECLIP H79R15660   7.302   5.092  10.489
    1ECLIP H79S15661   7.389   5.244  10.459
    1ECLIP C71015662   7.179   5.250  10.405
    1ECLIPH710R15663   7.084   5.201  10.435
    1ECLIPH710S15664   7.165   5.359  10.418
    1ECLIP C71115665   7.204   5.220  10.256
    1ECLIPH711R15666   7.302   5.265  10.226
    1ECLIPH711S15667   7.214   5.110  10.241
    1ECLIP C71215668   7.091   5.276  10.169
    1ECLIPH712R15669   7.087   5.386  10.183
    1ECLIPH712S15670   6.995   5.235  10.208
    1ECLIP C71315671   7.101   5.245  10.019
    1ECLIPH713R15672   7.088   5.136  10.005
    1ECLIPH713S15673   7.016   5.295   9.967
    1ECLIP C71415674   7.233   5.290   9.954
    1ECLIPH714R15675   7.246   5.400   9.967
    1ECLIPH714S15676   7.319   5.238  10.000
    1ECLIPH714T15677   7.232   5.268   9.845
    1ECLIP  C5115678   7.133   4.841  11.224
    1ECLIP  O5115679   7.013   4.859  11.207
    1ECLIP  C5215680   7.224   4.817  11.106
    1ECLIP H52R15681   7.297   4.901  11.098
    1ECLIP H52S15682   7.280   4.724  11.129
    1ECLIP  C5315683   7.149   4.798  10.973
    1ECLIP H53R15684   7.060   4.733  10.990
    1ECLIP  O5315685   7.245   4.740  10.884
    1ECLIP  C6115686   7.210   4.626  10.829
    1ECLIP  O6115687   7.097   4.581  10.827
    1ECLIP  C6215688   7.317   4.588  10.726
    1ECLIP H62R15689   7.410   4.561  10.780
    1ECLIP H62S15690   7.337   4.678  10.664
    1ECLIP  C6315691   7.269   4.470  10.638
    1ECLIP H63R15692   7.164   4.487  10.605
    1ECLIP H63S15693   7.269   4.378  10.700
    1ECLIP  C6415694   7.353   4.448  10.511
    1ECLIP H64R15695   7.321   4.350  10.470
    1ECLIP H64S15696   7.461   4.441  10.538
    1ECLIP  C6515697   7.332   4.555  10.403
    1ECLIP H65R15698   7.366   4.653  10.443
    1ECLIP H65S15699   7.223   4.562  10.381
    1ECLIP  C6615700   7.407   4.527  10.272
    1ECLIP H66R15701   7.512   4.504  10.299
    1ECLIP H66S15702   7.407   4.618  10.208
    1ECLIP  C6715703   7.356   4.407  10.192
    1ECLIP H67R15704   7.336   4.320  10.258
    1ECLIP H67S15705   7.438   4.377  10.123
    1ECLIP  C6815706   7.232   4.438  10.107
    1ECLIP H68R15707   7.247   4.533  10.052
    1ECLIP H68S15708   7.144   4.450  10.174
    1ECLIP  C6915709   7.208   4.325  10.007
    1ECLIP H69R15710   7.203   4.228  10.062
    1ECLIP H69S15711   7.296   4.321   9.939
    1ECLIP C61015712   7.080   4.342   9.925
    1ECLIPH610R15713   7.087   4.436   9.865
    1ECLIPH610S15714   6.994   4.354   9.994
    1ECLIP C61115715   7.055   4.223   9.832
    1ECLIPH611R15716   7.024   4.137   9.895
    1ECLIPH611S15717   6.971   4.248   9.764
    1ECLIP C61215718   7.177   4.180   9.749
    1ECLIPH612R15719   7.227   4.268   9.703
    1ECLIPH612S15720   7.252   4.128   9.814
    1ECLIPH612T15721   7.147   4.109   9.668
    1ECLIP  C5415722   7.100   4.930  10.911
    1ECLIP H54R15723   7.189   4.993  10.892
    1ECLIP H54S15724   7.037   4.981  10.988
    1ECLIP  C5515725   7.016   4.918  10.782
    1ECLIP H55R15726   6.956   5.010  10.770
    1ECLIP H55S15727   6.944   4.833  10.793
    1ECLIP  C5615728   7.103   4.899  10.658
    1ECLIP H56R15729   7.148   4.797  10.660
    1ECLIP H56S15730   7.187   4.971  10.660
    1ECLIP  C5715731   7.029   4.912  10.524
    1ECLIP H57R15732   6.996   5.016  10.508
    1ECLIP H57S15733   6.938   4.847  10.526
    1ECLIP  C5815734   7.124   4.865  10.414
    1ECLIP H58R15735   7.218   4.925  10.419
    1ECLIP H58S15736   7.154   4.761  10.437
    1ECLIP  C5915737   7.071   4.873  10.271
    1ECLIP H59R15738   7.053   4.979  10.245
    1ECLIP H59S15739   6.974   4.820  10.261
    1ECLIP C51015740   7.175   4.811  10.177
    1ECLIPH510R15741   7.173   4.701  10.187
    1ECLIPH510S15742   7.276   4.844  10.210
    1ECLIP C51115743   7.156   4.851  10.031
    1ECLIPH511R15744   7.134   4.762   9.969
    1ECLIPH511S15745   7.065   4.916  10.026
    1ECLIP C51215746   7.275   4.930   9.973
    1ECLIPH512R15747   7.233   5.011   9.910
    1ECLIPH512S15748   7.332   4.981  10.053
    1ECLIP C51315749   7.367   4.848   9.883
    1ECLIPH513R15750   7.306   4.771   9.831
    1ECLIPH513S15751   7.442   4.794   9.944
    1ECLIP C51415752   7.436   4.934   9.776
    1ECLIPH514R15753   7.527   4.983   9.817
    1ECLIPH514S15754   7.463   4.872   9.688
    1ECLIPH514T15755   7.367   5.013   9.740
    1ECLIP  C3315756   7.398   4.468  11.246
    1ECLIP H33R15757   7.480   4.425  11.306
    1ECLIP  O3315758   7.335   4.569  11.321
    1ECLIP HO3315759   7.312   4.544  11.411
    1ECLIP  C3415760   7.459   4.531  11.117
    1ECLIP H34R15761   7.376   4.559  11.048
    1ECLIP H34S15762   7.519   4.454  11.065
    1ECLIP  C3515763   7.544   4.659  11.136
    1ECLIP H35R15764   7.645   4.633  11.175
    1ECLIP H35S15765   7.497   4.724  11.213
    1ECLIP  C3615766   7.554   4.742  11.007
    1ECLIP H36R15767   7.450   4.758  10.970
    1ECLIP H36S15768   7.607   4.685  10.927
    1ECLIP  C3715769   7.615   4.883  11.018
    1ECLIP H37R15770   7.725   4.876  11.033
    1ECLIP H37S15771   7.573   4.933  11.108
    1ECLIP  C3815772   7.585   4.971  10.894
    1ECLIP H38R15773   7.476   4.988  10.890
    1ECLIP H38S15774   7.635   5.069  10.908
    1ECLIP  C3915775   7.631   4.909  10.761
    1ECLIP H39R15776   7.581   4.810  10.748
    1ECLIP H39S15777   7.741   4.893  10.765
    1ECLIP C31015778   7.599   4.994  10.637
    1ECLIPH310R15779   7.666   5.083  10.638
    1ECLIPH310S15780   7.494   5.030  10.643
    1ECLIP C31115781   7.617   4.916  10.506
    1ECLIPH311R15782   7.715   4.863  10.507
    1ECLIPH311S15783   7.537   4.838  10.500
    1ECLIP C31215784   7.610   5.006  10.382
    1ECLIPH312R15785   7.519   5.070  10.388
    1ECLIPH312S15786   7.698   5.074  10.383
    1ECLIP C31315787   7.606   4.928  10.250
    1ECLIPH313R15788   7.693   4.859  10.246
    1ECLIPH313S15789   7.514   4.866  10.248
    1ECLIP C31415790   7.609   5.020  10.127
    1ECLIPH314R15791   7.703   5.080  10.126
    1ECLIPH314S15792   7.603   4.961  10.034
    1ECLIPH314T15793   7.523   5.091  10.131
    1ECLIP  C1115794   6.783   4.596  10.942
    1ECLIP  O1115795   6.782   4.718  10.957
    1ECLIP  C1215796   6.708   4.541  10.821
    1ECLIP H12R15797   6.600   4.566  10.837
    1ECLIP H12S15798   6.717   4.431  10.814
    1ECLIP  C1315799   6.753   4.604  10.687
    1ECLIP H13R15800   6.762   4.714  10.697
    1ECLIP  O1315801   6.652   4.576  10.592
    1ECLIP HO1315802   6.680   4.595  10.502
    1ECLIP  C1415803   6.887   4.547  10.634
    1ECLIP H14R15804   6.919   4.469  10.707
    1ECLIP H14S15805   6.963   4.628  10.639
    1ECLIP  C1515806   6.892   4.486  10.493
    1ECLIP H15R15807   6.798   4.429  10.474
    1ECLIP H15S15808   6.975   4.413  10.489
    1ECLIP  C1615809   6.914   4.588  10.383
    1ECLIP H16R15810   7.023   4.611  10.382
    1ECLIP H16S15811   6.861   4.683  10.407
    1ECLIP  C1715812   6.875   4.543  10.242
    1ECLIP H17R15813   6.900   4.436  10.226
    1ECLIP H17S15814   6.938   4.603  10.173
    1ECLIP  C1815815   6.726   4.571  10.212
    1ECLIP H18R15816   6.664   4.500  10.270
    1ECLIP H18S15817   6.703   4.672  10.250
    1ECLIP  C1915818   6.686   4.565  10.064
    1ECLIP H19R15819   6.584   4.607  10.054
    1ECLIP H19S15820   6.681   4.459  10.031
    1ECLIP C11015821   6.780   4.641   9.968
    1ECLIPH110R15822   6.785   4.748   9.995
    1ECLIPH110S15823   6.883   4.600   9.975
    1ECLIP C11115824   6.736   4.625   9.823
    1ECLIPH111R15825   6.742   4.517   9.800
    1ECLIPH111S15826   6.630   4.658   9.812
    1ECLIP C11215827   6.822   4.706   9.725
    1ECLIPH112R15828   6.793   4.813   9.736
    1ECLIPH112S15829   6.929   4.695   9.753
    1ECLIP C11315830   6.806   4.665   9.578
    1ECLIPH113R15831   6.851   4.563   9.568
    1ECLIPH113S15832   6.698   4.657   9.554
    1ECLIP C11415833   6.874   4.754   9.474
    1ECLIPH114R15834   6.859   4.713   9.372
    1ECLIPH114S15835   6.830   4.856   9.479
    1ECLIPH114T15836   6.983   4.762   9.493
    2AKDO    C115837   7.262   4.923  12.022
    2AKDO   O1115838   7.338   5.022  12.041
    2AKDO   O1215839   7.297   4.808  11.982
    2AKDO    C215840   7.116   4.935  12.075
    2AKDO    C615841   6.949   5.081  12.169
    2AKDO    H615842   6.885   5.052  12.083
    2AKDO    O615843   7.087   5.066  12.129
    2AKDO    C315844   7.083   4.836  12.186
    2AKDO   H3115845   7.152   4.856  12.270
    2AKDO   H3215846   7.101   4.734  12.146
    2AKDO    C415847   6.941   4.845  12.234
    2AKDO    H415848   6.872   4.820  12.150
    2AKDO    O415849   6.921   4.754  12.343
    2AKDO    C515850   6.911   4.986  12.283
    2AKDO    H515851   6.800   4.992  12.291
    2AKDO    O515852   6.966   5.016  12.414
    2AKDO    C715853   6.928   5.230  12.187
    2AKDO    H715854   6.989   5.269  12.271
    2AKDO    O715855   6.789   5.261  12.207
    2AKDO   HO715856   6.786   5.346  12.163
    2AKDO    C815857   6.971   5.299  12.059
    2AKDO   H8115858   7.079   5.283  12.041
    2AKDO   H8215859   6.916   5.253  11.974
    2AKDO    O815860   6.947   5.440  12.054
    2AKDO   HO815861   6.980   5.458  11.966
    3AKDO    C115862   6.765   4.589  12.237
    3AKDO   O1115863   6.774   4.493  12.157
    3AKDO   O1215864   6.658   4.630  12.292
    3AKDO    C215865   6.895   4.616  12.322
    3AKDO    C615866   7.128   4.560  12.359
    3AKDO    H615867   7.153   4.668  12.369
    3AKDO    O615868   7.011   4.543  12.275
    3AKDO    C315869   6.866   4.569  12.465
    3AKDO   H3115870   6.831   4.464  12.461
    3AKDO   H3215871   6.781   4.628  12.505
    3AKDO    C415872   6.982   4.585  12.557
    3AKDO    H415873   7.011   4.692  12.565
    3AKDO    O415874   6.945   4.537  12.686
    3AKDO   HO415875   6.861   4.578  12.705
    3AKDO    C515876   7.096   4.507  12.497
    3AKDO    H515877   7.187   4.515  12.561
    3AKDO    O515878   7.063   4.370  12.484
    3AKDO   HO515879   7.008   4.373  12.406
    3AKDO    C715880   7.249   4.490  12.301
    3AKDO    H715881   7.228   4.381  12.289
    3AKDO    O715882   7.362   4.507  12.388
    3AKDO   HO715883   7.430   4.500  12.321
    3AKDO    C815884   7.290   4.544  12.166
    3AKDO   H8115885   7.206   4.537  12.094
    3AKDO   H8215886   7.321   4.651  12.172
    3AKDO    O815887   7.401   4.466  12.118
    3AKDO   HO815888   7.386   4.454  12.024
    4AHEP    C115889   6.883   5.098  12.496
    4AHEP    H115890   6.875   5.198  12.449
    4AHEP    C515891   6.748   4.919  12.579
    4AHEP    H515892   6.818   4.854  12.522
    4AHEP    O515893   6.750   5.047  12.513
    4AHEP    C215894   6.944   5.118  12.634
    4AHEP    H215895   7.050   5.148  12.618
    4AHEP    O215896   6.881   5.223  12.707
    4AHEP   HO215897   6.948   5.270  12.758
    4AHEP    C315898   6.945   4.987  12.711
    4AHEP    H315899   7.009   4.917  12.654
    4AHEP    O315900   7.004   5.015  12.840
    4AHEP    C415901   6.803   4.929  12.722
    4AHEP    H415902   6.739   4.995  12.785
    4AHEP    O415903   6.814   4.797  12.774
    4AHEP    P415904   6.721   4.711  12.878
    4AHEP  OP4215905   6.808   4.589  12.902
    4AHEP  OP4315906   6.591   4.679  12.807
    4AHEP  OP4415907   6.702   4.789  13.005
    4AHEP    C615908   6.610   4.855  12.558
    4AHEP    H615909   6.622   4.745  12.562
    4AHEP    O615910   6.519   4.891  12.663
    4AHEP   HO615911   6.544   4.828  12.731
    4AHEP    C715912   6.549   4.889  12.421
    4AHEP   H7115913   6.461   4.824  12.402
    4AHEP   H7215914   6.624   4.864  12.343
    4AHEP    O715915   6.511   5.026  12.406
    4AHEP   HO715916   6.590   5.072  12.437
    5AHEP    C115917   7.068   4.907  12.901
    5AHEP    H115918   7.047   4.816  12.841
    5AHEP    C515919   7.261   5.017  12.990
    5AHEP    H515920   7.205   5.111  12.967
    5AHEP    O515921   7.211   4.915  12.901
    5AHEP    C215922   7.017   4.881  13.042
    5AHEP    H215923   6.910   4.909  13.036
    5AHEP    O215924   7.011   4.743  13.078
    5AHEP   HO215925   6.918   4.731  13.095
    5AHEP    C315926   7.072   4.981  13.143
    5AHEP    H315927   7.035   5.083  13.119
    5AHEP    O315928   7.041   4.949  13.279
    5AHEP    C415929   7.223   4.981  13.134
    5AHEP    H415930   7.263   4.880  13.157
    5AHEP    O415931   7.283   5.081  13.217
    5AHEP    P415932   7.328   5.053  13.372
    5AHEP  OP4215933   7.247   5.149  13.456
    5AHEP  OP4315934   7.477   5.081  13.382
    5AHEP  OP4415935   7.306   4.906  13.405
    5AHEP    C615936   7.408   5.052  12.965
    5AHEP    H615937   7.444   5.124  13.042
    5AHEP    O615938   7.492   4.936  12.967
    5AHEP   HO615939   7.529   4.941  12.879
    5AHEP    C715940   7.423   5.121  12.829
    5AHEP   H7115941   7.496   5.204  12.841
    5AHEP   H7215942   7.329   5.170  12.796
    5AHEP    O715943   7.477   5.034  12.728
    6AHEP    C115944   7.376   4.971  12.652
    6AHEP    H115945   7.275   5.005  12.682
    6AHEP    C515946   7.516   4.959  12.458
    6AHEP    H515947   7.595   5.009  12.517
    6AHEP    O515948   7.389   4.998  12.512
    6AHEP    C215949   7.385   4.821  12.673
    6AHEP    H215950   7.383   4.800  12.782
    6AHEP    O215951   7.272   4.754  12.616
    6AHEP   HO215952   7.260   4.791  12.528
    6AHEP    C315953   7.518   4.770  12.621
    6AHEP    H315954   7.600   4.821  12.676
    6AHEP    O315955   7.531   4.630  12.645
    6AHEP   HO315956   7.492   4.585  12.569
    6AHEP    C415957   7.529   4.807  12.474
    6AHEP    H415958   7.446   4.758  12.420
    6AHEP    O415959   7.650   4.763  12.414
    6AHEP   HO415960   7.637   4.781  12.321
    6AHEP    C615961   7.538   5.005  12.313
    6AHEP    H615962   7.648   5.014  12.296
    6AHEP    O615963   7.493   4.902  12.224
    6AHEP   HO615964   7.433   4.942  12.160
    6AHEP    C715965   7.476   5.140  12.279
    6AHEP   H7115966   7.507   5.171  12.177
    6AHEP   H7215967   7.516   5.215  12.351
    6AHEP    O715968   7.333   5.144  12.286
    6AHEP   HO715969   7.301   5.108  12.203
    7AGLC    C115970   6.918   4.989  13.332
    7AGLC    H115971   6.879   5.079  13.279
    7AGLC    C515972   6.874   4.760  13.384
    7AGLC    H515973   6.971   4.732  13.339
    7AGLC    O515974   6.824   4.880  13.321
    7AGLC    C215975   6.933   5.018  13.482
    7AGLC    H215976   6.829   5.033  13.520
    7AGLC    O215977   6.997   5.142  13.510
    7AGLC   HO215978   7.090   5.137  13.486
    7AGLC    C315979   6.992   4.900  13.557
    7AGLC    H315980   7.090   4.875  13.511
    7AGLC    O315981   7.009   4.925  13.699
    7AGLC    C415982   6.894   4.786  13.532
    7AGLC    H415983   6.796   4.820  13.571
    7AGLC    O415984   6.931   4.666  13.598
    7AGLC   HO415985   6.853   4.612  13.612
    7AGLC    C615986   6.774   4.649  13.354
    7AGLC   H6115987   6.749   4.652  13.246
    7AGLC   H6215988   6.822   4.551  13.374
    7AGLC    O615989   6.653   4.657  13.431
    7AGLC   HO615990   6.582   4.649  13.368
    8AGLC    C115991   7.142   4.911  13.748
    8AGLC    H115992   7.194   4.829  13.695
    8AGLC    C515993   7.162   5.147  13.798
    8AGLC    H515994   7.059   5.160  13.758
    8AGLC    O515995   7.220   5.032  13.734
    8AGLC    C215996   7.141   4.885  13.898
    8AGLC    H215997   7.246   4.873  13.930
    8AGLC    O215998   7.068   4.768  13.939
    8AGLC    C315999   7.076   4.998  13.975
    8AGLC    H316000   6.974   5.012  13.934
    8AGLC    O316001   7.062   4.963  14.115
    8AGLC    C416002   7.154   5.124  13.949
    8AGLC    H416003   7.258   5.113  13.986
    8AGLC    O416004   7.094   5.236  14.014
    8AGLC   HO416005   7.038   5.280  13.950
    8AGLC    C616006   7.240   5.272  13.760
    8AGLC   H6116007   7.260   5.272  13.650
    8AGLC   H6216008   7.178   5.362  13.779
    8AGLC    O616009   7.365   5.287  13.829
    8AGLC   HO616010   7.432   5.282  13.760
    9AGAL    C116011   7.099   4.642  13.885
    9AGAL    H116012   7.094   4.643  13.774
    9AGAL    C516013   7.245   4.599  14.068
    9AGAL    H516014   7.231   4.704  14.103
    9AGAL    O516015   7.228   4.594  13.926
    9AGAL    C216016   6.990   4.555  13.944
    9AGAL    H216017   7.004   4.451  13.908
    9AGAL    O216018   6.868   4.606  13.887
    9AGAL    C316019   7.003   4.557  14.096
    9AGAL    H316020   6.985   4.660  14.133
    9AGAL    O316021   6.907   4.473  14.159
    9AGAL   HO316022   6.937   4.385  14.137
    9AGAL    C416023   7.142   4.511  14.138
    9AGAL    H416024   7.152   4.528  14.247
    9AGAL    O416025   7.163   4.372  14.116
    9AGAL   HO416026   7.244   4.364  14.064
    9AGAL    C616027   7.391   4.564  14.094
    9AGAL   H6116028   7.455   4.638  14.042
    9AGAL   H6216029   7.411   4.571  14.203
    9AGAL    O616030   7.427   4.432  14.050
    9AGAL   HO616031   7.423   4.427  13.954
   10AGAL    C116032   6.740   4.580  13.939
   10AGAL    H116033   6.731   4.472  13.963
   10AGAL    C516034   6.723   4.801  14.027
   10AGAL    H516035   6.822   4.817  13.980
   10AGAL    O516036   6.712   4.660  14.055
   10AGAL    C216037   6.640   4.615  13.829
   10AGAL    H216038   6.538   4.591  13.867
   10AGAL    O216039   6.663   4.535  13.713
   10AGAL   HO216040   6.618   4.571  13.636
   10AGAL    C316041   6.646   4.764  13.798
   10AGAL    H316042   6.750   4.789  13.766
   10AGAL    O316043   6.555   4.801  13.693
   10AGAL   HO316044   6.598   4.790  13.607
   10AGAL    C416045   6.620   4.845  13.923
   10AGAL    H416046   6.637   4.953  13.900
   10AGAL    O416047   6.484   4.830  13.966
   10AGAL   HO416048   6.432   4.842  13.886
   10AGAL    C616049   6.733   4.880  14.157
   10AGAL   H6116050   6.809   4.830  14.221
   10AGAL   H6216051   6.770   4.982  14.134
   10AGAL    O616052   6.612   4.892  14.231
   10AGAL   HO616053   6.564   4.809  14.227
   11BGLC    C116054   7.165   4.996  14.206
   11BGLC    H116055   7.168   5.106  14.222
   11BGLC    C516056   7.398   4.979  14.258
   11BGLC    H516057   7.401   5.089  14.275
   11BGLC    O516058   7.293   4.948  14.165
   11BGLC    C216059   7.128   4.926  14.337
   11BGLC    H216060   7.125   4.817  14.318
   11BGLC    O216061   6.998   4.966  14.384
   11BGLC   HO216062   6.938   4.951  14.310
   11BGLC    C316063   7.233   4.953  14.442
   11BGLC    H316064   7.236   5.062  14.466
   11BGLC    O316065   7.212   4.875  14.561
   11BGLC    C416066   7.367   4.909  14.390
   11BGLC    H416067   7.364   4.799  14.371
   11BGLC    O416068   7.468   4.934  14.487
   11BGLC   HO416069   7.424   4.940  14.572
   11BGLC    C616070   7.531   4.937  14.199
   11BGLC   H6116071   7.612   4.952  14.273
   11BGLC   H6216072   7.529   4.829  14.173
   11BGLC    O616073   7.566   5.013  14.083
   11BGLC   HO616074   7.488   5.051  14.041
   12BGLCN   C116075   7.171   4.941  14.678
   12BGLCN   H116076   7.068   4.981  14.665
   12BGLCN   C516077   7.223   5.112  14.834
   12BGLCN   H516078   7.119   5.149  14.825
   12BGLCN   O516079   7.262   5.046  14.712
   12BGLCN   C216080   7.174   4.835  14.787
   12BGLCN   H216081   7.280   4.802  14.796
   12BGLCN    N16082   7.096   4.719  14.743
   12BGLCN   HN16083   7.024   4.736  14.676
   12BGLCN    C16084   7.128   4.591  14.768
   12BGLCN    O16085   7.216   4.558  14.847
   12BGLCN   CT16086   7.048   4.488  14.695
   12BGLCN  HT116087   7.057   4.390  14.746
   12BGLCN  HT216088   7.087   4.476  14.591
   12BGLCN  HT316089   6.941   4.517  14.690
   12BGLCN   C316090   7.134   4.896  14.922
   12BGLCN   H316091   7.029   4.933  14.914
   12BGLCN   O316092   7.141   4.798  15.028
   12BGLCN   C416093   7.229   5.012  14.949
   12BGLCN   H416094   7.332   4.971  14.955
   12BGLCN   O416095   7.203   5.078  15.072
   12BGLCN  HO416096   7.115   5.116  15.071
   12BGLCN   C616097   7.313   5.234  14.851
   12BGLCN  H6116098   7.298   5.279  14.951
   12BGLCN  H6216099   7.420   5.204  14.843
   12BGLCN   O616100   7.282   5.334  14.753
   12BGLCN  HO616101   7.321   5.308  14.669
   13AGAL    C116102   7.054   4.814  15.138
   13AGAL    H116103   7.042   4.921  15.166
   13AGAL    C516104   6.931   4.617  15.076
   13AGAL    H516105   7.002   4.607  14.990
   13AGAL    O516106   6.924   4.757  15.111
   13AGAL    C216107   7.107   4.738  15.259
   13AGAL    H216108   7.026   4.740  15.335
   13AGAL    O216109   7.222   4.802  15.318
   13AGAL    C316110   7.126   4.591  15.224
   13AGAL    H316111   7.191   4.586  15.134
   13AGAL    O316112   7.194   4.518  15.326
   13AGAL   HO316113   7.263   4.466  15.286
   13AGAL    C416114   6.990   4.533  15.190
   13AGAL    H416115   7.004   4.429  15.155
   13AGAL    O416116   6.902   4.531  15.302
   13AGAL   HO416117   6.834   4.597  15.286
   13AGAL    C616118   6.796   4.571  15.023
   13AGAL   H6116119   6.764   4.641  14.943
   13AGAL   H6216120   6.806   4.470  14.977
   13AGAL    O616121   6.692   4.566  15.123
   13AGAL   HO616122   6.694   4.480  15.164
   14ARHM    C116123   7.199   4.863  15.444
   14ARHM    H116124   7.094   4.899  15.449
   14ARHM    C516125   7.418   4.953  15.458
   14ARHM    H516126   7.445   4.908  15.360
   14ARHM    O516127   7.278   4.981  15.461
   14ARHM    C216128   7.225   4.762  15.554
   14ARHM    H216129   7.168   4.670  15.530
   14ARHM    O216130   7.190   4.801  15.688
   14ARHM    C316131   7.373   4.728  15.553
   14ARHM    H316132   7.399   4.682  15.455
   14ARHM    O316133   7.402   4.633  15.655
   14ARHM   HO316134   7.356   4.661  15.735
   14ARHM    C416135   7.454   4.855  15.570
   14ARHM    H416136   7.426   4.903  15.666
   14ARHM    O416137   7.595   4.831  15.574
   14ARHM   HO416138   7.611   4.737  15.560
   14ARHM    C616139   7.488   5.090  15.470
   14ARHM   H6116140   7.457   5.155  15.386
   14ARHM   H6216141   7.460   5.140  15.565
   14ARHM   H6316142   7.598   5.078  15.466
   15ARHM    C116143   7.059   4.845  15.710
   15ARHM    H116144   6.988   4.799  15.638
   15ARHM    C516145   7.138   5.056  15.794
   15ARHM    H516146   7.243   5.028  15.770
   15ARHM    O516147   7.050   4.989  15.702
   15ARHM    C216148   7.020   4.804  15.851
   15ARHM    H216149   7.026   4.693  15.859
   15ARHM    O216150   6.883   4.844  15.872
   15ARHM    C316151   7.117   4.866  15.949
   15ARHM    H316152   7.220   4.836  15.918
   15ARHM    O316153   7.096   4.815  16.081
   15ARHM    C416154   7.106   5.016  15.938
   15ARHM    H416155   7.001   5.046  15.959
   15ARHM    O416156   7.188   5.082  16.034
   15ARHM   HO416157   7.257   5.133  15.992
   15ARHM    C616158   7.124   5.207  15.767
   15ARHM   H6116159   7.194   5.265  15.830
   15ARHM   H6216160   7.148   5.229  15.661
   15ARHM   H6316161   7.020   5.241  15.787
   16BMANN   C116162   6.825   4.818  15.997
   16BMANN   H116163   6.872   4.882  16.075
   16BMANN   C516164   6.779   4.655  16.165
   16BMANN   H516165   6.830   4.721  16.239
   16BMANN   O516166   6.835   4.679  16.035
   16BMANN   C216167   6.679   4.856  15.986
   16BMANN   H216168   6.678   4.966  15.968
   16BMANN    N16169   6.614   4.789  15.874
   16BMANN   HN16170   6.622   4.689  15.871
   16BMANN    C16171   6.551   4.851  15.774
   16BMANN    O16172   6.533   4.972  15.773
   16BMANN   CT16173   6.504   4.766  15.659
   16BMANN  HT116174   6.401   4.797  15.630
   16BMANN  HT216175   6.504   4.658  15.687
   16BMANN  HT316176   6.571   4.780  15.572
   16BMANN   C316177   6.613   4.833  16.121
   16BMANN   H316178   6.666   4.895  16.197
   16BMANN   O316179   6.477   4.876  16.119
   16BMANN  HO316180   6.472   4.967  16.151
   16BMANN   C416181   6.630   4.687  16.164
   16BMANN   H416182   6.578   4.622  16.091
   16BMANN   O416183   6.574   4.663  16.294
   16BMANN  HO416184   6.582   4.571  16.319
   16BMANN   C616185   6.810   4.511  16.204
   16BMANN  H6116186   6.770   4.490  16.305
   16BMANN  H6216187   6.762   4.441  16.132
   16BMANN   O616188   6.951   4.484  16.209
   16BMANN  HO616189   6.982   4.474  16.118
   17BGLCN   C116190   7.215   4.793  16.152
   17BGLCN   H116191   7.290   4.871  16.129
   17BGLCN   C516192   7.390   4.636  16.197
   17BGLCN   H516193   7.466   4.711  16.167
   17BGLCN   O516194   7.268   4.662  16.125
   17BGLCN   C216195   7.180   4.799  16.299
   17BGLCN   H216196   7.115   4.711  16.320
   17BGLCN    N16197   7.101   4.918  16.330
   17BGLCN   HN16198   7.112   4.995  16.268
   17BGLCN    C16199   7.009   4.923  16.427
   17BGLCN    O16200   6.982   4.828  16.499
   17BGLCN   CT16201   6.939   5.055  16.446
   17BGLCN  HT116202   6.830   5.042  16.431
   17BGLCN  HT216203   6.976   5.130  16.373
   17BGLCN  HT316204   6.956   5.092  16.549
   17BGLCN   C316205   7.309   4.784  16.379
   17BGLCN   H316206   7.381   4.860  16.340
   17BGLCN   O316207   7.285   4.810  16.518
   17BGLCN   C416208   7.366   4.646  16.347
   17BGLCN   H416209   7.290   4.570  16.377
   17BGLCN   O416210   7.486   4.619  16.417
   17BGLCN  HO416211   7.486   4.526  16.443
   17BGLCN   C616212   7.438   4.499  16.153
   17BGLCN  H6116213   7.540   4.481  16.194
   17BGLCN  H6216214   7.370   4.421  16.192
   17BGLCN   O616215   7.444   4.488  16.011
   17BGLCN  HO616216   7.356   4.504  15.976
   18AGAL    C116217   7.394   4.861  16.593
   18AGAL    H116218   7.471   4.782  16.606
   18AGAL    C516219   7.364   5.087  16.517
   18AGAL    H516220   7.279   5.052  16.454
   18AGAL    O516221   7.456   4.977  16.534
   18AGAL    C216222   7.345   4.903  16.731
   18AGAL    H216223   7.435   4.945  16.782
   18AGAL    O216224   7.298   4.792  16.810
   18AGAL    C316225   7.241   5.013  16.718
   18AGAL    H316226   7.158   4.975  16.655
   18AGAL    O316227   7.185   5.050  16.844
   18AGAL   HO316228   7.093   5.075  16.834
   18AGAL    C416229   7.306   5.132  16.651
   18AGAL    H416230   7.228   5.208  16.630
   18AGAL    O416231   7.403   5.193  16.737
   18AGAL   HO416232   7.365   5.190  16.825
   18AGAL    C616233   7.431   5.197  16.437
   18AGAL   H6116234   7.467   5.158  16.339
   18AGAL   H6216235   7.357   5.278  16.416
   18AGAL    O616236   7.541   5.255  16.507
   18AGAL   HO616237   7.513   5.263  16.599
   19ARHM    C116238   7.333   4.804  16.945
   19ARHM    H116239   7.338   4.911  16.975
   19ARHM    C516240   7.466   4.606  16.943
   19ARHM    H516241   7.439   4.590  16.837
   19ARHM    O516242   7.462   4.746  16.974
   19ARHM    C216243   7.227   4.735  17.029
   19ARHM    H216244   7.129   4.770  16.991
   19ARHM    O216245   7.236   4.766  17.169
   19ARHM    C316246   7.228   4.586  17.004
   19ARHM    H316247   7.202   4.568  16.898
   19ARHM    O316248   7.129   4.523  17.085
   19ARHM   HO316249   7.156   4.535  17.177
   19ARHM    C416250   7.366   4.532  17.031
   19ARHM    H416251   7.393   4.552  17.137
   19ARHM    O416252   7.375   4.391  17.011
   19ARHM   HO416253   7.325   4.370  16.931
   19ARHM    C616254   7.612   4.564  16.962
   19ARHM   H6116255   7.676   4.616  16.888
   19ARHM   H6216256   7.648   4.589  17.064
   19ARHM   H6316257   7.622   4.454  16.947
   20ARHM    C116258   7.185   4.894  17.199
   20ARHM    H116259   7.112   4.926  17.122
   20ARHM    C516260   7.384   4.972  17.306
   20ARHM    H516261   7.430   4.872  17.290
   20ARHM    O516262   7.287   4.996  17.204
   20ARHM    C216263   7.115   4.888  17.333
   20ARHM    H216264   7.046   4.800  17.332
   20ARHM    O216265   7.036   5.005  17.360
   20ARHM    C316266   7.213   4.865  17.445
   20ARHM    H316267   7.262   4.766  17.430
   20ARHM    O316268   7.141   4.866  17.568
   20ARHM    C416269   7.316   4.975  17.441
   20ARHM    H416270   7.262   5.072  17.451
   20ARHM    O416271   7.410   4.968  17.549
   20ARHM   HO416272   7.451   5.054  17.554
   20ARHM    C616273   7.496   5.077  17.288
   20ARHM   H6116274   7.455   5.179  17.305
   20ARHM   H6216275   7.579   5.059  17.360
   20ARHM   H6316276   7.537   5.072  17.185
   21BMANN   C116277   6.921   5.014  17.280
   21BMANN   H116278   6.902   4.920  17.225
   21BMANN   C516279   6.818   5.134  17.102
   21BMANN   H516280   6.802   5.037  17.051
   21BMANN   O516281   6.934   5.123  17.187
   21BMANN   C216282   6.805   5.043  17.373
   21BMANN   H216283   6.794   4.954  17.439
   21BMANN    N16284   6.836   5.156  17.461
   21BMANN   HN16285   6.922   5.201  17.439
   21BMANN    C16286   6.769   5.192  17.571
   21BMANN    O16287   6.658   5.148  17.600
   21BMANN   CT16288   6.834   5.294  17.660
   21BMANN  HT116289   6.792   5.395  17.640
   21BMANN  HT216290   6.944   5.296  17.643
   21BMANN  HT316291   6.815   5.267  17.766
   21BMANN   C316292   6.680   5.054  17.288
   21BMANN   H316293   6.669   4.959  17.231
   21BMANN   O316294   6.562   5.063  17.368
   21BMANN  HO316295   6.587   5.101  17.452
   21BMANN   C416296   6.695   5.165  17.186
   21BMANN   H416297   6.709   5.262  17.239
   21BMANN   O416298   6.581   5.176  17.101
   21BMANN  HO416299   6.577   5.262  17.059
   21BMANN   C616300   6.844   5.236  16.994
   21BMANN  H6116301   6.764   5.234  16.918
   21BMANN  H6216302   6.845   5.338  17.040
   21BMANN   O616303   6.969   5.212  16.928
   21BMANN  HO616304   7.039   5.217  16.994
   22BGLCN   C116305   7.182   4.771  17.663
   22BGLCN   H116306   7.291   4.753  17.657
   22BGLCN   C516307   7.144   4.552  17.745
   22BGLCN   H516308   7.254   4.536  17.743
   22BGLCN   O516309   7.109   4.649  17.646
   22BGLCN   C216310   7.146   4.833  17.795
   22BGLCN   H216311   7.036   4.851  17.796
   22BGLCN    N16312   7.213   4.962  17.808
   22BGLCN   HN16313   7.295   4.974  17.751
   22BGLCN    C16314   7.166   5.068  17.875
   22BGLCN    O16315   7.059   5.068  17.934
   22BGLCN   CT16316   7.254   5.190  17.878
   22BGLCN  HT116317   7.202   5.273  17.826
   22BGLCN  HT216318   7.351   5.170  17.826
   22BGLCN  HT316319   7.274   5.219  17.983
   22BGLCN   C316320   7.180   4.736  17.907
   22BGLCN   H316321   7.289   4.716  17.904
   22BGLCN   O316322   7.147   4.802  18.030
   22BGLCN   C416323   7.106   4.605  17.883
   22BGLCN   H416324   6.996   4.625  17.885
   22BGLCN   O416325   7.136   4.507  17.981
   22BGLCN  HO416326   7.056   4.470  18.018
   22BGLCN   C616327   7.078   4.422  17.706
   22BGLCN  H6116328   7.098   4.343  17.782
   22BGLCN  H6216329   6.967   4.435  17.699
   22BGLCN   O616330   7.127   4.375  17.580
   22BGLCN  HO616331   7.089   4.431  17.511
   23AGAL    C116332   7.197   4.751  18.152
   23AGAL    H116333   7.146   4.655  18.176
   23AGAL    C516334   7.411   4.853  18.125
   23AGAL    H516335   7.372   4.898  18.031
   23AGAL    O516336   7.340   4.730  18.149
   23AGAL    C216337   7.162   4.849  18.262
   23AGAL    H216338   7.195   4.805  18.359
   23AGAL    O216339   7.021   4.873  18.264
   23AGAL    C316340   7.235   4.980  18.242
   23AGAL    H316341   7.201   5.025  18.147
   23AGAL    O316342   7.206   5.074  18.345
   23AGAL   HO316343   7.269   5.059  18.416
   23AGAL    C416344   7.384   4.954  18.237
   23AGAL    H416345   7.436   5.050  18.211
   23AGAL    O416346   7.434   4.909  18.363
   23AGAL   HO416347   7.514   4.860  18.342
   23AGAL    C616348   7.558   4.823  18.096
   23AGAL   H6116349   7.564   4.731  18.034
   23AGAL   H6216350   7.602   4.906  18.036
   23AGAL    O616351   7.639   4.807  18.213
   23AGAL   HO616352   7.703   4.737  18.199
   24ARHM    C116353   6.946   4.804  18.361
   24ARHM    H116354   6.987   4.701  18.372
   24ARHM    C516355   6.746   4.916  18.303
   24ARHM    H516356   6.799   4.974  18.224
   24ARHM    O516357   6.810   4.789  18.320
   24ARHM    C216358   6.956   4.878  18.492
   24ARHM    H216359   7.062   4.897  18.517
   24ARHM    O216360   6.896   4.800  18.597
   24ARHM    C316361   6.890   5.013  18.478
   24ARHM    H316362   6.944   5.072  18.401
   24ARHM    O316363   6.898   5.084  18.601
   24ARHM   HO316364   6.839   5.159  18.593
   24ARHM    C416365   6.747   4.995  18.433
   24ARHM    H416366   6.691   4.937  18.510
   24ARHM    O416367   6.683   5.122  18.416
   24ARHM   HO416368   6.588   5.111  18.416
   24ARHM    C616369   6.605   4.884  18.251
   24ARHM   H6116370   6.549   4.978  18.228
   24ARHM   H6216371   6.612   4.825  18.157
   24ARHM   H6316372   6.547   4.827  18.327
   25ARHM    C116373   6.984   4.708  18.655
   25ARHM    H116374   7.069   4.689  18.586
   25ARHM    C516375   6.814   4.587  18.766
   25ARHM    H516376   6.738   4.658  18.726
   25ARHM    O516377   6.923   4.580  18.674
   25ARHM    C216378   7.037   4.765  18.784
   25ARHM    H216379   7.070   4.869  18.766
   25ARHM    O216380   7.147   4.689  18.837
   25ARHM    C316381   6.925   4.774  18.884
   25ARHM    H316382   6.849   4.846  18.846
   25ARHM    O316383   6.982   4.825  19.005
   25ARHM    C416384   6.862   4.637  18.902
   25ARHM    H416385   6.940   4.567  18.940
   25ARHM    O416386   6.755   4.640  18.996
   25ARHM   HO416387   6.717   4.552  19.002
   25ARHM    C616388   6.751   4.447  18.768
   25ARHM   H6116389   6.725   4.416  18.664
   25ARHM   H6216390   6.823   4.373  18.809
   25ARHM   H6316391   6.658   4.445  18.829
   26BMANN   C116392   7.268   4.711  18.769
   26BMANN   H116393   7.270   4.813  18.725
   26BMANN   C516394   7.407   4.636  18.591
   26BMANN   H516395   7.398   4.738  18.548
   26BMANN   O516396   7.288   4.612  18.666
   26BMANN   C216397   7.383   4.697  18.867
   26BMANN   H216398   7.368   4.775  18.946
   26BMANN    N16399   7.379   4.567  18.932
   26BMANN   HN16400   7.333   4.496  18.879
   26BMANN    C16401   7.419   4.541  19.056
   26BMANN    O16402   7.472   4.624  19.129
   26BMANN   CT16403   7.392   4.401  19.106
   26BMANN  HT116404   7.313   4.353  19.045
   26BMANN  HT216405   7.359   4.405  19.212
   26BMANN  HT316406   7.485   4.341  19.099
   26BMANN   C316407   7.512   4.730  18.792
   26BMANN   H316408   7.501   4.831  18.748
   26BMANN   O316409   7.627   4.735  18.878
   26BMANN  HO316410   7.641   4.827  18.901
   26BMANN   C416411   7.530   4.631  18.679
   26BMANN   H416412   7.545   4.529  18.721
   26BMANN   O416413   7.642   4.665  18.597
   26BMANN  HO416414   7.722   4.670  18.649
   26BMANN   C616415   7.413   4.540  18.473
   26BMANN  H6116416   7.310   4.517  18.438
   26BMANN  H6216417   7.466   4.589  18.389
   26BMANN   O616418   7.481   4.417  18.502
   26BMANN  HO616419   7.562   4.415  18.451
   27BGLCN   C116420   6.902   4.909  19.083
   27BGLCN   H116421   6.795   4.880  19.076
   27BGLCN   C516422   6.843   5.136  19.130
   27BGLCN   H516423   6.736   5.108  19.124
   27BGLCN   O516424   6.920   5.047  19.047
   27BGLCN   C216425   6.954   4.888  19.223
   27BGLCN   H216426   7.060   4.922  19.225
   27BGLCN    N16427   6.953   4.746  19.255
   27BGLCN   HN16428   6.896   4.690  19.196
   27BGLCN    C16429   7.038   4.685  19.339
   27BGLCN    O16430   7.117   4.745  19.412
   27BGLCN   CT16431   7.035   4.535  19.340
   27BGLCN  HT116432   6.930   4.498  19.326
   27BGLCN  HT216433   7.075   4.498  19.437
   27BGLCN  HT316434   7.099   4.496  19.258
   27BGLCN   C316435   6.876   4.976  19.319
   27BGLCN   H316436   6.769   4.948  19.307
   27BGLCN   O316437   6.920   4.947  19.453
   27BGLCN   C416438   6.890   5.121  19.275
   27BGLCN   H416439   6.997   5.150  19.281
   27BGLCN   O416440   6.817   5.211  19.359
   27BGLCN  HO416441   6.734   5.170  19.384
   27BGLCN   C616442   6.859   5.277  19.076
   27BGLCN  H6116443   6.818   5.350  19.148
   27BGLCN  H6216444   6.967   5.299  19.063
   27BGLCN   O616445   6.791   5.295  18.951
   27BGLCN  HO616446   6.820   5.378  18.912
   28AGAL    C116447   6.843   4.993   0.088
   28AGAL    H116448   6.862   5.102   0.103
   28AGAL    C516449   6.666   4.835   0.053
   28AGAL    H516450   6.723   4.787  19.443
   28AGAL    O516451   6.702   4.975   0.063
   28AGAL    C216452   6.878   4.923   0.218
   28AGAL    H216453   6.807   4.967   0.291
   28AGAL    O216454   7.012   4.948   0.266
   28AGAL    C316455   6.849   4.775   0.206
   28AGAL    H316456   6.906   4.735   0.119
   28AGAL    O316457   6.891   4.702   0.321
   28AGAL   HO316458   6.983   4.677   0.310
   28AGAL    C416459   6.701   4.757   0.180
   28AGAL    H416460   6.682   4.649   0.161
   28AGAL    O416461   6.621   4.794   0.292
   28AGAL   HO416462   6.663   4.756   0.370
   28AGAL    C616463   6.519   4.826   0.015
   28AGAL   H6116464   6.505   4.863  19.384
   28AGAL   H6216465   6.485   4.720   0.017
   28AGAL    O616466   6.435   4.904   0.101
   28AGAL   HO616467   6.463   4.887   0.191
   29ARHM    C116468   7.015   4.981   0.403
   29ARHM    H116469   6.929   4.932   0.454
   29ARHM    C516470   7.119   5.194   0.367
   29ARHM    H516471   7.121   5.178   0.257
   29ARHM    O516472   7.007   5.123   0.423
   29ARHM    C216473   7.142   4.930   0.469
   29ARHM    H216474   7.148   4.821   0.452
   29ARHM    O216475   7.141   4.959   0.611
   29ARHM    C316476   7.261   4.996   0.403
   29ARHM    H316477   7.255   4.977   0.294
   29ARHM    O316478   7.384   4.940   0.448
   29ARHM   HO316479   7.453   4.978   0.392
   29ARHM    C416480   7.250   5.145   0.427
   29ARHM    H416481   7.247   5.164   0.536
   29ARHM    O416482   7.363   5.217   0.375
   29ARHM   HO416483   7.397   5.171   0.299
   29ARHM    C616484   7.089   5.343   0.393
   29ARHM   H6116485   6.995   5.372   0.341
   29ARHM   H6216486   7.073   5.360   0.502
   29ARHM   H6316487   7.172   5.407   0.357
   30ARHM    C116488   7.100   4.853   0.693
   30ARHM    H116489   7.162   4.764   0.669
   30ARHM    C516490   6.872   4.924   0.708
   30ARHM    H516491   6.895   5.016   0.649
   30ARHM    O516492   6.962   4.818   0.673
   30ARHM    C216493   7.120   4.888   0.839
   30ARHM    H216494   7.225   4.923   0.853
   30ARHM    O216495   7.095   4.775   0.923
   30ARHM    C316496   7.027   5.000   0.882
   30ARHM    H316497   7.050   5.088   0.817
   30ARHM    O316498   7.053   5.042   1.018
   30ARHM    C416499   6.884   4.959   0.855
   30ARHM    H416500   6.856   4.869   0.914
   30ARHM    O416501   6.793   5.064   0.888
   30ARHM   HO416502   6.758   5.047   0.975
   30ARHM    C616503   6.731   4.877   0.667
   30ARHM   H6116504   6.657   4.957   0.684
   30ARHM   H6216505   6.729   4.849   0.559
   30ARHM   H6316506   6.702   4.788   0.727
   31BMANN   C116507   7.201   4.688   0.952
   31BMANN   H116508   7.295   4.743   0.974
   31BMANN   C516509   7.315   4.490   0.880
   31BMANN   H516510   7.411   4.538   0.907
   31BMANN   O516511   7.218   4.592   0.848
   31BMANN   C216512   7.147   4.616   1.073
   31BMANN   H216513   7.140   4.690   1.155
   31BMANN    N16514   7.013   4.566   1.047
   31BMANN   HN16515   6.985   4.567   0.952
   31BMANN    C16516   6.923   4.534   1.141
   31BMANN    O16517   6.952   4.530   1.260
   31BMANN   CT16518   6.784   4.503   1.093
   31BMANN  HT116519   6.782   4.403   1.045
   31BMANN  HT216520   6.752   4.580   1.019
   31BMANN  HT316521   6.714   4.505   1.179
   31BMANN   C316522   7.249   4.512   1.115
   31BMANN   H316523   7.347   4.562   1.130
   31BMANN   O316524   7.217   4.455   1.242
   31BMANN  HO316525   7.122   4.459   1.256
   31BMANN   C416526   7.268   4.411   1.003
   31BMANN   H416527   7.171   4.362   0.979
   31BMANN   O416528   7.360   4.309   1.038
   31BMANN  HO416529   7.317   4.254   1.104
   31BMANN   C616530   7.340   4.405   0.756
   31BMANN  H6116531   7.404   4.318   0.782
   31BMANN  H6216532   7.243   4.366   0.718
   31BMANN   O616533   7.404   4.481   0.653
   31BMANN  HO616534   7.485   4.518   0.688
   32BGLCN   C116535   6.988   4.972   1.123
   32BGLCN   H116536   6.986   4.863   1.102
   32BGLCN   C516537   6.786   4.941   1.248
   32BGLCN   H516538   6.786   4.834   1.219
   32BGLCN   O516539   6.854   5.017   1.146
   32BGLCN   C216540   7.066   4.997   1.251
   32BGLCN   H216541   7.048   5.103   1.278
   32BGLCN    N16542   7.209   4.979   1.229
   32BGLCN   HN16543   7.235   4.907   1.167
   32BGLCN    C16544   7.303   5.063   1.275
   32BGLCN    O16545   7.279   5.155   1.352
   32BGLCN   CT16546   7.443   5.039   1.225
   32BGLCN  HT116547   7.443   4.978   1.133
   32BGLCN  HT216548   7.503   4.988   1.304
   32BGLCN  HT316549   7.490   5.137   1.203
   32BGLCN   C316550   7.004   4.911   1.360
   32BGLCN   H316551   7.003   4.806   1.322
   32BGLCN   O316552   7.078   4.913   1.484
   32BGLCN   C416553   6.860   4.956   1.380
   32BGLCN   H416554   6.860   5.063   1.410
   32BGLCN   O416555   6.795   4.881   1.482
   32BGLCN  HO416556   6.738   4.937   1.534
   32BGLCN   C616557   6.642   4.988   1.252
   32BGLCN  H6116558   6.587   4.934   1.332
   32BGLCN  H6216559   6.638   5.096   1.275
   32BGLCN   O616560   6.576   4.964   1.127
   32BGLCN  HO616561   6.495   4.915   1.140
   33AGAL    C116562   7.092   4.784   1.539
   33AGAL    H116563   6.998   4.726   1.527
   33AGAL    C516564   7.326   4.774   1.493
   33AGAL    H516565   7.315   4.882   1.467
   33AGAL    O516566   7.198   4.712   1.472
   33AGAL    C216567   7.125   4.789   1.687
   33AGAL    H216568   7.131   4.683   1.720
   33AGAL    O216569   7.018   4.853   1.761
   33AGAL    C316570   7.260   4.854   1.712
   33AGAL    H316571   7.256   4.956   1.668
   33AGAL    O316572   7.289   4.873   1.851
   33AGAL   HO316573   7.302   4.787   1.892
   33AGAL    C416574   7.368   4.776   1.640
   33AGAL    H416575   7.465   4.830   1.650
   33AGAL    O416576   7.386   4.644   1.693
   33AGAL   HO416577   7.342   4.634   1.778
   33AGAL    C616578   7.428   4.723   1.393
   33AGAL   H6116579   7.389   4.740   1.290
   33AGAL   H6216580   7.521   4.784   1.404
   33AGAL    O616581   7.463   4.586   1.405
   33AGAL   HO616582   7.383   4.533   1.403
   34ARHM    C116583   6.989   4.787   1.882
   34ARHM    H116584   7.083   4.772   1.938
   34ARHM    C516585   6.803   4.665   1.794
   34ARHM    H516586   6.817   4.710   1.694
   34ARHM    O516587   6.930   4.658   1.861
   34ARHM    C216588   6.897   4.874   1.965
   34ARHM    H216589   6.942   4.975   1.974
   34ARHM    O216590   6.877   4.823   2.099
   34ARHM    C316591   6.763   4.888   1.896
   34ARHM    H316592   6.779   4.934   1.796
   34ARHM    O316593   6.676   4.974   1.970
   34ARHM   HO316594   6.678   5.063   1.934
   34ARHM    C416595   6.705   4.749   1.874
   34ARHM    H416596   6.689   4.701   1.973
   34ARHM    O416597   6.579   4.756   1.808
   34ARHM   HO416598   6.522   4.814   1.859
   34ARHM    C616599   6.760   4.518   1.776
   34ARHM   H6116600   6.748   4.469   1.874
   34ARHM   H6216601   6.664   4.513   1.720
   34ARHM   H6316602   6.838   4.463   1.718
   35ARHM    C116603   6.993   4.806   2.177
   35ARHM    H116604   7.066   4.886   2.156
   35ARHM    C516605   6.962   4.569   2.178
   35ARHM    H516606   6.873   4.579   2.113
   35ARHM    O516607   7.053   4.677   2.155
   35ARHM    C216608   6.948   4.814   2.321
   35ARHM    H216609   6.894   4.910   2.334
   35ARHM    O216610   7.057   4.808   2.415
   35ARHM    C316611   6.851   4.703   2.354
   35ARHM    H316612   6.762   4.713   2.288
   35ARHM    O316613   6.805   4.711   2.489
   35ARHM   HO316614   6.876   4.681   2.547
   35ARHM    C416615   6.918   4.570   2.324
   35ARHM    H416616   7.009   4.562   2.387
   35ARHM    O416617   6.834   4.460   2.355
   35ARHM   HO416618   6.755   4.491   2.400
   35ARHM    C616619   7.036   4.441   2.136
   35ARHM   H6116620   7.063   4.446   2.028
   35ARHM   H6216621   7.129   4.427   2.196
   35ARHM   H6316622   6.971   4.352   2.150
   36BMANN   C116623   7.134   4.925   2.421
   36BMANN   H116624   7.077   5.012   2.382
   36BMANN   C516625   7.336   5.033   2.353
   36BMANN   H516626   7.279   5.115   2.307
   36BMANN   O516627   7.257   4.912   2.348
   36BMANN   C216628   7.169   4.947   2.567
   36BMANN   H216629   7.073   4.957   2.623
   36BMANN    N16630   7.247   4.836   2.620
   36BMANN   HN16631   7.329   4.816   2.568
   36BMANN    C16632   7.223   4.768   2.733
   36BMANN    O16633   7.120   4.778   2.798
   36BMANN   CT16634   7.331   4.672   2.775
   36BMANN  HT116635   7.426   4.695   2.722
   36BMANN  HT216636   7.300   4.568   2.751
   36BMANN  HT316637   7.347   4.680   2.884
   36BMANN   C316638   7.243   5.080   2.578
   36BMANN   H316639   7.180   5.161   2.535
   36BMANN   O316640   7.269   5.112   2.714
   36BMANN  HO316641   7.195   5.162   2.750
   36BMANN   C416642   7.371   5.070   2.497
   36BMANN   H416643   7.437   4.992   2.541
   36BMANN   O416644   7.442   5.193   2.497
   36BMANN  HO416645   7.484   5.202   2.583
   36BMANN   C616646   7.461   5.007   2.269
   36BMANN  H6116647   7.429   4.971   2.169
   36BMANN  H6216648   7.516   5.102   2.255
   36BMANN   O616649   7.549   4.910   2.328
   36BMANN  HO616650   7.610   4.877   2.261
    1ECLIP HB6S16651   1.622   5.602  11.816
    1ECLIP  OB616652   1.580   5.451  11.951
    1ECLIP  CB616653   1.665   5.505  11.849
    1ECLIP HB6R16654   1.766   5.527  11.889
    1ECLIP  CB516655   1.683   5.419  11.724
    1ECLIP  OB516656   1.556   5.373  11.681
    1ECLIP  HB516657   1.747   5.332  11.750
    1ECLIP  CB116658   1.562   5.286  11.568
    1ECLIP  HB116659   1.623   5.196  11.594
    1ECLIP  OA616660   1.431   5.243  11.541
    1ECLIP  CA616661   1.331   5.347  11.555
    1ECLIP HA6R16662   1.371   5.445  11.588
    1ECLIP HA6S16663   1.257   5.315  11.632
    1ECLIP  CB416664   1.740   5.495  11.604
    1ECLIP  HB416665   1.665   5.572  11.575
    1ECLIP  OB416666   1.859   5.551  11.656
    1ECLIP   PB16667   1.897   5.708  11.634
    1ECLIP OPB416668   1.926   5.781  11.762
    1ECLIP OPB316669   1.787   5.784  11.561
    1ECLIP OPB216670   2.015   5.714  11.540
    1ECLIP  CB316671   1.760   5.403  11.483
    1ECLIP  OB316672   1.819   5.478  11.374
    1ECLIP  HB316673   1.824   5.319  11.517
    1ECLIP  C7116674   1.891   5.405  11.287
    1ECLIP  O7116675   1.912   5.286  11.298
    1ECLIP  C7216676   1.907   5.473  11.151
    1ECLIP H72R16677   1.831   5.429  11.083
    1ECLIP H72S16678   2.008   5.445  11.114
    1ECLIP  CB216679   1.621   5.352  11.443
    1ECLIP  HB216680   1.560   5.442  11.421
    1ECLIP  NB216681   1.619   5.265  11.323
    1ECLIP HNB216682   1.639   5.168  11.338
    1ECLIP  CA416683   1.257   5.238  11.345
    1ECLIP  HA416684   1.361   5.209  11.319
    1ECLIP  OA416685   1.204   5.135  11.429
    1ECLIP HOA416686   1.271   5.123  11.497
    1ECLIP  CA516687   1.261   5.366  11.423
    1ECLIP  HA516688   1.158   5.403  11.441
    1ECLIP  OA516689   1.333   5.466  11.350
    1ECLIP  CA116690   1.267   5.498  11.226
    1ECLIP  HA116691   1.346   5.555  11.172
    1ECLIP  OA116692   1.161   5.590  11.239
    1ECLIP OPA216693   1.148   5.664  11.482
    1ECLIP OPA316694   1.310   5.774  11.346
    1ECLIP OPA416695   1.067   5.821  11.303
    1ECLIP   PA16696   1.169   5.717  11.341
    1ECLIP  CA316697   1.182   5.258  11.217
    1ECLIP  HA316698   1.075   5.276  11.239
    1ECLIP  OA316699   1.207   5.129  11.161
    1ECLIP  C3116700   1.132   5.069  11.072
    1ECLIP  O3116701   1.046   5.122  11.003
    1ECLIP  C3216702   1.123   4.921  11.115
    1ECLIP H32R16703   1.080   4.865  11.029
    1ECLIP H32S16704   1.050   4.916  11.199
    1ECLIP  CA216705   1.251   5.370  11.141
    1ECLIP  HA216706   1.354   5.333  11.121
    1ECLIP  NA216707   1.187   5.394  11.013
    1ECLIP HNA216708   1.102   5.344  10.997
    1ECLIP  C7316709   1.892   5.626  11.154
    1ECLIP H73R16710   1.957   5.663  11.236
    1ECLIP  O7316711   1.756   5.657  11.179
    1ECLIP  C8116712   1.731   5.768  11.245
    1ECLIP  O8116713   1.817   5.846  11.290
    1ECLIP  C8216714   1.593   5.814  11.197
    1ECLIP H82R16715   1.570   5.913  11.243
    1ECLIP H82S16716   1.519   5.739  11.231
    1ECLIP  C8316717   1.587   5.822  11.043
    1ECLIP H83R16718   1.592   5.718  11.003
    1ECLIP H83S16719   1.674   5.878  11.003
    1ECLIP  C8416720   1.459   5.885  10.989
    1ECLIP H84R16721   1.457   5.994  11.011
    1ECLIP H84S16722   1.371   5.839  11.039
    1ECLIP  C8516723   1.450   5.859  10.838
    1ECLIP H85R16724   1.434   5.750  10.823
    1ECLIP H85S16725   1.548   5.886  10.792
    1ECLIP  C8616726   1.338   5.936  10.766
    1ECLIP H86R16727   1.366   6.044  10.762
    1ECLIP H86S16728   1.244   5.927  10.824
    1ECLIP  C8716729   1.315   5.884  10.623
    1ECLIP H87R16730   1.255   5.959  10.567
    1ECLIP H87S16731   1.254   5.791  10.630
    1ECLIP  C8816732   1.444   5.850  10.548
    1ECLIP H88R16733   1.491   5.762  10.597
    1ECLIP H88S16734   1.516   5.935  10.556
    1ECLIP  C8916735   1.423   5.815  10.400
    1ECLIP H89R16736   1.338   5.744  10.393
    1ECLIP H89S16737   1.514   5.763  10.364
    1ECLIP C81016738   1.397   5.939  10.313
    1ECLIPH810R16739   1.475   6.015  10.334
    1ECLIPH810S16740   1.300   5.983  10.343
    1ECLIP C81116741   1.393   5.909  10.162
    1ECLIPH811R16742   1.365   6.002  10.109
    1ECLIPH811S16743   1.312   5.835  10.145
    1ECLIP C81216744   1.525   5.855  10.102
    1ECLIPH812R16745   1.508   5.832   9.995
    1ECLIPH812S16746   1.552   5.760  10.152
    1ECLIP C81316747   1.642   5.954  10.113
    1ECLIPH813R16748   1.613   6.049  10.065
    1ECLIPH813S16749   1.661   5.976  10.221
    1ECLIP C81416750   1.772   5.901  10.051
    1ECLIPH814R16751   1.757   5.875   9.944
    1ECLIPH814S16752   1.806   5.811  10.105
    1ECLIPH814T16753   1.852   5.978  10.058
    1ECLIP  C7416754   1.931   5.695  11.020
    1ECLIP H74R16755   2.041   5.698  11.010
    1ECLIP H74S16756   1.898   5.801  11.028
    1ECLIP  C7516757   1.875   5.643  10.885
    1ECLIP H75R16758   1.882   5.727  10.812
    1ECLIP H75S16759   1.768   5.617  10.895
    1ECLIP  C7616760   1.956   5.526  10.825
    1ECLIP H76R16761   1.935   5.433  10.881
    1ECLIP H76S16762   2.064   5.549  10.835
    1ECLIP  C7716763   1.933   5.503  10.674
    1ECLIP H77R16764   1.989   5.580  10.618
    1ECLIP H77S16765   1.825   5.515  10.650
    1ECLIP  C7816766   1.977   5.362  10.630
    1ECLIP H78R16767   2.085   5.350  10.650
    1ECLIP H78S16768   1.924   5.286  10.691
    1ECLIP  C7916769   1.955   5.329  10.481
    1ECLIP H79R16770   1.856   5.279  10.471
    1ECLIP H79S16771   2.032   5.256  10.450
    1ECLIP C71016772   1.959   5.450  10.387
    1ECLIPH710R16773   1.876   5.520  10.413
    1ECLIPH710S16774   2.054   5.505  10.405
    1ECLIP C71116775   1.946   5.414  10.239
    1ECLIPH711R16776   2.035   5.354  10.208
    1ECLIPH711S16777   1.856   5.350  10.225
    1ECLIP C71216778   1.932   5.540  10.152
    1ECLIPH712R16779   2.024   5.601  10.165
    1ECLIPH712S16780   1.846   5.599  10.189
    1ECLIP C71316781   1.915   5.512  10.002
    1ECLIPH713R16782   1.824   5.451   9.988
    1ECLIPH713S16783   1.900   5.610   9.952
    1ECLIP C71416784   2.036   5.442   9.939
    1ECLIPH714R16785   2.130   5.492   9.970
    1ECLIPH714S16786   2.040   5.336   9.971
    1ECLIPH714T16787   2.029   5.447   9.828
    1ECLIP  C5116788   1.602   5.308  11.196
    1ECLIP  O5116789   1.583   5.426  11.172
    1ECLIP  C5216790   1.606   5.206  11.080
    1ECLIP H52R16791   1.711   5.172  11.068
    1ECLIP H52S16792   1.544   5.119  11.111
    1ECLIP  C5316793   1.552   5.258  10.942
    1ECLIP H53R16794   1.455   5.310  10.957
    1ECLIP  O5316795   1.543   5.147  10.851
    1ECLIP  C6116796   1.421   5.115  10.811
    1ECLIP  O6116797   1.317   5.159  10.855
    1ECLIP  C6216798   1.429   5.011  10.699
    1ECLIP H62R16799   1.441   4.911  10.745
    1ECLIP H62S16800   1.519   5.034  10.638
    1ECLIP  C6316801   1.302   5.011  10.610
    1ECLIP H63R16802   1.289   5.111  10.563
    1ECLIP H63S16803   1.213   4.991  10.674
    1ECLIP  C6416804   1.306   4.906  10.498
    1ECLIP H64R16805   1.205   4.899  10.451
    1ECLIP H64S16806   1.329   4.807  10.542
    1ECLIP  C6516807   1.409   4.940  10.389
    1ECLIP H65R16808   1.507   4.958  10.438
    1ECLIP H65S16809   1.380   5.034  10.338
    1ECLIP  C6616810   1.429   4.828  10.286
    1ECLIP H66R16811   1.454   4.734  10.340
    1ECLIP H66S16812   1.517   4.854  10.223
    1ECLIP  C6716813   1.310   4.803  10.193
    1ECLIP H67R16814   1.222   4.769  10.251
    1ECLIP H67S16815   1.338   4.720  10.125
    1ECLIP  C6816816   1.272   4.925  10.109
    1ECLIP H68R16817   1.364   4.984  10.087
    1ECLIP H68S16818   1.204   4.991  10.167
    1ECLIP  C6916819   1.208   4.884   9.976
    1ECLIP H69R16820   1.122   4.817   9.995
    1ECLIP H69S16821   1.284   4.826   9.919
    1ECLIP C61016822   1.161   5.003   9.892
    1ECLIPH610R16823   1.245   5.075   9.881
    1ECLIPH610S16824   1.081   5.056   9.949
    1ECLIP C61116825   1.110   4.964   9.753
    1ECLIPH611R16826   1.013   4.911   9.765
    1ECLIPH611S16827   1.088   5.058   9.696
    1ECLIP C61216828   1.206   4.877   9.672
    1ECLIPH612R16829   1.310   4.916   9.680
    1ECLIPH612S16830   1.205   4.773   9.710
    1ECLIPH612T16831   1.178   4.876   9.564
    1ECLIP  C5416832   1.644   5.362  10.874
    1ECLIP H54R16833   1.743   5.316  10.854
    1ECLIP H54S16834   1.657   5.445  10.946
    1ECLIP  C5516835   1.587   5.424  10.744
    1ECLIP H55R16836   1.638   5.522  10.727
    1ECLIP H55S16837   1.479   5.449  10.758
    1ECLIP  C5616838   1.601   5.338  10.618
    1ECLIP H56R16839   1.520   5.262  10.617
    1ECLIP H56S16840   1.698   5.283  10.622
    1ECLIP  C5716841   1.592   5.416  10.486
    1ECLIP H57R16842   1.678   5.487  10.479
    1ECLIP H57S16843   1.500   5.478  10.488
    1ECLIP  C5816844   1.592   5.322  10.365
    1ECLIP H58R16845   1.688   5.267  10.361
    1ECLIP H58S16846   1.513   5.245  10.381
    1ECLIP  C5916847   1.568   5.390  10.230
    1ECLIP H59R16848   1.644   5.469  10.214
    1ECLIP H59S16849   1.468   5.439  10.232
    1ECLIP C51016850   1.573   5.288  10.116
    1ECLIPH510R16851   1.510   5.200  10.142
    1ECLIPH510S16852   1.679   5.253  10.108
    1ECLIP C51116853   1.529   5.342   9.980
    1ECLIPH511R16854   1.418   5.341   9.973
    1ECLIPH511S16855   1.562   5.448   9.972
    1ECLIP C51216856   1.591   5.264   9.863
    1ECLIPH512R16857   1.560   5.310   9.767
    1ECLIPH512S16858   1.702   5.273   9.871
    1ECLIP C51316859   1.557   5.114   9.860
    1ECLIPH513R16860   1.448   5.104   9.839
    1ECLIPH513S16861   1.576   5.069   9.960
    1ECLIP C51416862   1.637   5.037   9.755
    1ECLIPH514R16863   1.745   5.039   9.780
    1ECLIPH514S16864   1.604   4.931   9.752
    1ECLIPH514T16865   1.623   5.082   9.655
    1ECLIP  C3316866   1.256   4.855  11.159
    1ECLIP H33R16867   1.240   4.746  11.175
    1ECLIP  O3316868   1.297   4.910  11.282
    1ECLIP HO3316869   1.271   5.001  11.294
    1ECLIP  C3416870   1.367   4.873  11.054
    1ECLIP H34R16871   1.380   4.981  11.036
    1ECLIP H34S16872   1.332   4.825  10.959
    1ECLIP  C3516873   1.507   4.816  11.088
    1ECLIP H35R16874   1.501   4.710  11.120
    1ECLIP H35S16875   1.549   4.875  11.173
    1ECLIP  C3616876   1.598   4.830  10.965
    1ECLIP H36R16877   1.568   4.926  10.917
    1ECLIP H36S16878   1.578   4.748  10.892
    1ECLIP  C3716879   1.749   4.846  10.987
    1ECLIP H37R16880   1.796   4.745  10.998
    1ECLIP H37S16881   1.767   4.901  11.082
    1ECLIP  C3816882   1.816   4.924  10.872
    1ECLIP H38R16883   1.781   5.030  10.877
    1ECLIP H38S16884   1.926   4.925  10.888
    1ECLIP  C3916885   1.783   4.870  10.731
    1ECLIP H39R16886   1.674   4.883  10.714
    1ECLIP H39S16887   1.805   4.761  10.728
    1ECLIP C31016888   1.859   4.941  10.618
    1ECLIPH310R16889   1.954   4.886  10.601
    1ECLIPH310S16890   1.884   5.045  10.648
    1ECLIP C31116891   1.780   4.945  10.486
    1ECLIPH311R16892   1.733   4.846  10.468
    1ECLIPH311S16893   1.699   5.021  10.497
    1ECLIP C31216894   1.866   4.982  10.364
    1ECLIPH312R16895   1.916   5.079  10.382
    1ECLIPH312S16896   1.945   4.905  10.350
    1ECLIP C31316897   1.785   4.991  10.233
    1ECLIPH313R16898   1.740   4.892  10.212
    1ECLIPH313S16899   1.702   5.063  10.248
    1ECLIP C31416900   1.870   5.035  10.113
    1ECLIPH314R16901   1.952   4.962  10.096
    1ECLIPH314S16902   1.808   5.041  10.022
    1ECLIPH314T16903   1.915   5.134  10.132
    1ECLIP  C1116904   1.228   5.484  10.923
    1ECLIP  O1116905   1.340   5.534  10.925
    1ECLIP  C1216906   1.128   5.529  10.818
    1ECLIP H12R16907   1.116   5.639  10.833
    1ECLIP H12S16908   1.030   5.481  10.837
    1ECLIP  C1316909   1.178   5.502  10.675
    1ECLIP H13R16910   1.283   5.535  10.663
    1ECLIP  O1316911   1.099   5.582  10.589
    1ECLIP HO1316912   1.005   5.564  10.597
    1ECLIP  C1416913   1.166   5.353  10.633
    1ECLIP H14R16914   1.086   5.307  10.695
    1ECLIP H14S16915   1.261   5.303  10.662
    1ECLIP  C1516916   1.133   5.320  10.485
    1ECLIP H15R16917   1.041   5.376  10.455
    1ECLIP H15S16918   1.107   5.213  10.476
    1ECLIP  C1616919   1.245   5.352  10.385
    1ECLIP H16R16920   1.306   5.259  10.371
    1ECLIP H16S16921   1.311   5.430  10.429
    1ECLIP  C1716922   1.197   5.403  10.247
    1ECLIP H17R16923   1.091   5.373  10.234
    1ECLIP H17S16924   1.257   5.354  10.167
    1ECLIP  C1816925   1.212   5.555  10.235
    1ECLIP H18R16926   1.164   5.598  10.325
    1ECLIP H18S16927   1.319   5.586  10.239
    1ECLIP  C1916928   1.146   5.618  10.112
    1ECLIP H19R16929   1.118   5.723  10.138
    1ECLIP H19S16930   1.051   5.564  10.090
    1ECLIP C11016931   1.224   5.621   9.981
    1ECLIPH110R16932   1.316   5.683   9.994
    1ECLIPH110S16933   1.256   5.519   9.951
    1ECLIP C11116934   1.135   5.682   9.872
    1ECLIPH111R16935   1.073   5.602   9.827
    1ECLIPH111S16936   1.064   5.754   9.920
    1ECLIP C11216937   1.210   5.760   9.764
    1ECLIPH112R16938   1.264   5.844   9.814
    1ECLIPH112S16939   1.287   5.694   9.718
    1ECLIP C11316940   1.116   5.815   9.657
    1ECLIPH113R16941   1.053   5.731   9.621
    1ECLIPH113S16942   1.045   5.887   9.704
    1ECLIP C11416943   1.185   5.881   9.537
    1ECLIPH114R16944   1.227   5.980   9.566
    1ECLIPH114S16945   1.269   5.819   9.500
    1ECLIPH114T16946   1.112   5.895   9.454
    2AKDO    C116947   1.744   5.298  12.044
    2AKDO   O1116948   1.867   5.321  12.064
    2AKDO   O1216949   1.688   5.185  12.046
    2AKDO    C216950   1.648   5.419  12.072
    2AKDO    C616951   1.638   5.642  12.160
    2AKDO    H616952   1.573   5.662  12.073
    2AKDO    O616953   1.722   5.531  12.126
    2AKDO    C316954   1.544   5.383  12.178
    2AKDO   H3116955   1.597   5.344  12.267
    2AKDO   H3216956   1.481   5.302  12.135
    2AKDO    C416957   1.455   5.496  12.218
    2AKDO    H416958   1.400   5.533  12.128
    2AKDO    O416959   1.364   5.451  12.318
    2AKDO    C516960   1.539   5.610  12.274
    2AKDO    H516961   1.471   5.697  12.286
    2AKDO    O516962   1.593   5.576  12.404
    2AKDO    C716963   1.730   5.762  12.166
    2AKDO    H716964   1.811   5.747  12.240
    2AKDO    O716965   1.659   5.883  12.195
    2AKDO   HO716966   1.700   5.941  12.131
    2AKDO    C816967   1.791   5.776  12.028
    2AKDO   H8116968   1.861   5.691  12.011
    2AKDO   H8216969   1.713   5.769  11.949
    2AKDO    O816970   1.865   5.896  12.004
    2AKDO   HO816971   1.908   5.872  11.921
    3AKDO    C116972   1.158   5.480  12.180
    3AKDO   O1116973   1.098   5.417  12.088
    3AKDO   O1216974   1.136   5.598  12.218
    3AKDO    C216975   1.239   5.394  12.282
    3AKDO    C616976   1.324   5.171  12.325
    3AKDO    H616977   1.428   5.210  12.334
    3AKDO    O616978   1.247   5.256  12.238
    3AKDO    C316979   1.176   5.394  12.422
    3AKDO   H3116980   1.072   5.358  12.413
    3AKDO   H3216981   1.171   5.500  12.456
    3AKDO    C416982   1.253   5.311  12.520
    3AKDO    H416983   1.356   5.353  12.533
    3AKDO    O416984   1.183   5.323  12.643
    3AKDO   HO416985   1.143   5.409  12.634
    3AKDO    C516986   1.263   5.169  12.466
    3AKDO    H516987   1.336   5.115  12.529
    3AKDO    O516988   1.144   5.093  12.477
    3AKDO   HO516989   1.075   5.139  12.428
    3AKDO    C716990   1.329   5.037  12.254
    3AKDO    H716991   1.225   4.998  12.247
    3AKDO    O716992   1.408   4.942  12.328
    3AKDO   HO716993   1.499   4.961  12.303
    3AKDO    C816994   1.386   5.050  12.113
    3AKDO   H8116995   1.340   5.136  12.060
    3AKDO   H8216996   1.494   5.074  12.119
    3AKDO    O816997   1.369   4.931  12.034
    3AKDO   HO816998   1.459   4.907  12.013
    4AHEP    C116999   1.637   5.682  12.487
    4AHEP    H117000   1.723   5.731  12.435
    4AHEP    C517001   1.426   5.738  12.588
    4AHEP    H517002   1.387   5.647  12.537
    4AHEP    O517003   1.538   5.784  12.509
    4AHEP    C217004   1.690   5.634  12.623
    4AHEP    H217005   1.754   5.546  12.600
    4AHEP    O217006   1.773   5.728  12.691
    4AHEP   HO217007   1.806   5.680  12.767
    4AHEP    C317008   1.577   5.585  12.713
    4AHEP    H317009   1.530   5.497  12.663
    4AHEP    O317010   1.633   5.548  12.841
    4AHEP    C417011   1.474   5.697  12.729
    4AHEP    H417012   1.524   5.784  12.777
    4AHEP    O417013   1.365   5.648  12.808
    4AHEP    P417014   1.297   5.730  12.935
    4AHEP  OP4217015   1.233   5.622  13.022
    4AHEP  OP4317016   1.197   5.827  12.876
    4AHEP  OP4417017   1.406   5.808  13.011
    4AHEP    C617018   1.310   5.840  12.582
    4AHEP    H617019   1.217   5.786  12.607
    4AHEP    O617020   1.328   5.943  12.681
    4AHEP   HO617021   1.282   5.904  12.756
    4AHEP    C717022   1.292   5.904  12.445
    4AHEP   H7117023   1.200   5.967  12.445
    4AHEP   H7217024   1.277   5.825  12.369
    4AHEP    O717025   1.404   5.986  12.405
    4AHEP   HO717026   1.478   5.926  12.416
    5AHEP    C117027   1.567   5.442  12.908
    5AHEP    H117028   1.474   5.417  12.852
    5AHEP    C517029   1.758   5.330  12.998
    5AHEP    H517030   1.814   5.420  12.966
    5AHEP    O517031   1.643   5.320  12.911
    5AHEP    C217032   1.526   5.477  13.050
    5AHEP    H217033   1.495   5.584  13.046
    5AHEP    O217034   1.408   5.408  13.093
    5AHEP   HO217035   1.342   5.477  13.092
    5AHEP    C317036   1.640   5.485  13.148
    5AHEP    H317037   1.709   5.567  13.119
    5AHEP    O317038   1.594   5.506  13.283
    5AHEP    C417039   1.715   5.354  13.143
    5AHEP    H417040   1.649   5.271  13.177
    5AHEP    O417041   1.836   5.358  13.217
    5AHEP    P417042   1.850   5.360  13.380
    5AHEP  OP4217043   1.838   5.506  13.422
    5AHEP  OP4317044   1.989   5.307  13.409
    5AHEP  OP4417045   1.740   5.271  13.437
    5AHEP    C617046   1.855   5.213  12.973
    5AHEP    H617047   1.945   5.229  13.036
    5AHEP    O617048   1.796   5.087  13.011
    5AHEP   HO617049   1.873   5.029  13.018
    5AHEP    C717050   1.899   5.214  12.826
    5AHEP   H7117051   2.010   5.208  12.826
    5AHEP   H7217052   1.877   5.312  12.778
    5AHEP    O717053   1.854   5.105  12.744
    6AHEP    C117054   1.731   5.131  12.680
    6AHEP    H117055   1.694   5.234  12.701
    6AHEP    C517056   1.788   4.991  12.492
    6AHEP    H517057   1.888   4.974  12.537
    6AHEP    O517058   1.738   5.119  12.537
    6AHEP    C217059   1.633   5.029  12.731
    6AHEP    H217060   1.629   5.039  12.842
    6AHEP    O217061   1.501   5.055  12.684
    6AHEP   HO217062   1.508   5.053  12.589
    6AHEP    C317063   1.682   4.890  12.694
    6AHEP    H317064   1.783   4.875  12.736
    6AHEP    O317065   1.599   4.787  12.747
    6AHEP   HO317066   1.628   4.708  12.699
    6AHEP    C417067   1.693   4.882  12.542
    6AHEP    H417068   1.592   4.899  12.498
    6AHEP    O417069   1.735   4.752  12.502
    6AHEP   HO417070   1.731   4.744  12.406
    6AHEP    C617071   1.807   4.990  12.340
    6AHEP    H617072   1.846   4.890  12.310
    6AHEP    O617073   1.682   5.010  12.273
    6AHEP   HO617074   1.701   5.082  12.211
    6AHEP    C717075   1.910   5.092  12.291
    6AHEP   H7117076   1.925   5.080  12.182
    6AHEP   H7217077   2.007   5.073  12.341
    6AHEP    O717078   1.872   5.228  12.317
    6AHEP   HO717079   1.863   5.268  12.231
    7AGLC    C117080   1.542   5.631  13.319
    7AGLC    H117081   1.591   5.711  13.261
    7AGLC    C517082   1.329   5.530  13.369
    7AGLC    H517083   1.367   5.430  13.339
    7AGLC    O517084   1.400   5.634  13.300
    7AGLC    C217085   1.562   5.651  13.470
    7AGLC    H217086   1.502   5.742  13.495
    7AGLC    O217087   1.694   5.688  13.510
    7AGLC   HO217088   1.748   5.615  13.479
    7AGLC    C317089   1.502   5.536  13.549
    7AGLC    H317090   1.541   5.443  13.502
    7AGLC    O317091   1.536   5.532  13.691
    7AGLC    C417092   1.352   5.543  13.519
    7AGLC    H417093   1.317   5.645  13.545
    7AGLC    O417094   1.272   5.453  13.594
    7AGLC   HO417095   1.205   5.507  13.638
    7AGLC    C617096   1.183   5.539  13.328
    7AGLC   H6117097   1.172   5.497  13.225
    7AGLC   H6217098   1.118   5.478  13.394
    7AGLC    O617099   1.134   5.674  13.324
    7AGLC   HO617100   1.167   5.708  13.241
    8AGLC    C117101   1.583   5.403  13.730
    8AGLC    H117102   1.529   5.323  13.675
    8AGLC    C517103   1.812   5.476  13.774
    8AGLC    H517104   1.786   5.580  13.744
    8AGLC    O517105   1.724   5.385  13.707
    8AGLC    C217106   1.569   5.380  13.879
    8AGLC    H217107   1.606   5.277  13.900
    8AGLC    O217108   1.436   5.389  13.928
    8AGLC    C317109   1.650   5.480  13.959
    8AGLC    H317110   1.623   5.580  13.921
    8AGLC    O317111   1.612   5.479  14.099
    8AGLC    C417112   1.796   5.459  13.925
    8AGLC    H417113   1.826   5.354  13.949
    8AGLC    O417114   1.881   5.548  13.996
    8AGLC   HO417115   1.963   5.540  13.947
    8AGLC    C617116   1.951   5.443  13.719
    8AGLC   H6117117   1.958   5.334  13.699
    8AGLC   H6217118   1.964   5.493  13.621
    8AGLC    O617119   2.060   5.483  13.804
    8AGLC   HO617120   2.138   5.452  13.759
    9AGAL    C117121   1.337   5.300  13.884
    9AGAL    H117122   1.330   5.297  13.773
    9AGAL    C517123   1.374   5.161  14.075
    9AGAL    H517124   1.460   5.227  14.101
    9AGAL    O517125   1.356   5.167  13.933
    9AGAL    C217126   1.214   5.362  13.946
    9AGAL    H217127   1.124   5.303  13.917
    9AGAL    O217128   1.208   5.491  13.881
    9AGAL    C317129   1.230   5.360  14.098
    9AGAL    H317130   1.321   5.417  14.125
    9AGAL    O317131   1.123   5.423  14.167
    9AGAL   HO317132   1.124   5.516  14.141
    9AGAL    C417133   1.252   5.217  14.148
    9AGAL    H417134   1.276   5.222  14.256
    9AGAL    O417135   1.138   5.132  14.137
    9AGAL   HO417136   1.058   5.186  14.133
    9AGAL    C617137   1.417   5.020  14.109
    9AGAL   H6117138   1.518   5.004  14.067
    9AGAL   H6217139   1.423   5.007  14.219
    9AGAL    O617140   1.332   4.919  14.054
    9AGAL   HO617141   1.317   4.944  13.962
   10AGAL    C117142   1.136   5.602  13.927
   10AGAL    H117143   1.029   5.572  13.939
   10AGAL    C517144   1.328   5.694  14.034
   10AGAL    H517145   1.384   5.607  13.994
   10AGAL    O517146   1.190   5.655  14.049
   10AGAL    C217147   1.144   5.710  13.819
   10AGAL    H217148   1.082   5.796  13.853
   10AGAL    O217149   1.089   5.663  13.696
   10AGAL   HO217150   1.028   5.727  13.659
   10AGAL    C317151   1.288   5.756  13.800
   10AGAL    H317152   1.348   5.668  13.768
   10AGAL    O317153   1.299   5.857  13.699
   10AGAL   HO317154   1.243   5.829  13.626
   10AGAL    C417155   1.343   5.806  13.931
   10AGAL    H417156   1.452   5.824  13.917
   10AGAL    O417157   1.284   5.929  13.972
   10AGAL   HO417158   1.245   5.968  13.894
   10AGAL    C617159   1.391   5.722  14.170
   10AGAL   H6117160   1.368   5.637  14.238
   10AGAL   H6217161   1.501   5.729  14.158
   10AGAL    O617162   1.344   5.842  14.230
   10AGAL   HO617163   1.303   5.894  14.160
   11BGLC    C117164   1.682   5.399  14.190
   11BGLC    H117165   1.782   5.444  14.211
   11BGLC    C517166   1.768   5.181  14.238
   11BGLC    H517167   1.866   5.227  14.261
   11BGLC    O517168   1.698   5.264  14.144
   11BGLC    C217169   1.597   5.397  14.317
   11BGLC    H217170   1.499   5.353  14.291
   11BGLC    O217171   1.572   5.528  14.368
   11BGLC   HO217172   1.585   5.590  14.295
   11BGLC    C317173   1.663   5.311  14.422
   11BGLC    H317174   1.759   5.357  14.451
   11BGLC    O317175   1.576   5.294  14.535
   11BGLC    C417176   1.685   5.173  14.366
   11BGLC    H417177   1.586   5.128  14.341
   11BGLC    O417178   1.747   5.090  14.463
   11BGLC   HO417179   1.773   5.144  14.537
   11BGLC    C617180   1.787   5.046  14.170
   11BGLC   H6117181   1.738   4.967  14.231
   11BGLC   H6217182   1.740   5.044  14.070
   11BGLC    O617183   1.925   5.011  14.155
   11BGLC   HO617184   1.954   5.031  14.066
   12BGLCN   C117185   1.619   5.347  14.657
   12BGLCN   H117186   1.613   5.458  14.653
   12BGLCN   C517187   1.800   5.355  14.811
   12BGLCN   H517188   1.788   5.465  14.814
   12BGLCN   O517189   1.753   5.305  14.685
   12BGLCN   C217190   1.524   5.290  14.761
   12BGLCN   H217191   1.538   5.180  14.759
   12BGLCN    N17192   1.385   5.319  14.725
   12BGLCN   HN17193   1.367   5.410  14.689
   12BGLCN    C17194   1.287   5.228  14.720
   12BGLCN    O17195   1.298   5.113  14.760
   12BGLCN   CT17196   1.156   5.275  14.663
   12BGLCN  HT117197   1.072   5.232  14.722
   12BGLCN  HT217198   1.147   5.241  14.557
   12BGLCN  HT317199   1.149   5.386  14.665
   12BGLCN   C317200   1.567   5.339  14.900
   12BGLCN   H317201   1.560   5.450  14.900
   12BGLCN   O317202   1.486   5.287  15.007
   12BGLCN   C417203   1.711   5.296  14.921
   12BGLCN   H417204   1.716   5.185  14.912
   12BGLCN   O417205   1.762   5.328  15.050
   12BGLCN  HO417206   1.749   5.422  15.067
   12BGLCN   C617207   1.947   5.320  14.822
   12BGLCN  H6117208   1.979   5.319  14.928
   12BGLCN  H6217209   1.966   5.219  14.780
   12BGLCN   O617210   2.027   5.417  14.753
   12BGLCN  HO617211   2.115   5.419  14.790
   13AGAL    C117212   1.456   5.381  15.109
   13AGAL    H117213   1.546   5.442  15.133
   13AGAL    C517214   1.229   5.396  15.035
   13AGAL    H517215   1.253   5.316  14.961
   13AGAL    O517216   1.350   5.468  15.067
   13AGAL    C217217   1.408   5.313  15.237
   13AGAL    H217218   1.376   5.395  15.306
   13AGAL    O217219   1.513   5.238  15.302
   13AGAL    C317220   1.285   5.231  15.208
   13AGAL    H317221   1.310   5.160  15.126
   13AGAL    O317222   1.244   5.151  15.319
   13AGAL   HO317223   1.269   5.060  15.302
   13AGAL    C417224   1.174   5.323  15.157
   13AGAL    H417225   1.088   5.260  15.126
   13AGAL    O417226   1.126   5.416  15.254
   13AGAL   HO417227   1.166   5.501  15.234
   13AGAL    C617228   1.130   5.489  14.967
   13AGAL   H6117229   1.165   5.508  14.863
   13AGAL   H6217230   1.030   5.440  14.959
   13AGAL    O617231   1.116   5.616  15.033
   13AGAL   HO617232   1.025   5.633  15.055
   14ARHM    C117233   1.560   5.288  15.426
   14ARHM    H117234   1.550   5.398  15.428
   14ARHM    C517235   1.729   5.123  15.448
   14ARHM    H517236   1.697   5.076  15.353
   14ARHM    O517237   1.700   5.262  15.444
   14ARHM    C217238   1.480   5.227  15.540
   14ARHM    H217239   1.372   5.246  15.522
   14ARHM    O217240   1.512   5.274  15.673
   14ARHM    C317241   1.505   5.078  15.545
   14ARHM    H317242   1.475   5.033  15.448
   14ARHM    O317243   1.427   5.016  15.647
   14ARHM   HO317244   1.416   5.080  15.718
   14ARHM    C417245   1.655   5.056  15.563
   14ARHM    H417246   1.687   5.106  15.657
   14ARHM    O417247   1.691   4.919  15.577
   14ARHM   HO417248   1.637   4.867  15.516
   14ARHM    C617249   1.882   5.112  15.458
   14ARHM   H6117250   1.929   5.165  15.372
   14ARHM   H6217251   1.918   5.159  15.552
   14ARHM   H6317252   1.915   5.006  15.455
   15ARHM    C117253   1.508   5.412  15.697
   15ARHM    H117254   1.434   5.461  15.630
   15ARHM    C517255   1.737   5.419  15.767
   15ARHM    H517256   1.752   5.311  15.742
   15ARHM    O517257   1.637   5.474  15.680
   15ARHM    C217258   1.465   5.428  15.841
   15ARHM    H217259   1.367   5.378  15.853
   15ARHM    O217260   1.450   5.569  15.862
   15ARHM    C317261   1.565   5.363  15.935
   15ARHM    H317262   1.575   5.256  15.905
   15ARHM    O317263   1.520   5.368  16.071
   15ARHM    C417264   1.698   5.431  15.914
   15ARHM    H417265   1.687   5.539  15.939
   15ARHM    O417266   1.797   5.376  16.000
   15ARHM   HO417267   1.872   5.437  16.002
   15ARHM    C617268   1.868   5.492  15.733
   15ARHM   H6117269   1.953   5.451  15.792
   15ARHM   H6217270   1.892   5.481  15.625
   15ARHM   H6317271   1.859   5.601  15.756
   16BMANN   C117272   1.399   5.606  15.988
   16BMANN   H117273   1.480   5.598  16.064
   16BMANN   C517274   1.240   5.553  16.156
   16BMANN   H517275   1.322   5.545  16.231
   16BMANN   O517276   1.290   5.522  16.026
   16BMANN   C217277   1.354   5.749  15.979
   16BMANN   H217278   1.446   5.809  15.959
   16BMANN    N17279   1.262   5.770  15.868
   16BMANN   HN17280   1.201   5.695  15.847
   16BMANN    C17281   1.262   5.879  15.789
   16BMANN    O17282   1.337   5.974  15.807
   16BMANN   CT17283   1.164   5.878  15.675
   16BMANN  HT117284   1.130   5.981  15.653
   16BMANN  HT217285   1.075   5.816  15.700
   16BMANN  HT317286   1.213   5.836  15.584
   16BMANN   C317287   1.301   5.789  16.115
   16BMANN   H317288   1.382   5.777  16.189
   16BMANN   O317289   1.262   5.926  16.116
   16BMANN  HO317290   1.336   5.978  16.148
   16BMANN   C417291   1.188   5.697  16.157
   16BMANN   H417292   1.105   5.705  16.083
   16BMANN   O417293   1.137   5.729  16.286
   16BMANN  HO417294   1.121   5.824  16.289
   16BMANN   C617295   1.135   5.449  16.187
   16BMANN  H6117296   1.082   5.476  16.280
   16BMANN  H6217297   1.062   5.445  16.103
   16BMANN   O617298   1.189   5.318  16.205
   16BMANN  HO617299   1.240   5.296  16.126
   17BGLCN   C117300   1.534   5.250  16.146
   17BGLCN   H117301   1.633   5.204  16.127
   17BGLCN   C517302   1.433   5.040  16.197
   17BGLCN   H517303   1.533   4.993  16.183
   17BGLCN   O517304   1.427   5.159  16.117
   17BGLCN   C217305   1.521   5.295  16.291
   17BGLCN   H217306   1.418   5.333  16.305
   17BGLCN    N17307   1.609   5.407  16.321
   17BGLCN   HN17308   1.683   5.424  16.256
   17BGLCN    C17309   1.585   5.500  16.416
   17BGLCN    O17310   1.489   5.496  16.493
   17BGLCN   CT17311   1.683   5.613  16.425
   17BGLCN  HT117312   1.633   5.707  16.391
   17BGLCN  HT217313   1.772   5.595  16.361
   17BGLCN  HT317314   1.714   5.627  16.531
   17BGLCN   C317315   1.535   5.170  16.379
   17BGLCN   H317316   1.627   5.118  16.345
   17BGLCN   O317317   1.550   5.200  16.519
   17BGLCN   C417318   1.418   5.080  16.343
   17BGLCN   H417319   1.325   5.140  16.352
   17BGLCN   O417320   1.399   4.968  16.429
   17BGLCN  HO417321   1.317   4.987  16.476
   17BGLCN   C617322   1.331   4.938  16.150
   17BGLCN  H6117323   1.350   4.840  16.199
   17BGLCN  H6217324   1.229   4.971  16.179
   17BGLCN   O617325   1.334   4.920  16.008
   17BGLCN  HO617326   1.265   4.975  15.972
   18AGAL    C117327   1.625   5.108  16.595
   18AGAL    H117328   1.567   5.014  16.609
   18AGAL    C517329   1.836   5.191  16.516
   18AGAL    H517330   1.781   5.264  16.454
   18AGAL    O517331   1.752   5.075  16.535
   18AGAL    C217332   1.654   5.167  16.732
   18AGAL    H217333   1.723   5.094  16.780
   18AGAL    O217334   1.538   5.176  16.817
   18AGAL    C317335   1.733   5.297  16.714
   18AGAL    H317336   1.675   5.362  16.645
   18AGAL    O317337   1.751   5.372  16.834
   18AGAL   HO317338   1.716   5.460  16.820
   18AGAL    C417339   1.866   5.263  16.648
   18AGAL    H417340   1.919   5.357  16.624
   18AGAL    O417341   1.950   5.188  16.736
   18AGAL   HO417342   1.962   5.240  16.816
   18AGAL    C617343   1.958   5.152  16.433
   18AGAL   H6117344   1.924   5.125  16.331
   18AGAL   H6217345   2.026   5.239  16.424
   18AGAL    O617346   2.031   5.040  16.485
   18AGAL   HO617347   2.110   5.075  16.529
   19ARHM    C117348   1.570   5.149  16.952
   19ARHM    H117349   1.668   5.194  16.977
   19ARHM    C517350   1.460   4.937  16.964
   19ARHM    H517351   1.422   4.951  16.860
   19ARHM    O517352   1.583   5.008  16.980
   19ARHM    C217353   1.465   5.210  17.043
   19ARHM    H217354   1.446   5.313  17.005
   19ARHM    O217355   1.506   5.219  17.181
   19ARHM    C317356   1.334   5.137  17.031
   19ARHM    H317357   1.297   5.146  16.926
   19ARHM    O317358   1.235   5.196  17.116
   19ARHM   HO317359   1.273   5.204  17.204
   19ARHM    C417360   1.358   4.991  17.063
   19ARHM    H417361   1.403   4.984  17.164
   19ARHM    O417362   1.239   4.912  17.066
   19ARHM   HO417363   1.180   4.940  16.995
   19ARHM    C617364   1.493   4.788  16.982
   19ARHM   H6117365   1.568   4.756  16.907
   19ARHM   H6217366   1.533   4.769  17.083
   19ARHM   H6317367   1.401   4.726  16.967
   20ARHM    C117368   1.601   5.320  17.205
   20ARHM    H117369   1.595   5.399  17.127
   20ARHM    C517370   1.758   5.169  17.305
   20ARHM    H517371   1.688   5.085  17.287
   20ARHM    O517372   1.736   5.270  17.206
   20ARHM    C217373   1.571   5.381  17.340
   20ARHM    H217374   1.462   5.405  17.343
   20ARHM    O217375   1.643   5.501  17.365
   20ARHM    C317376   1.593   5.280  17.450
   20ARHM    H317377   1.520   5.197  17.438
   20ARHM    O317378   1.571   5.348  17.574
   20ARHM    C417379   1.734   5.227  17.444
   20ARHM    H417380   1.805   5.312  17.460
   20ARHM    O417381   1.756   5.128  17.544
   20ARHM   HO417382   1.850   5.107  17.549
   20ARHM    C617383   1.901   5.117  17.284
   20ARHM   H6117384   1.975   5.198  17.303
   20ARHM   H6217385   1.923   5.032  17.352
   20ARHM   H6317386   1.914   5.083  17.179
   21BMANN   C117387   1.601   5.610  17.287
   21BMANN   H117388   1.503   5.590  17.238
   21BMANN   C517389   1.661   5.748  17.102
   21BMANN   H517390   1.564   5.725  17.053
   21BMANN   O517391   1.699   5.638  17.187
   21BMANN   C217392   1.588   5.730  17.379
   21BMANN   H217393   1.503   5.706  17.447
   21BMANN    N17394   1.706   5.751  17.461
   21BMANN   HN17395   1.793   5.733  17.415
   21BMANN    C17396   1.705   5.788  17.590
   21BMANN    O17397   1.603   5.811  17.653
   21BMANN   CT17398   1.840   5.799  17.656
   21BMANN  HT117399   1.892   5.890  17.619
   21BMANN  HT217400   1.901   5.709  17.634
   21BMANN  HT317401   1.826   5.808  17.766
   21BMANN   C317402   1.546   5.850  17.295
   21BMANN   H317403   1.448   5.827  17.247
   21BMANN   O317404   1.526   5.964  17.378
   21BMANN  HO317405   1.612   5.992  17.408
   21BMANN   C417406   1.647   5.874  17.184
   21BMANN   H417407   1.746   5.898  17.229
   21BMANN   O417408   1.610   5.983  17.099
   21BMANN  HO417409   1.683   6.045  17.097
   21BMANN   C617410   1.768   5.758  16.995
   21BMANN  H6117411   1.752   5.847  16.932
   21BMANN  H6217412   1.868   5.768  17.042
   21BMANN   O617413   1.766   5.643  16.910
   21BMANN  HO617414   1.800   5.569  16.961
   22BGLCN   C117415   1.505   5.276  17.673
   22BGLCN   H117416   1.533   5.168  17.670
   22BGLCN   C517417   1.292   5.226  17.764
   22BGLCN   H517418   1.325   5.120  17.770
   22BGLCN   O517419   1.364   5.292  17.659
   22BGLCN   C217420   1.551   5.340  17.802
   22BGLCN   H217421   1.521   5.447  17.799
   22BGLCN    N17422   1.696   5.334  17.810
   22BGLCN   HN17423   1.739   5.264  17.753
   22BGLCN    C17424   1.775   5.424  17.870
   22BGLCN    O17425   1.733   5.521  17.932
   22BGLCN   CT17426   1.923   5.402  17.856
   22BGLCN  HT117427   1.961   5.459  17.769
   22BGLCN  HT217428   1.945   5.294  17.841
   22BGLCN  HT317429   1.974   5.437  17.948
   22BGLCN   C317430   1.478   5.275  17.919
   22BGLCN   H317431   1.501   5.166  17.917
   22BGLCN   O317432   1.530   5.330  18.040
   22BGLCN   C417433   1.328   5.290  17.898
   22BGLCN   H417434   1.304   5.399  17.894
   22BGLCN   O417435   1.251   5.231  18.001
   22BGLCN  HO417436   1.168   5.278  18.014
   22BGLCN   C617437   1.146   5.225  17.727
   22BGLCN  H6117438   1.083   5.197  17.814
   22BGLCN  H6217439   1.114   5.326  17.693
   22BGLCN   O617440   1.120   5.130  17.623
   22BGLCN  HO617441   1.029   5.138  17.596
   23AGAL    C117442   1.504   5.263  18.161
   23AGAL    H117443   1.397   5.274  18.188
   23AGAL    C517444   1.675   5.099  18.129
   23AGAL    H517445   1.702   5.147  18.033
   23AGAL    O517446   1.536   5.123  18.156
   23AGAL    C217447   1.586   5.329  18.271
   23AGAL    H217448   1.562   5.279  18.367
   23AGAL    O217449   1.554   5.469  18.282
   23AGAL    C317450   1.734   5.308  18.245
   23AGAL    H317451   1.758   5.355  18.147
   23AGAL    O317452   1.815   5.374  18.342
   23AGAL   HO317453   1.796   5.336  18.428
   23AGAL    C417454   1.764   5.160  18.238
   23AGAL    H417455   1.870   5.146  18.208
   23AGAL    O417456   1.745   5.093  18.362
   23AGAL   HO417457   1.709   5.007  18.339
   23AGAL    C617458   1.694   4.949  18.110
   23AGAL   H6117459   1.634   4.916  18.022
   23AGAL   H6217460   1.800   4.927  18.088
   23AGAL    O617461   1.653   4.871  18.223
   23AGAL   HO617462   1.560   4.850  18.212
   24ARHM    C117463   1.447   5.501  18.367
   24ARHM    H117464   1.379   5.413  18.375
   24ARHM    C517465   1.441   5.730  18.303
   24ARHM    H517466   1.524   5.715  18.231
   24ARHM    O517467   1.367   5.608  18.315
   24ARHM    C217468   1.503   5.534  18.503
   24ARHM    H217469   1.573   5.453  18.533
   24ARHM    O217470   1.398   5.545  18.600
   24ARHM    C317471   1.585   5.660  18.492
   24ARHM    H317472   1.669   5.643  18.421
   24ARHM    O317473   1.642   5.696  18.618
   24ARHM   HO317474   1.659   5.790  18.611
   24ARHM    C417475   1.498   5.772  18.438
   24ARHM    H417476   1.414   5.790  18.508
   24ARHM    O417477   1.573   5.893  18.426
   24ARHM   HO417478   1.537   5.948  18.356
   24ARHM    C617479   1.342   5.831  18.244
   24ARHM   H6117480   1.391   5.929  18.225
   24ARHM   H6217481   1.302   5.793  18.148
   24ARHM   H6317482   1.257   5.847  18.314
   25ARHM    C117483   1.366   5.422  18.661
   25ARHM    H117484   1.390   5.340  18.590
   25ARHM    C517485   1.182   5.503  18.786
   25ARHM    H517486   1.192   5.605  18.745
   25ARHM    O517487   1.227   5.408  18.689
   25ARHM    C217488   1.449   5.406  18.785
   25ARHM    H217489   1.557   5.420  18.763
   25ARHM    O217490   1.427   5.275  18.840
   25ARHM    C317491   1.408   5.508  18.888
   25ARHM    H317492   1.429   5.609  18.849
   25ARHM    O317493   1.486   5.483  19.005
   25ARHM    C417494   1.261   5.490  18.916
   25ARHM    H417495   1.245   5.388  18.956
   25ARHM    O417496   1.213   5.582  19.015
   25ARHM   HO417497   1.200   5.669  18.976
   25ARHM    C617498   1.034   5.470  18.808
   25ARHM   H6117499   0.979   5.470  18.712
   25ARHM   H6217500   1.023   5.370  18.854
   25ARHM   H6317501   0.990   5.547  18.876
   26BMANN   C117502   1.496   5.172  18.777
   26BMANN   H117503   1.596   5.207  18.741
   26BMANN   C517504   1.487   5.005  18.607
   26BMANN   H517505   1.584   5.043  18.568
   26BMANN   O517506   1.419   5.115  18.670
   26BMANN   C217507   1.513   5.067  18.883
   26BMANN   H217508   1.574   5.113  18.964
   26BMANN    N17509   1.386   5.028  18.942
   26BMANN   HN17510   1.304   5.047  18.888
   26BMANN    C17511   1.372   4.973  19.063
   26BMANN    O17512   1.469   4.945  19.131
   26BMANN   CT17513   1.232   4.946  19.109
   26BMANN  HT117514   1.160   4.959  19.026
   26BMANN  HT217515   1.206   5.015  19.192
   26BMANN  HT317516   1.225   4.841  19.146
   26BMANN   C317517   1.593   4.953  18.823
   26BMANN   H317518   1.690   4.992  18.785
   26BMANN   O317519   1.624   4.855  18.922
   26BMANN  HO317520   1.594   4.887  19.007
   26BMANN   C417521   1.515   4.895  18.708
   26BMANN   H417522   1.418   4.855  18.746
   26BMANN   O417523   1.586   4.788  18.645
   26BMANN  HO417524   1.624   4.735  18.716
   26BMANN   C617525   1.404   4.960  18.487
   26BMANN  H6117526   1.352   5.048  18.443
   26BMANN  H6217527   1.472   4.919  18.410
   26BMANN   O617528   1.308   4.860  18.521
   26BMANN  HO617529   1.351   4.774  18.517
   27BGLCN   C117530   1.514   5.594  19.086
   27BGLCN   H117531   1.438   5.673  19.075
   27BGLCN   C517532   1.680   5.754  19.140
   27BGLCN   H517533   1.602   5.834  19.134
   27BGLCN   O517534   1.643   5.645  19.054
   27BGLCN   C217535   1.514   5.537  19.226
   27BGLCN   H217536   1.591   5.458  19.232
   27BGLCN    N17537   1.384   5.477  19.252
   27BGLCN   HN17538   1.311   5.505  19.189
   27BGLCN    C17539   1.359   5.378  19.338
   27BGLCN    O17540   1.443   5.330  19.412
   27BGLCN   CT17541   1.218   5.325  19.339
   27BGLCN  HT117542   1.159   5.370  19.256
   27BGLCN  HT217543   1.170   5.350  19.436
   27BGLCN  HT317544   1.221   5.215  19.327
   27BGLCN   C317545   1.552   5.648  19.324
   27BGLCN   H317546   1.476   5.728  19.312
   27BGLCN   O317547   1.544   5.594  19.458
   27BGLCN   C417548   1.687   5.705  19.284
   27BGLCN   H417549   1.763   5.624  19.290
   27BGLCN   O417550   1.731   5.811  19.367
   27BGLCN  HO417551   1.662   5.878  19.377
   27BGLCN   C617552   1.809   5.810  19.086
   27BGLCN  H6117553   1.851   5.885  19.157
   27BGLCN  H6217554   1.884   5.728  19.075
   27BGLCN   O617555   1.789   5.874  18.960
   27BGLCN  HO617556   1.760   5.807  18.898
   28AGAL    C117557   1.544   5.685   0.093
   28AGAL    H117558   1.647   5.723   0.109
   28AGAL    C517559   1.318   5.757   0.055
   28AGAL    H517560   1.308   5.681  19.447
   28AGAL    O517561   1.457   5.797   0.066
   28AGAL    C217562   1.501   5.621   0.226
   28AGAL    H217563   1.503   5.707   0.297
   28AGAL    O217564   1.588   5.517   0.276
   28AGAL    C317565   1.357   5.573   0.216
   28AGAL    H317566   1.352   5.500   0.133
   28AGAL    O317567   1.314   5.506   0.335
   28AGAL   HO317568   1.268   5.424   0.312
   28AGAL    C417569   1.268   5.692   0.184
   28AGAL    H417570   1.166   5.654   0.165
   28AGAL    O417571   1.260   5.786   0.291
   28AGAL   HO417572   1.188   5.758   0.348
   28AGAL    C617573   1.236   5.878   0.012
   28AGAL   H6117574   1.266   5.909  19.382
   28AGAL   H6217575   1.129   5.852   0.010
   28AGAL    O617576   1.256   5.989   0.100
   28AGAL   HO617577   1.264   5.951   0.187
   29ARHM    C117578   1.617   5.532   0.414
   29ARHM    H117579   1.540   5.595   0.462
   29ARHM    C517580   1.853   5.512   0.383
   29ARHM    H517581   1.838   5.495   0.274
   29ARHM    O517582   1.746   5.593   0.434
   29ARHM    C217583   1.615   5.398   0.488
   29ARHM    H217584   1.517   5.351   0.468
   29ARHM    O217585   1.634   5.419   0.630
   29ARHM    C317586   1.724   5.307   0.438
   29ARHM    H317587   1.708   5.288   0.330
   29ARHM    O317588   1.722   5.182   0.507
   29ARHM   HO317589   1.800   5.134   0.479
   29ARHM    C417590   1.857   5.378   0.456
   29ARHM    H417591   1.871   5.400   0.564
   29ARHM    O417592   1.968   5.297   0.416
   29ARHM   HO417593   1.972   5.289   0.321
   29ARHM    C617594   1.981   5.596   0.401
   29ARHM   H6117595   1.971   5.693   0.346
   29ARHM   H6217596   1.998   5.618   0.508
   29ARHM   H6317597   2.070   5.542   0.361
   30ARHM    C117598   1.520   5.398   0.709
   30ARHM    H117599   1.474   5.301   0.682
   30ARHM    C517600   1.477   5.633   0.725
   30ARHM    H517601   1.567   5.654   0.664
   30ARHM    O517602   1.424   5.503   0.693
   30ARHM    C217603   1.565   5.394   0.855
   30ARHM    H217604   1.645   5.318   0.865
   30ARHM    O217605   1.456   5.363   0.942
   30ARHM    C317606   1.622   5.529   0.895
   30ARHM    H317607   1.707   5.549   0.826
   30ARHM    O317608   1.681   5.524   1.027
   30ARHM    C417609   1.518   5.638   0.872
   30ARHM    H417610   1.428   5.620   0.934
   30ARHM    O417611   1.569   5.767   0.902
   30ARHM   HO417612   1.665   5.761   0.899
   30ARHM    C617613   1.369   5.734   0.685
   30ARHM   H6117614   1.405   5.838   0.699
   30ARHM   H6217615   1.343   5.721   0.578
   30ARHM   H6317616   1.277   5.719   0.746
   31BMANN   C117617   1.423   5.228   0.961
   31BMANN   H117618   1.515   5.165   0.966
   31BMANN   C517619   1.290   5.047   0.878
   31BMANN   H517620   1.379   4.981   0.890
   31BMANN   O517621   1.335   5.182   0.858
   31BMANN   C217622   1.349   5.228   1.094
   31BMANN   H217623   1.426   5.247   1.172
   31BMANN    N17624   1.254   5.339   1.106
   31BMANN   HN17625   1.236   5.388   1.021
   31BMANN    C17626   1.206   5.388   1.223
   31BMANN    O17627   1.218   5.327   1.328
   31BMANN   CT17628   1.139   5.523   1.220
   31BMANN  HT117629   1.164   5.578   1.127
   31BMANN  HT217630   1.174   5.582   1.307
   31BMANN  HT317631   1.029   5.511   1.229
   31BMANN   C317632   1.297   5.087   1.120
   31BMANN   H317633   1.385   5.019   1.123
   31BMANN   O317634   1.234   5.075   1.247
   31BMANN  HO317635   1.216   5.163   1.281
   31BMANN   C417636   1.209   5.039   1.007
   31BMANN   H417637   1.120   5.106   0.998
   31BMANN   O417638   1.163   4.906   1.030
   31BMANN  HO417639   1.128   4.907   1.120
   31BMANN   C617640   1.215   5.001   0.754
   31BMANN  H6117641   1.157   4.909   0.776
   31BMANN  H6217642   1.141   5.079   0.723
   31BMANN   O617643   1.304   4.972   0.646
   31BMANN  HO617644   1.334   5.055   0.608
   32BGLCN   C117645   1.595   5.543   1.138
   32BGLCN   H117646   1.496   5.497   1.118
   32BGLCN   C517647   1.479   5.700   1.274
   32BGLCN   H517648   1.383   5.655   1.242
   32BGLCN   O517649   1.576   5.681   1.169
   32BGLCN   C217650   1.655   5.477   1.261
   32BGLCN   H217651   1.741   5.541   1.291
   32BGLCN    N17652   1.709   5.345   1.233
   32BGLCN   HN17653   1.671   5.297   1.154
   32BGLCN    C17654   1.817   5.295   1.296
   32BGLCN    O17655   1.873   5.353   1.388
   32BGLCN   CT17656   1.867   5.162   1.246
   32BGLCN  HT117657   1.818   5.134   1.150
   32BGLCN  HT217658   1.848   5.084   1.323
   32BGLCN  HT317659   1.977   5.169   1.230
   32BGLCN   C317660   1.551   5.485   1.372
   32BGLCN   H317661   1.457   5.443   1.329
   32BGLCN   O317662   1.581   5.410   1.491
   32BGLCN   C417663   1.527   5.632   1.402
   32BGLCN   H417664   1.622   5.679   1.435
   32BGLCN   O417665   1.430   5.649   1.504
   32BGLCN  HO417666   1.471   5.627   1.588
   32BGLCN   C617667   1.456   5.849   1.287
   32BGLCN  H6117668   1.374   5.869   1.360
   32BGLCN  H6217669   1.548   5.899   1.324
   32BGLCN   O617670   1.420   5.906   1.160
   32BGLCN  HO617671   1.492   5.885   1.100
   33AGAL    C117672   1.469   5.337   1.541
   33AGAL    H117673   1.375   5.395   1.526
   33AGAL    C517674   1.568   5.123   1.498
   33AGAL    H517675   1.660   5.177   1.469
   33AGAL    O517676   1.456   5.210   1.474
   33AGAL    C217677   1.482   5.312   1.691
   33AGAL    H217678   1.390   5.257   1.721
   33AGAL    O217679   1.483   5.438   1.759
   33AGAL    C317680   1.602   5.223   1.720
   33AGAL    H317681   1.692   5.275   1.680
   33AGAL    O317682   1.625   5.205   1.860
   33AGAL   HO317683   1.565   5.138   1.895
   33AGAL    C417684   1.586   5.091   1.647
   33AGAL    H417685   1.681   5.036   1.658
   33AGAL    O417686   1.485   5.006   1.700
   33AGAL   HO417687   1.400   5.049   1.711
   33AGAL    C617688   1.559   5.002   1.406
   33AGAL   H6117689   1.582   5.034   1.303
   33AGAL   H6217690   1.635   4.927   1.436
   33AGAL    O617691   1.430   4.939   1.404
   33AGAL   HO617692   1.365   5.005   1.382
   34ARHM    C117693   1.413   5.436   1.882
   34ARHM    H117694   1.441   5.346   1.939
   34ARHM    C517695   1.220   5.550   1.796
   34ARHM    H517696   1.263   5.556   1.694
   34ARHM    O517697   1.270   5.433   1.863
   34ARHM    C217698   1.453   5.560   1.959
   34ARHM    H217699   1.564   5.563   1.962
   34ARHM    O217700   1.405   5.561   2.095
   34ARHM    C317701   1.405   5.684   1.888
   34ARHM    H317702   1.451   5.689   1.787
   34ARHM    O317703   1.445   5.802   1.958
   34ARHM   HO317704   1.541   5.807   1.958
   34ARHM    C417705   1.255   5.677   1.872
   34ARHM    H417706   1.208   5.671   1.973
   34ARHM    O417707   1.202   5.792   1.806
   34ARHM   HO417708   1.228   5.869   1.858
   34ARHM    C617709   1.068   5.527   1.781
   34ARHM   H6117710   1.020   5.519   1.881
   34ARHM   H6217711   1.022   5.611   1.725
   34ARHM   H6317712   1.049   5.433   1.725
   35ARHM    C117713   1.451   5.460   2.181
   35ARHM    H117714   1.557   5.435   2.158
   35ARHM    C517715   1.230   5.371   2.190
   35ARHM    H517716   1.195   5.445   2.114
   35ARHM    O517717   1.369   5.342   2.171
   35ARHM    C217718   1.437   5.515   2.321
   35ARHM    H217719   1.497   5.609   2.327
   35ARHM    O217720   1.481   5.426   2.425
   35ARHM    C317721   1.293   5.551   2.347
   35ARHM    H317722   1.260   5.629   2.274
   35ARHM    O317723   1.277   5.607   2.478
   35ARHM   HO317724   1.318   5.547   2.540
   35ARHM    C417725   1.207   5.428   2.329
   35ARHM    H417726   1.236   5.350   2.403
   35ARHM    O417727   1.069   5.460   2.350
   35ARHM   HO417728   1.069   5.549   2.386
   35ARHM    C617729   1.158   5.239   2.164
   35ARHM   H6117730   1.180   5.202   2.061
   35ARHM   H6217731   1.190   5.162   2.237
   35ARHM   H6317732   1.048   5.254   2.173
   36BMANN   C117733   1.618   5.394   2.422
   36BMANN   H117734   1.678   5.482   2.390
   36BMANN   C517735   1.783   5.244   2.337
   36BMANN   H517736   1.841   5.333   2.302
   36BMANN   O517737   1.644   5.280   2.339
   36BMANN   C217738   1.654   5.354   2.564
   36BMANN   H217739   1.635   5.444   2.627
   36BMANN    N17740   1.567   5.248   2.615
   36BMANN   HN17741   1.520   5.193   2.546
   36BMANN    C17742   1.548   5.222   2.744
   36BMANN    O17743   1.605   5.286   2.832
   36BMANN   CT17744   1.455   5.109   2.778
   36BMANN  HT117745   1.488   5.016   2.726
   36BMANN  HT217746   1.351   5.134   2.747
   36BMANN  HT317747   1.456   5.092   2.888
   36BMANN   C317748   1.802   5.324   2.570
   36BMANN   H317749   1.859   5.413   2.535
   36BMANN   O317750   1.844   5.297   2.704
   36BMANN  HO317751   1.768   5.306   2.761
   36BMANN   C417752   1.831   5.208   2.477
   36BMANN   H417753   1.779   5.117   2.513
   36BMANN   O417754   1.971   5.181   2.471
   36BMANN  HO417755   2.000   5.155   2.558
   36BMANN   C617756   1.804   5.133   2.235
   36BMANN  H6117757   1.745   5.155   2.144
   36BMANN  H6217758   1.911   5.129   2.206
   36BMANN   O617759   1.767   5.004   2.285
   36BMANN  HO617760   1.845   4.955   2.312
    1ECLIP HB6S17761   5.348   1.097  11.830
    1ECLIP  OB617762   5.272   0.953  11.955
    1ECLIP  CB617763   5.371   0.992  11.858
    1ECLIP HB6R17764   5.473   0.992  11.902
    1ECLIP  CB517765   5.372   0.909  11.731
    1ECLIP  OB517766   5.238   0.902  11.684
    1ECLIP  HB517767   5.412   0.808  11.753
    1ECLIP  CB117768   5.222   0.823  11.565
    1ECLIP  HB117769   5.256   0.719  11.583
    1ECLIP  OA617770   5.089   0.821  11.523
    1ECLIP  CA617771   5.011   0.936  11.560
    1ECLIP HA6R17772   5.073   1.024  11.589
    1ECLIP HA6S17773   4.948   0.908  11.648
    1ECLIP  CB417774   5.453   0.976  11.619
    1ECLIP  HB417775   5.400   1.072  11.599
    1ECLIP  OB417776   5.589   0.995  11.663
    1ECLIP   PB17777   5.648   1.147  11.684
    1ECLIP OPB417778   5.773   1.150  11.768
    1ECLIP OPB317779   5.534   1.227  11.743
    1ECLIP OPB217780   5.660   1.205  11.544
    1ECLIP  CB317781   5.443   0.896  11.490
    1ECLIP  OB317782   5.503   0.974  11.386
    1ECLIP  HB317783   5.485   0.795  11.503
    1ECLIP  C7117784   5.622   0.935  11.342
    1ECLIP  O7117785   5.684   0.838  11.382
    1ECLIP  C7217786   5.635   0.982  11.198
    1ECLIP H72R17787   5.556   0.934  11.137
    1ECLIP H72S17788   5.734   0.945  11.163
    1ECLIP  CB217789   5.297   0.884  11.449
    1ECLIP  HB217790   5.256   0.986  11.433
    1ECLIP  NB217791   5.277   0.808  11.324
    1ECLIP HNB217792   5.254   0.712  11.333
    1ECLIP  CA417793   4.884   0.862  11.355
    1ECLIP  HA417794   4.980   0.826  11.312
    1ECLIP  OA417795   4.824   0.755  11.429
    1ECLIP HOA417796   4.744   0.781  11.475
    1ECLIP  CA517797   4.922   0.978  11.445
    1ECLIP  HA517798   4.831   1.028  11.486
    1ECLIP  OA517799   4.996   1.075  11.367
    1ECLIP  CA117800   4.918   1.132  11.260
    1ECLIP  HA117801   4.990   1.190  11.197
    1ECLIP  OA117802   4.819   1.224  11.305
    1ECLIP OPA217803   4.755   1.466  11.375
    1ECLIP OPA317804   4.894   1.332  11.526
    1ECLIP OPA417805   4.994   1.418  11.310
    1ECLIP   PA17806   4.870   1.365  11.379
    1ECLIP  CA317807   4.798   0.911  11.241
    1ECLIP  HA317808   4.706   0.957  11.283
    1ECLIP  OA317809   4.757   0.799  11.159
    1ECLIP  C3117810   4.855   0.719  11.111
    1ECLIP  O3117811   4.901   0.733  10.999
    1ECLIP  C3217812   4.834   0.577  11.166
    1ECLIP H32R17813   4.781   0.519  11.088
    1ECLIP H32S17814   4.769   0.583  11.256
    1ECLIP  CA217815   4.875   1.019  11.166
    1ECLIP  HA217816   4.968   0.973  11.126
    1ECLIP  NA217817   4.795   1.070  11.055
    1ECLIP HNA217818   4.702   1.097  11.079
    1ECLIP  C7317819   5.628   1.135  11.185
    1ECLIP H73R17820   5.660   1.183  11.280
    1ECLIP  O7317821   5.498   1.174  11.142
    1ECLIP  C8117822   5.415   1.227  11.231
    1ECLIP  O8117823   5.448   1.267  11.341
    1ECLIP  C8217824   5.294   1.288  11.162
    1ECLIP H82R17825   5.262   1.377  11.219
    1ECLIP H82S17826   5.210   1.215  11.167
    1ECLIP  C8317827   5.319   1.326  11.015
    1ECLIP H83R17828   5.331   1.231  10.958
    1ECLIP H83S17829   5.412   1.385  11.003
    1ECLIP  C8417830   5.201   1.404  10.959
    1ECLIP H84R17831   5.214   1.513  10.976
    1ECLIP H84S17832   5.108   1.373  11.013
    1ECLIP  C8517833   5.182   1.371  10.812
    1ECLIP H85R17834   5.161   1.262  10.805
    1ECLIP H85S17835   5.278   1.391  10.759
    1ECLIP  C8617836   5.068   1.446  10.745
    1ECLIP H86R17837   5.097   1.553  10.730
    1ECLIP H86S17838   4.979   1.445  10.811
    1ECLIP  C8717839   5.030   1.383  10.610
    1ECLIP H87R17840   4.964   1.452  10.553
    1ECLIP H87S17841   4.971   1.291  10.631
    1ECLIP  C8817842   5.153   1.342  10.527
    1ECLIP H88R17843   5.208   1.262  10.582
    1ECLIP H88S17844   5.221   1.429  10.516
    1ECLIP  C8917845   5.119   1.285  10.390
    1ECLIP H89R17846   5.042   1.205  10.400
    1ECLIP H89S17847   5.211   1.236  10.351
    1ECLIP C81017848   5.072   1.391  10.290
    1ECLIPH810R17849   5.136   1.482  10.299
    1ECLIPH810S17850   4.969   1.422  10.317
    1ECLIP C81117851   5.074   1.339  10.146
    1ECLIPH811R17852   5.017   1.410  10.081
    1ECLIPH811S17853   5.020   1.242  10.147
    1ECLIP C81217854   5.213   1.315  10.085
    1ECLIPH812R17855   5.200   1.272   9.984
    1ECLIPH812S17856   5.267   1.240  10.146
    1ECLIP C81317857   5.299   1.442  10.074
    1ECLIPH813R17858   5.246   1.516  10.011
    1ECLIPH813S17859   5.312   1.486  10.175
    1ECLIP C81417860   5.438   1.414  10.015
    1ECLIPH814R17861   5.429   1.368   9.914
    1ECLIPH814S17862   5.493   1.343  10.080
    1ECLIPH814T17863   5.496   1.508  10.007
    1ECLIP  C7417864   5.724   1.186  11.074
    1ECLIP H74R17865   5.827   1.149  11.095
    1ECLIP H74S17866   5.726   1.297  11.084
    1ECLIP  C7517867   5.685   1.155  10.927
    1ECLIP H75R17868   5.742   1.225  10.863
    1ECLIP H75S17869   5.577   1.177  10.912
    1ECLIP  C7617870   5.714   1.013  10.876
    1ECLIP H76R17871   5.650   0.939  10.928
    1ECLIP H76S17872   5.820   0.986  10.898
    1ECLIP  C7717873   5.691   1.002  10.725
    1ECLIP H77R17874   5.743   1.086  10.675
    1ECLIP H77S17875   5.582   1.013  10.705
    1ECLIP  C7817876   5.741   0.870  10.663
    1ECLIP H78R17877   5.851   0.867  10.671
    1ECLIP H78S17878   5.701   0.785  10.723
    1ECLIP  C7917879   5.701   0.849  10.516
    1ECLIP H79R17880   5.598   0.808  10.512
    1ECLIP H79S17881   5.768   0.772  10.472
    1ECLIP C71017882   5.704   0.976  10.429
    1ECLIPH710R17883   5.632   1.050  10.469
    1ECLIPH710S17884   5.806   1.021  10.433
    1ECLIP C71117885   5.668   0.946  10.283
    1ECLIPH711R17886   5.735   0.865  10.247
    1ECLIPH711S17887   5.563   0.908  10.280
    1ECLIP C71217888   5.679   1.068  10.191
    1ECLIPH712R17889   5.785   1.102  10.191
    1ECLIPH712S17890   5.617   1.151  10.233
    1ECLIP C71317891   5.634   1.040  10.047
    1ECLIPH713R17892   5.524   1.024  10.048
    1ECLIPH713S17893   5.655   1.129   9.985
    1ECLIP C71417894   5.701   0.917   9.984
    1ECLIPH714R17895   5.812   0.926   9.988
    1ECLIPH714S17896   5.672   0.824  10.038
    1ECLIPH714T17897   5.670   0.904   9.878
    1ECLIP  C5117898   5.277   0.860  11.200
    1ECLIP  O5117899   5.288   0.980  11.181
    1ECLIP  C5217900   5.264   0.763  11.083
    1ECLIP H52R17901   5.359   0.707  11.072
    1ECLIP H52S17902   5.184   0.691  11.111
    1ECLIP  C5317903   5.224   0.825  10.946
    1ECLIP H53R17904   5.135   0.890  10.960
    1ECLIP  O5317905   5.193   0.711  10.864
    1ECLIP  C6117906   5.091   0.722  10.780
    1ECLIP  O6117907   5.045   0.826  10.738
    1ECLIP  C6217908   5.081   0.591  10.700
    1ECLIP H62R17909   5.050   0.510  10.771
    1ECLIP H62S17910   5.182   0.568  10.661
    1ECLIP  C6317911   4.979   0.604  10.584
    1ECLIP H63R17912   5.006   0.693  10.523
    1ECLIP H63S17913   4.878   0.623  10.627
    1ECLIP  C6417914   4.973   0.483  10.489
    1ECLIP H64R17915   4.886   0.499  10.421
    1ECLIP H64S17916   4.954   0.390  10.547
    1ECLIP  C6517917   5.100   0.467  10.405
    1ECLIP H65R17918   5.182   0.437  10.474
    1ECLIP H65S17919   5.128   0.566  10.362
    1ECLIP  C6617920   5.092   0.363  10.293
    1ECLIP H66R17921   5.070   0.264  10.337
    1ECLIP H66S17922   5.193   0.357  10.245
    1ECLIP  C6717923   4.989   0.393  10.182
    1ECLIP H67R17924   4.887   0.377  10.222
    1ECLIP H67S17925   5.005   0.320  10.100
    1ECLIP  C6817926   4.998   0.535  10.124
    1ECLIP H68R17927   5.104   0.564  10.111
    1ECLIP H68S17928   4.954   0.605  10.198
    1ECLIP  C6917929   4.925   0.549   9.990
    1ECLIP H69R17930   4.840   0.477   9.989
    1ECLIP H69S17931   4.994   0.520   9.908
    1ECLIP C61017932   4.868   0.690   9.967
    1ECLIPH610R17933   4.950   0.765   9.973
    1ECLIPH610S17934   4.799   0.713  10.051
    1ECLIP C61117935   4.790   0.706   9.836
    1ECLIPH611R17936   4.700   0.641   9.840
    1ECLIPH611S17937   4.753   0.811   9.832
    1ECLIP C61217938   4.863   0.674   9.705
    1ECLIPH612R17939   4.939   0.752   9.683
    1ECLIPH612S17940   4.912   0.574   9.711
    1ECLIPH612T17941   4.791   0.672   9.621
    1ECLIP  C5417942   5.339   0.907  10.880
    1ECLIP H54R17943   5.426   0.840  10.863
    1ECLIP H54S17944   5.370   0.984  10.954
    1ECLIP  C5517945   5.304   0.982  10.750
    1ECLIP H55R17946   5.367   1.074  10.744
    1ECLIP H55S17947   5.199   1.016  10.756
    1ECLIP  C5617948   5.327   0.900  10.622
    1ECLIP H56R17949   5.278   0.801  10.631
    1ECLIP H56S17950   5.436   0.880  10.611
    1ECLIP  C5717951   5.274   0.968  10.495
    1ECLIP H57R17952   5.336   1.058  10.473
    1ECLIP H57S17953   5.170   1.002  10.513
    1ECLIP  C5817954   5.275   0.874  10.373
    1ECLIP H58R17955   5.374   0.825  10.367
    1ECLIP H58S17956   5.199   0.794  10.390
    1ECLIP  C5917957   5.246   0.946  10.241
    1ECLIP H59R17958   5.318   1.030  10.231
    1ECLIP H59S17959   5.143   0.989  10.244
    1ECLIP C51017960   5.260   0.855  10.118
    1ECLIPH510R17961   5.185   0.773  10.123
    1ECLIPH510S17962   5.361   0.808  10.122
    1ECLIP C51117963   5.246   0.931   9.986
    1ECLIPH511R17964   5.141   0.964   9.973
    1ECLIPH511S17965   5.308   1.023   9.993
    1ECLIP C51217966   5.293   0.852   9.863
    1ECLIPH512R17967   5.305   0.923   9.778
    1ECLIPH512S17968   5.392   0.806   9.884
    1ECLIP C51317969   5.193   0.745   9.818
    1ECLIPH513R17970   5.092   0.788   9.830
    1ECLIPH513S17971   5.200   0.656   9.885
    1ECLIP C51417972   5.207   0.701   9.672
    1ECLIPH514R17973   5.310   0.664   9.651
    1ECLIPH514S17974   5.136   0.619   9.648
    1ECLIPH514T17975   5.186   0.786   9.604
    1ECLIP  C3317976   4.963   0.502  11.205
    1ECLIP H33R17977   4.936   0.409  11.260
    1ECLIP  O3317978   5.039   0.584  11.292
    1ECLIP HO3317979   4.990   0.617  11.367
    1ECLIP  C3417980   5.046   0.461  11.081
    1ECLIP H34R17981   5.059   0.551  11.017
    1ECLIP H34S17982   4.987   0.387  11.022
    1ECLIP  C3517983   5.187   0.402  11.107
    1ECLIP H35R17984   5.180   0.302  11.155
    1ECLIP H35S17985   5.240   0.469  11.178
    1ECLIP  C3617986   5.269   0.395  10.977
    1ECLIP H36R17987   5.255   0.492  10.925
    1ECLIP H36S17988   5.230   0.316  10.911
    1ECLIP  C3717989   5.421   0.378  10.997
    1ECLIP H37R17990   5.446   0.270  11.004
    1ECLIP H37S17991   5.451   0.425  11.092
    1ECLIP  C3817992   5.504   0.444  10.884
    1ECLIP H38R17993   5.489   0.554  10.891
    1ECLIP H38S17994   5.611   0.424  10.901
    1ECLIP  C3917995   5.464   0.399  10.742
    1ECLIP H39R17996   5.356   0.423  10.727
    1ECLIP H39S17997   5.475   0.289  10.734
    1ECLIP C31017998   5.544   0.468  10.631
    1ECLIPH310R17999   5.647   0.426  10.628
    1ECLIPH310S18000   5.552   0.577  10.654
    1ECLIP C31118001   5.476   0.453  10.494
    1ECLIPH311R18002   5.456   0.345  10.475
    1ECLIPH311S18003   5.378   0.505  10.500
    1ECLIP C31218004   5.554   0.512  10.377
    1ECLIPH312R18005   5.579   0.618  10.400
    1ECLIPH312S18006   5.650   0.457  10.364
    1ECLIP C31318007   5.474   0.509  10.246
    1ECLIPH313R18008   5.455   0.403  10.218
    1ECLIPH313S18009   5.375   0.556  10.264
    1ECLIP C31418010   5.542   0.581  10.130
    1ECLIPH314R18011   5.642   0.537  10.110
    1ECLIPH314S18012   5.480   0.576  10.038
    1ECLIPH314T18013   5.557   0.688  10.157
    1ECLIP  C1118014   4.836   1.082  10.928
    1ECLIP  O1118015   4.953   1.065  10.895
    1ECLIP  C1218016   4.730   1.125  10.828
    1ECLIP H12R18017   4.725   1.236  10.832
    1ECLIP H12S18018   4.632   1.083  10.858
    1ECLIP  C1318019   4.764   1.080  10.685
    1ECLIP H13R18020   4.871   1.103  10.662
    1ECLIP  O1318021   4.683   1.156  10.597
    1ECLIP HO1318022   4.694   1.130  10.505
    1ECLIP  C1418023   4.737   0.931  10.655
    1ECLIP H14R18024   4.639   0.904  10.700
    1ECLIP H14S18025   4.815   0.871  10.707
    1ECLIP  C1518026   4.732   0.893  10.505
    1ECLIP H15R18027   4.638   0.935  10.463
    1ECLIP H15S18028   4.723   0.783  10.496
    1ECLIP  C1618029   4.851   0.939  10.419
    1ECLIP H16R18030   4.935   0.867  10.433
    1ECLIP H16S18031   4.890   1.038  10.451
    1ECLIP  C1718032   4.817   0.949  10.269
    1ECLIP H17R18033   4.763   0.857  10.238
    1ECLIP H17S18034   4.912   0.952  10.211
    1ECLIP  C1818035   4.734   1.074  10.235
    1ECLIP H18R18036   4.641   1.072  10.296
    1ECLIP H18S18037   4.791   1.164  10.264
    1ECLIP  C1918038   4.694   1.084  10.087
    1ECLIP H19R18039   4.623   1.169  10.077
    1ECLIP H19S18040   4.641   0.992  10.056
    1ECLIP C11018041   4.813   1.111   9.994
    1ECLIPH110R18042   4.863   1.204  10.029
    1ECLIPH110S18043   4.886   1.028  10.000
    1ECLIP C11118044   4.773   1.133   9.848
    1ECLIPH111R18045   4.728   1.040   9.808
    1ECLIPH111S18046   4.695   1.212   9.845
    1ECLIP C11218047   4.891   1.177   9.760
    1ECLIPH112R18048   4.934   1.271   9.801
    1ECLIPH112S18049   4.970   1.100   9.762
    1ECLIP C11318050   4.844   1.201   9.617
    1ECLIPH113R18051   4.824   1.102   9.571
    1ECLIPH113S18052   4.747   1.256   9.621
    1ECLIP C11418053   4.939   1.278   9.526
    1ECLIPH114R18054   4.985   1.364   9.579
    1ECLIPH114S18055   5.019   1.209   9.490
    1ECLIPH114T18056   4.885   1.315   9.436
    2AKDO    C118057   5.396   0.765  12.036
    2AKDO   O1118058   5.522   0.764  12.033
    2AKDO   O1218059   5.320   0.665  12.026
    2AKDO    C218060   5.327   0.900  12.075
    2AKDO    C618061   5.367   1.119  12.165
    2AKDO    H618062   5.320   1.155  12.072
    2AKDO    O618063   5.422   0.989  12.137
    2AKDO    C318064   5.207   0.888  12.172
    2AKDO   H3118065   5.241   0.837  12.265
    2AKDO   H3218066   5.130   0.824  12.123
    2AKDO    C418067   5.147   1.021  12.205
    2AKDO    H418068   5.115   1.067  12.109
    2AKDO    O418069   5.035   1.014  12.295
    2AKDO    C518070   5.252   1.112  12.268
    2AKDO    H518071   5.205   1.213  12.274
    2AKDO    O518072   5.286   1.069  12.403
    2AKDO    C718073   5.484   1.215  12.187
    2AKDO    H718074   5.546   1.179  12.273
    2AKDO    O718075   5.436   1.348  12.212
    2AKDO   HO718076   5.369   1.363  12.144
    2AKDO    C818077   5.573   1.214  12.063
    2AKDO   H8118078   5.602   1.110  12.039
    2AKDO   H8218079   5.513   1.251  11.977
    2AKDO    O818080   5.693   1.292  12.072
    2AKDO   HO818081   5.740   1.264  11.992
    3AKDO    C118082   4.838   1.087  12.144
    3AKDO   O1118083   4.914   1.165  12.082
    3AKDO   O1218084   4.711   1.095  12.148
    3AKDO    C218085   4.900   0.991  12.254
    3AKDO    C618086   4.917   0.757  12.316
    3AKDO    H618087   5.025   0.775  12.336
    3AKDO    O618088   4.874   0.853  12.216
    3AKDO    C318089   4.829   1.016  12.388
    3AKDO   H3118090   4.719   1.007  12.373
    3AKDO   H3218091   4.849   1.120  12.420
    3AKDO    C418092   4.870   0.920  12.496
    3AKDO    H418093   4.979   0.928  12.515
    3AKDO    O418094   4.801   0.954  12.616
    3AKDO   HO418095   4.856   1.013  12.667
    3AKDO    C518096   4.841   0.779  12.446
    3AKDO    H518097   4.876   0.707  12.522
    3AKDO    O518098   4.701   0.756  12.424
    3AKDO   HO518099   4.688   0.771  12.330
    3AKDO    C718100   4.905   0.613  12.265
    3AKDO    H718101   4.799   0.581  12.267
    3AKDO    O718102   4.982   0.526  12.350
    3AKDO   HO718103   5.030   0.476  12.284
    3AKDO    C818104   4.957   0.596  12.123
    3AKDO   H8118105   4.906   0.667  12.055
    3AKDO   H8218106   5.066   0.617  12.119
    3AKDO    O818107   4.933   0.462  12.078
    3AKDO   HO818108   4.850   0.467  12.029
    4AHEP    C118109   5.335   1.170  12.489
    4AHEP    H118110   5.430   1.208  12.445
    4AHEP    C518111   5.128   1.256  12.575
    4AHEP    H518112   5.080   1.168  12.526
    4AHEP    O518113   5.249   1.285  12.501
    4AHEP    C218114   5.372   1.120  12.629
    4AHEP    H218115   5.425   1.024  12.615
    4AHEP    O218116   5.463   1.206  12.698
    4AHEP   HO218117   5.410   1.252  12.764
    4AHEP    C318118   5.249   1.092  12.714
    4AHEP    H318119   5.192   1.008  12.668
    4AHEP    O318120   5.289   1.063  12.849
    4AHEP    C418121   5.163   1.217  12.719
    4AHEP    H418122   5.222   1.299  12.763
    4AHEP    O418123   5.043   1.192  12.795
    4AHEP    P418124   5.004   1.284  12.929
    4AHEP  OP4218125   4.881   1.218  12.991
    4AHEP  OP4318126   4.976   1.425  12.878
    4AHEP  OP4418127   5.126   1.284  13.019
    4AHEP    C618128   5.027   1.370  12.561
    4AHEP    H618129   4.929   1.334  12.599
    4AHEP    O618130   5.066   1.482  12.642
    4AHEP   HO618131   5.037   1.457  12.730
    4AHEP    C718132   5.008   1.416  12.416
    4AHEP   H7118133   4.927   1.492  12.411
    4AHEP   H7218134   4.976   1.329  12.355
    4AHEP    O718135   5.128   1.471  12.359
    4AHEP   HO718136   5.196   1.418  12.402
    5AHEP    C118137   5.240   0.943  12.903
    5AHEP    H118138   5.145   0.915  12.853
    5AHEP    C518139   5.462   0.865  12.954
    5AHEP    H518140   5.501   0.961  12.914
    5AHEP    O518141   5.335   0.837  12.890
    5AHEP    C218142   5.211   0.961  13.051
    5AHEP    H218143   5.148   1.052  13.062
    5AHEP    O218144   5.131   0.853  13.103
    5AHEP   HO218145   5.041   0.881  13.086
    5AHEP    C318146   5.339   0.988  13.128
    5AHEP    H318147   5.381   1.085  13.093
    5AHEP    O318148   5.319   0.988  13.270
    5AHEP    C418149   5.439   0.878  13.104
    5AHEP    H418150   5.393   0.784  13.142
    5AHEP    O418151   5.562   0.914  13.167
    5AHEP    P418152   5.636   0.815  13.274
    5AHEP  OP4218153   5.716   0.901  13.369
    5AHEP  OP4318154   5.717   0.717  13.191
    5AHEP  OP4418155   5.528   0.729  13.337
    5AHEP    C618156   5.559   0.755  12.914
    5AHEP    H618157   5.661   0.783  12.949
    5AHEP    O618158   5.519   0.631  12.973
    5AHEP   HO618159   5.475   0.594  12.896
    5AHEP    C718160   5.559   0.738  12.762
    5AHEP   H7118161   5.664   0.717  12.731
    5AHEP   H7218162   5.530   0.831  12.710
    5AHEP    O718163   5.480   0.624  12.722
    6AHEP    C118164   5.360   0.660  12.656
    6AHEP    H118165   5.332   0.766  12.673
    6AHEP    C518166   5.408   0.509  12.477
    6AHEP    H518167   5.505   0.482  12.524
    6AHEP    O518168   5.372   0.643  12.515
    6AHEP    C218169   5.251   0.570  12.707
    6AHEP    H218170   5.248   0.581  12.818
    6AHEP    O218171   5.121   0.609  12.660
    6AHEP   HO218172   5.119   0.605  12.564
    6AHEP    C318173   5.285   0.425  12.675
    6AHEP    H318174   5.383   0.400  12.721
    6AHEP    O318175   5.189   0.334  12.731
    6AHEP   HO318176   5.178   0.263  12.667
    6AHEP    C418177   5.301   0.411  12.525
    6AHEP    H418178   5.204   0.437  12.476
    6AHEP    O418179   5.335   0.278  12.489
    6AHEP   HO418180   5.311   0.264  12.397
    6AHEP    C618181   5.429   0.503  12.326
    6AHEP    H618182   5.451   0.399  12.296
    6AHEP    O618183   5.306   0.540  12.261
    6AHEP   HO618184   5.327   0.595  12.185
    6AHEP    C718185   5.548   0.587  12.281
    6AHEP   H7118186   5.561   0.573  12.171
    6AHEP   H7218187   5.639   0.546  12.329
    6AHEP    O718188   5.547   0.727  12.311
    6AHEP   HO718189   5.517   0.770  12.230
    7AGLC    C118190   5.297   1.114  13.325
    7AGLC    H118191   5.364   1.190  13.279
    7AGLC    C518192   5.068   1.061  13.366
    7AGLC    H518193   5.085   0.959  13.326
    7AGLC    O518194   5.161   1.154  13.309
    7AGLC    C218195   5.326   1.105  13.474
    7AGLC    H218196   5.311   1.206  13.517
    7AGLC    O218197   5.462   1.069  13.498
    7AGLC   HO218198   5.482   0.990  13.447
    7AGLC    C318199   5.232   1.008  13.545
    7AGLC    H318200   5.245   0.907  13.501
    7AGLC    O318201   5.253   1.005  13.689
    7AGLC    C418202   5.092   1.058  13.515
    7AGLC    H418203   5.089   1.164  13.549
    7AGLC    O418204   4.989   0.988  13.584
    7AGLC   HO418205   4.927   1.055  13.614
    7AGLC    C618206   4.929   1.105  13.325
    7AGLC   H6118207   4.924   1.109  13.214
    7AGLC   H6218208   4.854   1.031  13.358
    7AGLC    O618209   4.898   1.234  13.378
    7AGLC   HO618210   4.931   1.295  13.311
    8AGLC    C118211   5.275   0.875  13.741
    8AGLC    H118212   5.210   0.801  13.690
    8AGLC    C518213   5.506   0.925  13.786
    8AGLC    H518214   5.492   1.026  13.744
    8AGLC    O518215   5.412   0.835  13.726
    8AGLC    C218216   5.247   0.874  13.891
    8AGLC    H218217   5.267   0.771  13.928
    8AGLC    O218218   5.112   0.909  13.923
    8AGLC    C318219   5.339   0.969  13.965
    8AGLC    H318220   5.322   1.071  13.924
    8AGLC    O318221   5.298   0.972  14.105
    8AGLC    C418222   5.483   0.929  13.937
    8AGLC    H418223   5.501   0.826  13.974
    8AGLC    O418224   5.576   1.017  14.000
    8AGLC   HO418225   5.563   1.106  13.965
    8AGLC    C618226   5.645   0.876  13.745
    8AGLC   H6118227   5.642   0.840  13.640
    8AGLC   H6218228   5.716   0.962  13.746
    8AGLC    O618229   5.697   0.773  13.830
    8AGLC   HO618230   5.761   0.811  13.890
    9AGAL    C118231   5.009   0.822  13.881
    9AGAL    H118232   5.010   0.811  13.770
    9AGAL    C518233   5.019   0.697  14.083
    9AGAL    H518234   5.100   0.765  14.116
    9AGAL    O518235   5.020   0.692  13.940
    9AGAL    C218236   4.878   0.888  13.922
    9AGAL    H218237   4.794   0.824  13.887
    9AGAL    O218238   4.874   1.013  13.848
    9AGAL    C318239   4.871   0.895  14.075
    9AGAL    H318240   4.958   0.954  14.110
    9AGAL    O318241   4.754   0.959  14.123
    9AGAL   HO318242   4.764   1.053  14.105
    9AGAL    C418243   4.886   0.755  14.134
    9AGAL    H418244   4.892   0.763  14.244
    9AGAL    O418245   4.776   0.669  14.103
    9AGAL   HO418246   4.812   0.582  14.088
    9AGAL    C618247   5.056   0.560  14.137
    9AGAL   H6118248   5.154   0.529  14.095
    9AGAL   H6218249   5.069   0.566  14.248
    9AGAL    O618250   4.960   0.458  14.109
    9AGAL   HO618251   4.962   0.437  14.015
   10AGAL    C118252   4.802   1.127  13.891
   10AGAL    H118253   4.695   1.101  13.903
   10AGAL    C518254   4.992   1.220  14.006
   10AGAL    H518255   5.052   1.133  13.971
   10AGAL    O518256   4.854   1.179  14.015
   10AGAL    C218257   4.814   1.235  13.783
   10AGAL    H218258   4.757   1.323  13.818
   10AGAL    O218259   4.756   1.195  13.657
   10AGAL   HO218260   4.758   1.272  13.601
   10AGAL    C318261   4.961   1.277  13.769
   10AGAL    H318262   5.022   1.186  13.748
   10AGAL    O318263   4.985   1.370  13.663
   10AGAL   HO318264   4.965   1.332  13.577
   10AGAL    C418265   5.012   1.330  13.902
   10AGAL    H418266   5.120   1.352  13.893
   10AGAL    O418267   4.946   1.452  13.938
   10AGAL   HO418268   4.930   1.500  13.857
   10AGAL    C618269   5.045   1.253  14.145
   10AGAL   H6118270   5.033   1.165  14.211
   10AGAL   H6218271   5.154   1.275  14.138
   10AGAL    O618272   4.979   1.364  14.204
   10AGAL   HO618273   4.966   1.428  14.133
   11BGLC    C118274   5.370   0.899  14.202
   11BGLC    H118275   5.468   0.949  14.219
   11BGLC    C518276   5.469   0.688  14.255
   11BGLC    H518277   5.566   0.740  14.272
   11BGLC    O518278   5.389   0.763  14.162
   11BGLC    C218279   5.292   0.898  14.334
   11BGLC    H218280   5.195   0.849  14.316
   11BGLC    O218281   5.267   1.030  14.383
   11BGLC   HO218282   5.194   1.070  14.335
   11BGLC    C318283   5.368   0.819  14.439
   11BGLC    H318284   5.463   0.870  14.464
   11BGLC    O318285   5.287   0.802  14.557
   11BGLC    C418286   5.394   0.681  14.387
   11BGLC    H418287   5.298   0.628  14.370
   11BGLC    O418288   5.470   0.607  14.482
   11BGLC   HO418289   5.419   0.604  14.563
   11BGLC    C618290   5.499   0.553  14.191
   11BGLC   H6118291   5.540   0.484  14.268
   11BGLC   H6218292   5.406   0.508  14.151
   11BGLC    O618293   5.597   0.565  14.087
   11BGLC   HO618294   5.558   0.599  14.007
   12BGLCN   C118295   5.332   0.864  14.676
   12BGLCN   H118296   5.339   0.974  14.660
   12BGLCN   C518297   5.505   0.862  14.839
   12BGLCN   H518298   5.514   0.972  14.831
   12BGLCN   O518299   5.457   0.807  14.716
   12BGLCN   C218300   5.226   0.830  14.781
   12BGLCN   H218301   5.223   0.719  14.789
   12BGLCN    N18302   5.096   0.876  14.734
   12BGLCN   HN18303   5.096   0.955  14.673
   12BGLCN    C18304   4.979   0.814  14.752
   12BGLCN    O18305   4.964   0.715  14.824
   12BGLCN   CT18306   4.861   0.874  14.681
   12BGLCN  HT118307   4.773   0.876  14.749
   12BGLCN  HT218308   4.837   0.814  14.592
   12BGLCN  HT318309   4.884   0.978  14.649
   12BGLCN   C318310   5.268   0.886  14.917
   12BGLCN   H318311   5.273   0.997  14.909
   12BGLCN   O318312   5.174   0.848  15.020
   12BGLCN   C418313   5.405   0.830  14.950
   12BGLCN   H418314   5.397   0.719  14.959
   12BGLCN   O418315   5.456   0.879  15.074
   12BGLCN  HO418316   5.469   0.974  15.070
   12BGLCN   C618317   5.643   0.801  14.862
   12BGLCN  H6118318   5.668   0.802  14.970
   12BGLCN  H6218319   5.643   0.695  14.830
   12BGLCN   O618320   5.745   0.873  14.792
   12BGLCN  HO618321   5.742   0.849  14.699
   13AGAL    C118322   5.156   0.937  15.129
   13AGAL    H118323   5.251   0.991  15.152
   13AGAL    C518324   4.926   0.975  15.074
   13AGAL    H518325   4.940   0.901  14.992
   13AGAL    O518326   5.054   1.035  15.100
   13AGAL    C218327   5.111   0.862  15.254
   13AGAL    H218328   5.090   0.941  15.330
   13AGAL    O218329   5.214   0.777  15.310
   13AGAL    C318330   4.979   0.790  15.227
   13AGAL    H318331   4.994   0.724  15.139
   13AGAL    O318332   4.937   0.706  15.335
   13AGAL   HO318333   4.918   0.618  15.303
   13AGAL    C418334   4.875   0.895  15.194
   13AGAL    H418335   4.781   0.843  15.165
   13AGAL    O418336   4.844   0.980  15.305
   13AGAL   HO418337   4.925   1.022  15.337
   13AGAL    C618338   4.826   1.076  15.018
   13AGAL   H6118339   4.873   1.133  14.935
   13AGAL   H6218340   4.739   1.022  14.977
   13AGAL    O618341   4.779   1.168  15.117
   13AGAL   HO618342   4.782   1.121  15.201
   14ARHM    C118343   5.260   0.811  15.440
   14ARHM    H118344   5.263   0.921  15.450
   14ARHM    C518345   5.409   0.626  15.460
   14ARHM    H518346   5.380   0.588  15.360
   14ARHM    O518347   5.396   0.769  15.463
   14ARHM    C218348   5.167   0.752  15.545
   14ARHM    H218349   5.063   0.784  15.522
   14ARHM    O218350   5.192   0.791  15.682
   14ARHM    C318351   5.176   0.602  15.540
   14ARHM    H318352   5.149   0.567  15.438
   14ARHM    O318353   5.085   0.540  15.631
   14ARHM   HO318354   5.102   0.574  15.720
   14ARHM    C418355   5.320   0.561  15.566
   14ARHM    H418356   5.352   0.600  15.665
   14ARHM    O418357   5.337   0.420  15.568
   14ARHM   HO418358   5.265   0.383  15.620
   14ARHM    C618359   5.559   0.599  15.480
   14ARHM   H6118360   5.617   0.640  15.395
   14ARHM   H6218361   5.595   0.645  15.575
   14ARHM   H6318362   5.577   0.489  15.486
   15ARHM    C118363   5.179   0.928  15.706
   15ARHM    H118364   5.109   0.975  15.633
   15ARHM    C518365   5.401   0.942  15.793
   15ARHM    H518366   5.418   0.834  15.772
   15ARHM    O518367   5.307   0.994  15.699
   15ARHM    C218368   5.122   0.947  15.845
   15ARHM    H218369   5.024   0.895  15.851
   15ARHM    O218370   5.101   1.088  15.859
   15ARHM    C318371   5.216   0.887  15.947
   15ARHM    H318372   5.232   0.781  15.918
   15ARHM    O318373   5.160   0.890  16.079
   15ARHM    C418374   5.349   0.959  15.935
   15ARHM    H418375   5.331   1.068  15.951
   15ARHM    O418376   5.444   0.918  16.033
   15ARHM   HO418377   5.487   0.997  16.065
   15ARHM    C618378   5.533   1.015  15.764
   15ARHM   H6118379   5.615   0.975  15.827
   15ARHM   H6218380   5.561   1.003  15.657
   15ARHM   H6318381   5.522   1.124  15.784
   16BMANN   C118382   5.057   1.139  15.982
   16BMANN   H118383   5.137   1.126  16.058
   16BMANN   C518384   4.893   1.130  16.154
   16BMANN   H518385   4.973   1.112  16.229
   16BMANN   O518386   4.935   1.077  16.027
   16BMANN   C218387   5.036   1.287  15.958
   16BMANN   H218388   5.135   1.331  15.933
   16BMANN    N18389   4.944   1.315  15.847
   16BMANN   HN18390   4.846   1.309  15.866
   16BMANN    C18391   4.984   1.347  15.723
   16BMANN    O18392   5.102   1.352  15.690
   16BMANN   CT18393   4.876   1.375  15.623
   16BMANN  HT118394   4.885   1.479  15.586
   16BMANN  HT218395   4.775   1.361  15.668
   16BMANN  HT318396   4.887   1.305  15.537
   16BMANN   C318397   4.994   1.348  16.090
   16BMANN   H318398   5.076   1.328  16.163
   16BMANN   O318399   4.981   1.489  16.081
   16BMANN  HO318400   5.055   1.528  16.128
   16BMANN   C418401   4.868   1.280  16.141
   16BMANN   H418402   4.787   1.295  16.067
   16BMANN   O418403   4.825   1.336  16.265
   16BMANN  HO418404   4.819   1.431  16.252
   16BMANN   C618405   4.769   1.053  16.197
   16BMANN  H6118406   4.738   1.085  16.298
   16BMANN  H6218407   4.687   1.076  16.126
   16BMANN   O618408   4.792   0.912  16.198
   16BMANN  HO618409   4.857   0.894  16.129
   17BGLCN   C118410   5.179   0.771  16.149
   17BGLCN   H118411   5.280   0.731  16.127
   17BGLCN   C518412   5.102   0.548  16.183
   17BGLCN   H518413   5.203   0.510  16.154
   17BGLCN   O518414   5.079   0.673  16.117
   17BGLCN   C218415   5.169   0.801  16.297
   17BGLCN   H218416   5.063   0.828  16.318
   17BGLCN    N18417   5.249   0.917  16.331
   17BGLCN   HN18418   5.317   0.945  16.263
   17BGLCN    C18419   5.229   0.994  16.439
   17BGLCN    O18420   5.140   0.972  16.520
   17BGLCN   CT18421   5.326   1.108  16.457
   17BGLCN  HT118422   5.318   1.178  16.371
   17BGLCN  HT218423   5.430   1.070  16.465
   17BGLCN  HT318424   5.301   1.163  16.549
   17BGLCN   C318425   5.202   0.673  16.373
   17BGLCN   H318426   5.300   0.638  16.334
   17BGLCN   O318427   5.215   0.699  16.514
   17BGLCN   C418428   5.099   0.568  16.335
   17BGLCN   H418429   4.998   0.602  16.365
   17BGLCN   O418430   5.126   0.443  16.398
   17BGLCN  HO418431   5.067   0.431  16.472
   17BGLCN   C618432   5.000   0.448  16.132
   17BGLCN  H6118433   5.012   0.350  16.184
   17BGLCN  H6218434   4.898   0.486  16.155
   17BGLCN   O618435   5.010   0.427  15.990
   17BGLCN  HO618436   5.089   0.379  15.966
   18AGAL    C118437   5.303   0.615  16.588
   18AGAL    H118438   5.254   0.517  16.604
   18AGAL    C518439   5.504   0.715  16.502
   18AGAL    H518440   5.439   0.788  16.449
   18AGAL    O518441   5.428   0.593  16.520
   18AGAL    C218442   5.334   0.674  16.725
   18AGAL    H218443   5.402   0.600  16.772
   18AGAL    O218444   5.216   0.684  16.809
   18AGAL    C318445   5.409   0.805  16.710
   18AGAL    H318446   5.345   0.874  16.651
   18AGAL    O318447   5.435   0.872  16.834
   18AGAL   HO318448   5.434   0.967  16.820
   18AGAL    C418449   5.539   0.780  16.636
   18AGAL    H418450   5.588   0.877  16.614
   18AGAL    O418451   5.630   0.702  16.715
   18AGAL   HO418452   5.641   0.752  16.796
   18AGAL    C618453   5.621   0.692  16.409
   18AGAL   H6118454   5.584   0.656  16.311
   18AGAL   H6218455   5.674   0.788  16.391
   18AGAL    O618456   5.714   0.598  16.462
   18AGAL   HO618457   5.692   0.586  16.554
   19ARHM    C118458   5.245   0.656  16.944
   19ARHM    H118459   5.348   0.691  16.969
   19ARHM    C518460   5.114   0.458  16.962
   19ARHM    H518461   5.075   0.475  16.860
   19ARHM    O518462   5.245   0.516  16.974
   19ARHM    C218463   5.149   0.730  17.036
   19ARHM    H218464   5.140   0.833  16.997
   19ARHM    O218465   5.194   0.735  17.173
   19ARHM    C318466   5.010   0.671  17.028
   19ARHM    H318467   4.971   0.682  16.925
   19ARHM    O318468   4.921   0.740  17.116
   19ARHM   HO318469   4.968   0.754  17.199
   19ARHM    C418470   5.021   0.524  17.063
   19ARHM    H418471   5.070   0.516  17.162
   19ARHM    O418472   4.895   0.457  17.073
   19ARHM   HO418473   4.832   0.499  17.014
   19ARHM    C618474   5.129   0.306  16.982
   19ARHM   H6118475   5.197   0.264  16.904
   19ARHM   H6218476   5.172   0.285  17.082
   19ARHM   H6318477   5.031   0.255  16.973
   20ARHM    C118478   5.301   0.824  17.193
   20ARHM    H118479   5.310   0.895  17.108
   20ARHM    C518480   5.433   0.670  17.319
   20ARHM    H518481   5.354   0.592  17.309
   20ARHM    O518482   5.427   0.757  17.206
   20ARHM    C218483   5.270   0.903  17.318
   20ARHM    H218484   5.167   0.944  17.311
   20ARHM    O218485   5.362   1.012  17.334
   20ARHM    C318486   5.274   0.814  17.439
   20ARHM    H318487   5.197   0.736  17.428
   20ARHM    O318488   5.246   0.893  17.555
   20ARHM    C418489   5.410   0.749  17.448
   20ARHM    H418490   5.488   0.828  17.454
   20ARHM    O418491   5.424   0.668  17.565
   20ARHM   HO418492   5.457   0.581  17.540
   20ARHM    C618493   5.570   0.599  17.312
   20ARHM   H6118494   5.652   0.674  17.321
   20ARHM   H6218495   5.582   0.524  17.393
   20ARHM   H6318496   5.581   0.548  17.214
   21BMANN   C118497   5.332   1.127  17.259
   21BMANN   H118498   5.247   1.110  17.190
   21BMANN   C518499   5.425   1.287  17.107
   21BMANN   H518500   5.339   1.271  17.038
   21BMANN   O518501   5.447   1.167  17.184
   21BMANN   C218502   5.301   1.235  17.360
   21BMANN   H218503   5.209   1.203  17.414
   21BMANN    N18504   5.408   1.244  17.457
   21BMANN   HN18505   5.490   1.193  17.433
   21BMANN    C18506   5.402   1.307  17.575
   21BMANN    O18507   5.304   1.372  17.610
   21BMANN   CT18508   5.524   1.296  17.663
   21BMANN  HT118509   5.596   1.375  17.637
   21BMANN  HT218510   5.570   1.196  17.650
   21BMANN  HT318511   5.492   1.307  17.769
   21BMANN   C318512   5.270   1.362  17.283
   21BMANN   H318513   5.187   1.342  17.212
   21BMANN   O318514   5.223   1.465  17.369
   21BMANN  HO318515   5.252   1.446  17.459
   21BMANN   C418516   5.391   1.403  17.201
   21BMANN   H418517   5.478   1.418  17.269
   21BMANN   O418518   5.370   1.525  17.131
   21BMANN  HO418519   5.333   1.586  17.195
   21BMANN   C618520   5.548   1.312  17.022
   21BMANN  H6118521   5.527   1.390  16.947
   21BMANN  H6218522   5.631   1.347  17.087
   21BMANN   O618523   5.591   1.192  16.956
   21BMANN  HO618524   5.611   1.127  17.023
   22BGLCN   C118525   5.166   0.831  17.652
   22BGLCN   H118526   5.179   0.720  17.650
   22BGLCN   C518527   4.945   0.813  17.734
   22BGLCN   H518528   4.959   0.703  17.738
   22BGLCN   O518529   5.029   0.867  17.632
   22BGLCN   C218530   5.216   0.886  17.783
   22BGLCN   H218531   5.204   0.997  17.780
   22BGLCN    N18532   5.358   0.857  17.797
   22BGLCN   HN18533   5.390   0.778  17.745
   22BGLCN    C18534   5.448   0.933  17.859
   22BGLCN    O18535   5.423   1.041  17.913
   22BGLCN   CT18536   5.588   0.879  17.860
   22BGLCN  HT118537   5.653   0.939  17.792
   22BGLCN  HT218538   5.589   0.773  17.826
   22BGLCN  HT318539   5.628   0.884  17.963
   22BGLCN   C318540   5.130   0.833  17.897
   22BGLCN   H318541   5.138   0.722  17.896
   22BGLCN   O318542   5.185   0.882  18.021
   22BGLCN   C418543   4.986   0.872  17.869
   22BGLCN   H418544   4.979   0.982  17.862
   22BGLCN   O418545   4.895   0.830  17.970
   22BGLCN  HO418546   4.900   0.890  18.045
   22BGLCN   C618547   4.801   0.837  17.695
   22BGLCN  H6118548   4.733   0.790  17.769
   22BGLCN  H6218549   4.780   0.946  17.692
   22BGLCN   O618550   4.771   0.780  17.567
   22BGLCN  HO618551   4.822   0.827  17.502
   23AGAL    C118552   5.155   0.816  18.141
   23AGAL    H118553   5.049   0.838  18.169
   23AGAL    C518554   5.305   0.633  18.108
   23AGAL    H518555   5.338   0.678  18.011
   23AGAL    O518556   5.169   0.674  18.134
   23AGAL    C218557   5.244   0.869  18.253
   23AGAL    H218558   5.214   0.816  18.346
   23AGAL    O218559   5.225   1.010  18.273
   23AGAL    C318560   5.389   0.834  18.226
   23AGAL    H318561   5.419   0.881  18.130
   23AGAL    O318562   5.475   0.884  18.327
   23AGAL   HO318563   5.472   0.820  18.399
   23AGAL    C418564   5.401   0.683  18.216
   23AGAL    H418565   5.504   0.657  18.186
   23AGAL    O418566   5.375   0.620  18.342
   23AGAL   HO418567   5.329   0.539  18.319
   23AGAL    C618568   5.307   0.482  18.089
   23AGAL   H6118569   5.242   0.455  18.003
   23AGAL   H6218570   5.411   0.451  18.065
   23AGAL    O618571   5.264   0.409  18.205
   23AGAL   HO618572   5.328   0.339  18.222
   24ARHM    C118573   5.126   1.044  18.366
   24ARHM    H118574   5.053   0.961  18.374
   24ARHM    C518575   5.131   1.275  18.313
   24ARHM    H518576   5.210   1.257  18.237
   24ARHM    O518577   5.050   1.158  18.325
   24ARHM    C218578   5.191   1.068  18.500
   24ARHM    H218579   5.255   0.981  18.526
   24ARHM    O218580   5.090   1.087  18.600
   24ARHM    C318581   5.280   1.190  18.492
   24ARHM    H318582   5.360   1.172  18.416
   24ARHM    O318583   5.344   1.213  18.617
   24ARHM   HO318584   5.390   1.297  18.611
   24ARHM    C418585   5.196   1.308  18.447
   24ARHM    H418586   5.116   1.325  18.522
   24ARHM    O418587   5.273   1.429  18.440
   24ARHM   HO418588   5.269   1.466  18.352
   24ARHM    C618589   5.036   1.383  18.260
   24ARHM   H6118590   5.089   1.478  18.238
   24ARHM   H6218591   4.989   1.348  18.165
   24ARHM   H6318592   4.954   1.404  18.332
   25ARHM    C118593   5.041   0.969  18.658
   25ARHM    H118594   5.052   0.885  18.586
   25ARHM    C518595   4.873   1.077  18.786
   25ARHM    H518596   4.907   1.176  18.749
   25ARHM    O518597   4.901   0.977  18.687
   25ARHM    C218598   5.124   0.939  18.780
   25ARHM    H218599   5.232   0.945  18.755
   25ARHM    O218600   5.095   0.809  18.833
   25ARHM    C318601   5.097   1.043  18.885
   25ARHM    H318602   5.127   1.142  18.845
   25ARHM    O318603   5.179   1.013  18.998
   25ARHM    C418604   4.948   1.044  18.915
   25ARHM    H418605   4.918   0.942  18.948
   25ARHM    O418606   4.914   1.135  19.020
   25ARHM   HO418607   4.820   1.156  19.013
   25ARHM    C618608   4.720   1.082  18.800
   25ARHM   H6118609   4.674   1.100  18.701
   25ARHM   H6218610   4.681   0.985  18.838
   25ARHM   H6318611   4.688   1.164  18.868
   26BMANN   C118612   5.159   0.701  18.769
   26BMANN   H118613   5.260   0.731  18.732
   26BMANN   C518614   5.138   0.535  18.597
   26BMANN   H518615   5.240   0.564  18.563
   26BMANN   O518616   5.078   0.650  18.662
   26BMANN   C218617   5.171   0.594  18.875
   26BMANN   H218618   5.241   0.637  18.950
   26BMANN    N18619   5.046   0.564  18.945
   26BMANN   HN18620   4.961   0.577  18.893
   26BMANN    C18621   5.042   0.520  19.071
   26BMANN    O18622   5.145   0.502  19.136
   26BMANN   CT18623   4.907   0.492  19.130
   26BMANN  HT118624   4.827   0.547  19.076
   26BMANN  HT218625   4.906   0.522  19.237
   26BMANN  HT318626   4.885   0.383  19.124
   26BMANN   C318627   5.237   0.472  18.814
   26BMANN   H318628   5.336   0.501  18.775
   26BMANN   O318629   5.260   0.372  18.914
   26BMANN  HO318630   5.224   0.405  18.997
   26BMANN   C418631   5.153   0.422  18.698
   26BMANN   H418632   5.052   0.393  18.735
   26BMANN   O418633   5.210   0.307  18.635
   26BMANN  HO418634   5.195   0.232  18.693
   26BMANN   C618635   5.059   0.499  18.472
   26BMANN  H6118636   5.066   0.583  18.399
   26BMANN  H6218637   5.105   0.411  18.423
   26BMANN   O618638   4.920   0.472  18.496
   26BMANN  HO618639   4.910   0.419  18.575
   27BGLCN   C118640   5.218   1.122  19.078
   27BGLCN   H118641   5.146   1.206  19.069
   27BGLCN   C518642   5.396   1.270  19.134
   27BGLCN   H518643   5.324   1.354  19.131
   27BGLCN   O518644   5.351   1.165  19.046
   27BGLCN   C218645   5.216   1.063  19.217
   27BGLCN   H218646   5.290   0.979  19.218
   27BGLCN    N18647   5.083   1.010  19.245
   27BGLCN   HN18648   5.009   1.054  19.196
   27BGLCN    C18649   5.058   0.899  19.315
   27BGLCN    O18650   5.146   0.829  19.366
   27BGLCN   CT18651   4.913   0.861  19.330
   27BGLCN  HT118652   4.848   0.928  19.270
   27BGLCN  HT218653   4.883   0.866  19.437
   27BGLCN  HT318654   4.899   0.756  19.294
   27BGLCN   C318655   5.263   1.167  19.316
   27BGLCN   H318656   5.193   1.253  19.305
   27BGLCN   O318657   5.250   1.111  19.449
   27BGLCN   C418658   5.401   1.216  19.277
   27BGLCN   H418659   5.472   1.131  19.280
   27BGLCN   O418660   5.450   1.317  19.365
   27BGLCN  HO418661   5.380   1.381  19.382
   27BGLCN   C618662   5.529   1.320  19.081
   27BGLCN  H6118663   5.584   1.375  19.161
   27BGLCN  H6218664   5.594   1.235  19.050
   27BGLCN   O618665   5.513   1.412  18.971
   27BGLCN  HO618666   5.497   1.362  18.890
   28AGAL    C118667   5.252   1.201   0.085
   28AGAL    H118668   5.356   1.234   0.104
   28AGAL    C518669   5.030   1.282   0.043
   28AGAL    H518670   5.020   1.208  19.433
   28AGAL    O518671   5.169   1.316   0.058
   28AGAL    C218672   5.203   1.136   0.214
   28AGAL    H218673   5.205   1.220   0.287
   28AGAL    O218674   5.285   1.028   0.264
   28AGAL    C318675   5.059   1.092   0.197
   28AGAL    H318676   5.054   1.023   0.110
   28AGAL    O318677   5.011   1.019   0.311
   28AGAL   HO318678   5.037   0.927   0.301
   28AGAL    C418679   4.974   1.214   0.168
   28AGAL    H418680   4.871   1.179   0.145
   28AGAL    O418681   4.964   1.304   0.278
   28AGAL   HO418682   4.907   1.263   0.344
   28AGAL    C618683   4.954   1.406  19.471
   28AGAL   H6118684   4.995   1.442  19.373
   28AGAL   H6218685   4.847   1.382  19.454
   28AGAL    O618686   4.963   1.513   0.093
   28AGAL   HO618687   4.975   1.470   0.178
   29ARHM    C118688   5.318   1.043   0.401
   29ARHM    H118689   5.240   1.105   0.451
   29ARHM    C518690   5.553   1.030   0.358
   29ARHM    H518691   5.534   1.017   0.249
   29ARHM    O518692   5.446   1.106   0.416
   29ARHM    C218693   5.320   0.909   0.471
   29ARHM    H218694   5.223   0.859   0.452
   29ARHM    O218695   5.339   0.926   0.614
   29ARHM    C318696   5.429   0.822   0.413
   29ARHM    H318697   5.408   0.804   0.306
   29ARHM    O318698   5.434   0.695   0.479
   29ARHM   HO318699   5.525   0.665   0.468
   29ARHM    C418700   5.562   0.894   0.426
   29ARHM    H418701   5.583   0.913   0.533
   29ARHM    O418702   5.669   0.815   0.374
   29ARHM   HO418703   5.651   0.794   0.282
   29ARHM    C618704   5.679   1.116   0.377
   29ARHM   H6118705   5.666   1.214   0.327
   29ARHM   H6218706   5.697   1.132   0.486
   29ARHM   H6318707   5.767   1.065   0.333
   30ARHM    C118708   5.220   0.922   0.690
   30ARHM    H118709   5.162   0.832   0.662
   30ARHM    C518710   5.202   1.161   0.709
   30ARHM    H518711   5.295   1.177   0.651
   30ARHM    O518712   5.138   1.039   0.670
   30ARHM    C218713   5.257   0.914   0.837
   30ARHM    H218714   5.327   0.828   0.851
   30ARHM    O218715   5.140   0.896   0.917
   30ARHM    C318716   5.329   1.039   0.881
   30ARHM    H318717   5.418   1.051   0.816
   30ARHM    O318718   5.380   1.026   1.015
   30ARHM    C418719   5.239   1.159   0.857
   30ARHM    H418720   5.145   1.151   0.916
   30ARHM    O418721   5.306   1.279   0.893
   30ARHM   HO418722   5.308   1.284   0.989
   30ARHM    C618723   5.104   1.274   0.673
   30ARHM   H6118724   5.147   1.373   0.698
   30ARHM   H6218725   5.082   1.272   0.564
   30ARHM   H6318726   5.009   1.262   0.729
   31BMANN   C118727   5.104   0.763   0.943
   31BMANN   H118728   5.193   0.700   0.960
   31BMANN   C518729   4.981   0.575   0.862
   31BMANN   H518730   5.073   0.516   0.880
   31BMANN   O518731   5.022   0.711   0.837
   31BMANN   C218732   5.017   0.768   1.067
   31BMANN   H218733   5.080   0.805   1.151
   31BMANN    N18734   4.910   0.866   1.049
   31BMANN   HN18735   4.910   0.908   0.959
   31BMANN    C18736   4.822   0.909   1.140
   31BMANN    O18737   4.814   0.862   1.253
   31BMANN   CT18738   4.730   1.019   1.096
   31BMANN  HT118739   4.664   0.984   1.013
   31BMANN  HT218740   4.789   1.107   1.062
   31BMANN  HT318741   4.666   1.051   1.181
   31BMANN   C318742   4.976   0.626   1.101
   31BMANN   H318743   5.068   0.564   1.110
   31BMANN   O318744   4.912   0.615   1.228
   31BMANN  HO318745   4.874   0.701   1.250
   31BMANN   C418746   4.895   0.568   0.987
   31BMANN   H418747   4.803   0.629   0.972
   31BMANN   O418748   4.854   0.434   1.014
   31BMANN  HO418749   4.828   0.432   1.107
   31BMANN   C618750   4.914   0.518   0.738
   31BMANN  H6118751   4.879   0.415   0.758
   31BMANN  H6218752   4.826   0.580   0.712
   31BMANN   O618753   5.002   0.514   0.625
   31BMANN  HO618754   5.081   0.462   0.643
   32BGLCN   C118755   5.293   1.055   1.122
   32BGLCN   H118756   5.191   1.017   1.100
   32BGLCN   C518757   5.190   1.225   1.253
   32BGLCN   H518758   5.090   1.188   1.222
   32BGLCN   O518759   5.285   1.195   1.149
   32BGLCN   C218760   5.345   0.985   1.246
   32BGLCN   H218761   5.437   1.039   1.276
   32BGLCN    N18762   5.381   0.846   1.217
   32BGLCN   HN18763   5.326   0.797   1.150
   32BGLCN    C18764   5.493   0.787   1.262
   32BGLCN    O18765   5.569   0.839   1.344
   32BGLCN   CT18766   5.521   0.650   1.208
   32BGLCN  HT118767   5.491   0.645   1.101
   32BGLCN  HT218768   5.466   0.573   1.266
   32BGLCN  HT318769   5.630   0.630   1.214
   32BGLCN   C318770   5.242   1.005   1.355
   32BGLCN   H318771   5.144   0.969   1.315
   32BGLCN   O318772   5.270   0.932   1.476
   32BGLCN   C418773   5.231   1.154   1.381
   32BGLCN   H418774   5.330   1.193   1.413
   32BGLCN   O418775   5.137   1.182   1.484
   32BGLCN  HO418776   5.182   1.172   1.569
   32BGLCN   C618777   5.180   1.376   1.265
   32BGLCN  H6118778   5.104   1.404   1.341
   32BGLCN  H6218779   5.278   1.416   1.299
   32BGLCN   O618780   5.147   1.438   1.140
   32BGLCN  HO618781   5.059   1.415   1.111
   33AGAL    C118782   5.155   0.871   1.531
   33AGAL    H118783   5.066   0.936   1.518
   33AGAL    C518784   5.235   0.649   1.492
   33AGAL    H518785   5.330   0.690   1.451
   33AGAL    O518786   5.130   0.744   1.469
   33AGAL    C218787   5.173   0.848   1.680
   33AGAL    H218788   5.081   0.797   1.715
   33AGAL    O218789   5.182   0.974   1.750
   33AGAL    C318790   5.291   0.756   1.705
   33AGAL    H318791   5.381   0.800   1.657
   33AGAL    O318792   5.323   0.741   1.844
   33AGAL   HO318793   5.269   0.668   1.875
   33AGAL    C418794   5.260   0.623   1.641
   33AGAL    H418795   5.349   0.556   1.651
   33AGAL    O418796   5.149   0.558   1.700
   33AGAL   HO418797   5.104   0.511   1.629
   33AGAL    C618798   5.204   0.522   1.414
   33AGAL   H6118799   5.210   0.543   1.305
   33AGAL   H6218800   5.279   0.444   1.437
   33AGAL    O618801   5.074   0.470   1.443
   33AGAL   HO618802   5.009   0.515   1.388
   34ARHM    C118803   5.111   0.975   1.872
   34ARHM    H118804   5.135   0.884   1.930
   34ARHM    C518805   4.926   1.095   1.779
   34ARHM    H518806   4.970   1.094   1.677
   34ARHM    O518807   4.968   0.979   1.852
   34ARHM    C218808   5.155   1.097   1.948
   34ARHM    H218809   5.266   1.094   1.957
   34ARHM    O218810   5.099   1.105   2.080
   34ARHM    C318811   5.119   1.222   1.869
   34ARHM    H318812   5.166   1.216   1.769
   34ARHM    O318813   5.168   1.340   1.932
   34ARHM   HO318814   5.244   1.372   1.882
   34ARHM    C418815   4.968   1.223   1.850
   34ARHM    H418816   4.918   1.226   1.950
   34ARHM    O418817   4.925   1.337   1.775
   34ARHM   HO418818   4.918   1.413   1.834
   34ARHM    C618819   4.773   1.080   1.765
   34ARHM   H6118820   4.725   1.081   1.866
   34ARHM   H6218821   4.731   1.165   1.706
   34ARHM   H6318822   4.748   0.985   1.715
   35ARHM    C118823   5.135   1.004   2.170
   35ARHM    H118824   5.240   0.973   2.153
   35ARHM    C518825   4.911   0.920   2.184
   35ARHM    H518826   4.877   0.992   2.106
   35ARHM    O518827   5.049   0.889   2.162
   35ARHM    C218828   5.121   1.063   2.309
   35ARHM    H218829   5.185   1.154   2.315
   35ARHM    O218830   5.158   0.972   2.414
   35ARHM    C318831   4.977   1.105   2.332
   35ARHM    H318832   4.947   1.176   2.252
   35ARHM    O318833   4.960   1.176   2.455
   35ARHM   HO318834   5.021   1.143   2.522
   35ARHM    C418835   4.889   0.982   2.322
   35ARHM    H418836   4.920   0.908   2.398
   35ARHM    O418837   4.752   1.014   2.343
   35ARHM   HO418838   4.750   1.082   2.411
   35ARHM    C618839   4.834   0.789   2.164
   35ARHM   H6118840   4.850   0.750   2.061
   35ARHM   H6218841   4.870   0.713   2.237
   35ARHM   H6318842   4.725   0.805   2.180
   36BMANN   C118843   5.293   0.934   2.416
   36BMANN   H118844   5.356   1.019   2.380
   36BMANN   C518845   5.458   0.780   2.338
   36BMANN   H518846   5.513   0.867   2.295
   36BMANN   O518847   5.319   0.816   2.337
   36BMANN   C218848   5.329   0.903   2.560
   36BMANN   H218849   5.309   0.994   2.620
   36BMANN    N18850   5.244   0.797   2.614
   36BMANN   HN18851   5.191   0.746   2.547
   36BMANN    C18852   5.228   0.766   2.743
   36BMANN    O18853   5.287   0.825   2.834
   36BMANN   CT18854   5.132   0.654   2.773
   36BMANN  HT118855   5.142   0.574   2.697
   36BMANN  HT218856   5.028   0.693   2.772
   36BMANN  HT318857   5.154   0.612   2.874
   36BMANN   C318858   5.478   0.874   2.564
   36BMANN   H318859   5.531   0.961   2.521
   36BMANN   O318860   5.525   0.861   2.698
   36BMANN  HO318861   5.451   0.839   2.754
   36BMANN   C418862   5.508   0.753   2.479
   36BMANN   H418863   5.458   0.663   2.521
   36BMANN   O418864   5.649   0.730   2.475
   36BMANN  HO418865   5.676   0.705   2.563
   36BMANN   C618866   5.480   0.663   2.242
   36BMANN  H6118867   5.420   0.678   2.150
   36BMANN  H6218868   5.587   0.662   2.211
   36BMANN   O618869   5.450   0.535   2.299
   36BMANN  HO618870   5.530   0.483   2.295
    1ECLIP HB6S18871   3.416   7.326  11.801
    1ECLIP  OB618872   3.580   7.352  11.927
    1ECLIP  CB618873   3.485   7.407  11.832
    1ECLIP HB6R18874   3.423   7.486  11.880
    1ECLIP  CB518875   3.549   7.466  11.707
    1ECLIP  OB518876   3.628   7.361  11.651
    1ECLIP  HB518877   3.615   7.550  11.736
    1ECLIP  CB118878   3.700   7.403  11.535
    1ECLIP  HB118879   3.764   7.490  11.562
    1ECLIP  OA618880   3.783   7.301  11.486
    1ECLIP  CA618881   3.734   7.168  11.510
    1ECLIP HA6R18882   3.623   7.164  11.501
    1ECLIP HA6S18883   3.760   7.139  11.614
    1ECLIP  CB418884   3.446   7.513  11.602
    1ECLIP  HB418885   3.379   7.427  11.579
    1ECLIP  OB418886   3.375   7.621  11.661
    1ECLIP   PB18887   3.216   7.650  11.651
    1ECLIP OPB418888   3.196   7.791  11.702
    1ECLIP OPB318889   3.137   7.543  11.725
    1ECLIP OPB218890   3.171   7.631  11.509
    1ECLIP  CB318891   3.517   7.558  11.474
    1ECLIP  OB318892   3.425   7.579  11.368
    1ECLIP  HB318893   3.580   7.647  11.493
    1ECLIP  C7118894   3.378   7.696  11.332
    1ECLIP  O7118895   3.415   7.807  11.370
    1ECLIP  C7218896   3.315   7.682  11.195
    1ECLIP H72R18897   3.391   7.643  11.124
    1ECLIP H72S18898   3.283   7.784  11.162
    1ECLIP  CB218899   3.604   7.443  11.426
    1ECLIP  HB218900   3.536   7.356  11.411
    1ECLIP  NB218901   3.674   7.471  11.300
    1ECLIP HNB218902   3.747   7.539  11.302
    1ECLIP  CA418903   3.916   7.130  11.339
    1ECLIP  HA418904   3.881   7.219  11.283
    1ECLIP  OA418905   4.014   7.173  11.434
    1ECLIP HOA418906   3.969   7.235  11.490
    1ECLIP  CA518907   3.797   7.070  11.411
    1ECLIP  HA518908   3.829   6.978  11.466
    1ECLIP  OA518909   3.695   7.034  11.317
    1ECLIP  CA118910   3.739   6.943  11.214
    1ECLIP  HA118911   3.655   6.933  11.143
    1ECLIP  OA118912   3.775   6.815  11.264
    1ECLIP OPA218913   3.631   6.753  11.467
    1ECLIP OPA318914   3.533   6.724  11.254
    1ECLIP OPA418915   3.721   6.571  11.317
    1ECLIP   PA18916   3.665   6.712  11.325
    1ECLIP  CA318917   3.970   7.033  11.235
    1ECLIP  HA318918   3.992   6.937  11.287
    1ECLIP  OA318919   4.098   7.082  11.194
    1ECLIP  C3118920   4.121   7.147  11.080
    1ECLIP  O3118921   4.132   7.090  10.973
    1ECLIP  C3218922   4.229   7.249  11.121
    1ECLIP H32R18923   4.305   7.250  11.040
    1ECLIP H32S18924   4.279   7.214  11.214
    1ECLIP  CA218925   3.856   7.004  11.136
    1ECLIP  HA218926   3.822   7.103  11.097
    1ECLIP  NA218927   3.892   6.924  11.021
    1ECLIP HNA218928   3.978   6.874  11.025
    1ECLIP  C7318929   3.192   7.592  11.198
    1ECLIP H73R18930   3.133   7.612  11.290
    1ECLIP  O7318931   3.237   7.457  11.187
    1ECLIP  C8118932   3.185   7.366  11.265
    1ECLIP  O8118933   3.110   7.386  11.361
    1ECLIP  C8218934   3.227   7.226  11.215
    1ECLIP H82R18935   3.156   7.152  11.257
    1ECLIP H82S18936   3.329   7.206  11.256
    1ECLIP  C8318937   3.232   7.214  11.061
    1ECLIP H83R18938   3.309   7.284  11.022
    1ECLIP H83S18939   3.135   7.243  11.016
    1ECLIP  C8418940   3.269   7.073  11.010
    1ECLIP H84R18941   3.183   7.004  11.025
    1ECLIP H84S18942   3.355   7.034  11.068
    1ECLIP  C8518943   3.308   7.075  10.862
    1ECLIP H85R18944   3.401   7.135  10.854
    1ECLIP H85S18945   3.229   7.126  10.803
    1ECLIP  C8618946   3.337   6.937  10.799
    1ECLIP H86R18947   3.241   6.882  10.789
    1ECLIP H86S18948   3.403   6.880  10.867
    1ECLIP  C8718949   3.406   6.946  10.661
    1ECLIP H87R18950   3.414   6.843  10.618
    1ECLIP H87S18951   3.509   6.985  10.676
    1ECLIP  C8818952   3.333   7.037  10.560
    1ECLIP H88R18953   3.334   7.140  10.602
    1ECLIP H88S18954   3.227   7.005  10.551
    1ECLIP  C8918955   3.397   7.044  10.421
    1ECLIP H89R18956   3.508   7.041  10.430
    1ECLIP H89S18957   3.370   7.143  10.378
    1ECLIP C81018958   3.349   6.936  10.323
    1ECLIPH810R18959   3.238   6.929  10.327
    1ECLIPH810S18960   3.389   6.838  10.357
    1ECLIP C81118961   3.394   6.961  10.178
    1ECLIPH811R18962   3.370   6.871  10.117
    1ECLIPH811S18963   3.504   6.975  10.179
    1ECLIP C81218964   3.331   7.084  10.109
    1ECLIPH812R18965   3.378   7.097  10.009
    1ECLIPH812S18966   3.355   7.175  10.168
    1ECLIP C81318967   3.179   7.078  10.091
    1ECLIPH813R18968   3.154   6.992  10.026
    1ECLIPH813S18969   3.131   7.061  10.190
    1ECLIP C81418970   3.121   7.207  10.031
    1ECLIPH814R18971   3.166   7.228   9.932
    1ECLIPH814S18972   3.142   7.293  10.098
    1ECLIPH814T18973   3.011   7.198  10.020
    1ECLIP  C7418974   3.095   7.619  11.081
    1ECLIP H74R18975   3.059   7.724  11.088
    1ECLIP H74S18976   3.007   7.553  11.094
    1ECLIP  C7518977   3.152   7.594  10.940
    1ECLIP H75R18978   3.066   7.574  10.873
    1ECLIP H75S18979   3.216   7.504  10.940
    1ECLIP  C7618980   3.228   7.713  10.880
    1ECLIP H76R18981   3.323   7.734  10.935
    1ECLIP H76S18982   3.165   7.804  10.886
    1ECLIP  C7718983   3.263   7.687  10.734
    1ECLIP H77R18984   3.169   7.657  10.682
    1ECLIP H77S18985   3.333   7.601  10.728
    1ECLIP  C7818986   3.323   7.809  10.662
    1ECLIP H78R18987   3.246   7.889  10.661
    1ECLIP H78S18988   3.410   7.847  10.719
    1ECLIP  C7918989   3.366   7.778  10.518
    1ECLIP H79R18990   3.460   7.718  10.520
    1ECLIP H79S18991   3.390   7.874  10.467
    1ECLIP C71018992   3.263   7.700  10.437
    1ECLIPH710R18993   3.245   7.601  10.483
    1ECLIPH710S18994   3.167   7.756  10.437
    1ECLIP C71118995   3.310   7.678  10.293
    1ECLIPH711R18996   3.330   7.778  10.250
    1ECLIPH711S18997   3.405   7.621  10.294
    1ECLIP C71218998   3.207   7.602  10.209
    1ECLIPH712R18999   3.111   7.658  10.209
    1ECLIPH712S19000   3.189   7.502  10.255
    1ECLIP C71319001   3.253   7.583  10.064
    1ECLIPH713R19002   3.348   7.524  10.064
    1ECLIPH713S19003   3.177   7.524  10.009
    1ECLIP C71419004   3.277   7.715   9.991
    1ECLIPH714R19005   3.182   7.773   9.983
    1ECLIPH714S19006   3.352   7.778  10.044
    1ECLIPH714T19007   3.316   7.696   9.889
    1ECLIP  C5119008   3.648   7.408  11.184
    1ECLIP  O5119009   3.561   7.322  11.176
    1ECLIP  C5219010   3.733   7.447  11.065
    1ECLIP H52R19011   3.730   7.557  11.052
    1ECLIP H52S19012   3.838   7.417  11.087
    1ECLIP  C5319013   3.687   7.378  10.934
    1ECLIP H53R19014   3.681   7.268  10.949
    1ECLIP  O5319015   3.777   7.414  10.830
    1ECLIP  C6119016   3.869   7.324  10.794
    1ECLIP  O6119017   3.903   7.229  10.861
    1ECLIP  C6219018   3.956   7.391  10.686
    1ECLIP H62R19019   4.021   7.466  10.735
    1ECLIP H62S19020   3.886   7.443  10.616
    1ECLIP  C6319021   4.049   7.299  10.605
    1ECLIP H63R19022   3.986   7.227  10.548
    1ECLIP H63S19023   4.114   7.240  10.674
    1ECLIP  C6419024   4.137   7.375  10.504
    1ECLIP H64R19025   4.195   7.301  10.444
    1ECLIP H64S19026   4.211   7.437  10.559
    1ECLIP  C6519027   4.057   7.465  10.409
    1ECLIP H65R19028   4.012   7.547  10.470
    1ECLIP H65S19029   3.973   7.407  10.365
    1ECLIP  C6619030   4.139   7.532  10.298
    1ECLIP H66R19031   4.222   7.589  10.345
    1ECLIP H66S19032   4.073   7.605  10.246
    1ECLIP  C6719033   4.198   7.438  10.191
    1ECLIP H67R19034   4.283   7.381  10.236
    1ECLIP H67S19035   4.239   7.499  10.109
    1ECLIP  C6819036   4.096   7.339  10.135
    1ECLIP H68R19037   4.003   7.392  10.106
    1ECLIP H68S19038   4.069   7.268  10.216
    1ECLIP  C6919039   4.147   7.257  10.015
    1ECLIP H69R19040   4.257   7.247  10.020
    1ECLIP H69S19041   4.121   7.310   9.921
    1ECLIP C61019042   4.086   7.116  10.018
    1ECLIPH610R19043   3.977   7.126  10.039
    1ECLIPH610S19044   4.132   7.060  10.102
    1ECLIP C61119045   4.100   7.035   9.889
    1ECLIPH611R19046   4.204   7.043   9.851
    1ECLIPH611S19047   4.083   6.928   9.913
    1ECLIP C61219048   3.998   7.078   9.783
    1ECLIPH612R19049   3.895   7.066   9.822
    1ECLIPH612S19050   4.012   7.185   9.758
    1ECLIPH612T19051   4.008   7.017   9.691
    1ECLIP  C5419052   3.549   7.429  10.887
    1ECLIP H54R19053   3.552   7.540  10.874
    1ECLIP H54S19054   3.473   7.406  10.965
    1ECLIP  C5519055   3.503   7.364  10.755
    1ECLIP H55R19056   3.392   7.362  10.751
    1ECLIP H55S19057   3.539   7.259  10.755
    1ECLIP  C5619058   3.555   7.433  10.629
    1ECLIP H56R19059   3.662   7.458  10.639
    1ECLIP H56S19060   3.501   7.530  10.615
    1ECLIP  C5719061   3.538   7.346  10.506
    1ECLIP H57R19062   3.429   7.338  10.482
    1ECLIP H57S19063   3.576   7.244  10.527
    1ECLIP  C5819064   3.613   7.402  10.386
    1ECLIP H58R19065   3.587   7.509  10.375
    1ECLIP H58S19066   3.723   7.396  10.404
    1ECLIP  C5919067   3.577   7.329  10.257
    1ECLIP H59R19068   3.467   7.336  10.243
    1ECLIP H59S19069   3.604   7.221  10.266
    1ECLIP C51019070   3.647   7.391  10.137
    1ECLIPH510R19071   3.757   7.389  10.154
    1ECLIPH510S19072   3.615   7.497  10.129
    1ECLIP C51119073   3.614   7.319  10.005
    1ECLIPH511R19074   3.663   7.220  10.005
    1ECLIPH511S19075   3.504   7.303   9.999
    1ECLIP C51219076   3.658   7.401   9.883
    1ECLIPH512R19077   3.638   7.341   9.792
    1ECLIPH512S19078   3.597   7.493   9.878
    1ECLIP C51319079   3.806   7.441   9.887
    1ECLIPH513R19080   3.868   7.349   9.892
    1ECLIPH513S19081   3.827   7.500   9.979
    1ECLIP C51419082   3.845   7.525   9.767
    1ECLIPH514R19083   3.787   7.620   9.765
    1ECLIPH514S19084   3.953   7.550   9.769
    1ECLIPH514T19085   3.823   7.470   9.674
    1ECLIP  C3319086   4.177   7.392  11.144
    1ECLIP H33R19087   4.260   7.455  11.184
    1ECLIP  O3319088   4.073   7.389  11.240
    1ECLIP HO3319089   4.086   7.328  11.313
    1ECLIP  C3419090   4.124   7.457  11.015
    1ECLIP H34R19091   4.036   7.398  10.983
    1ECLIP H34S19092   4.202   7.449  10.936
    1ECLIP  C3519093   4.081   7.605  11.029
    1ECLIP H35R19094   4.171   7.669  11.039
    1ECLIP H35S19095   4.017   7.614  11.119
    1ECLIP  C3619096   4.000   7.654  10.909
    1ECLIP H36R19097   3.928   7.573  10.887
    1ECLIP H36S19098   4.066   7.669  10.821
    1ECLIP  C3719099   3.911   7.777  10.931
    1ECLIP H37R19100   3.972   7.870  10.923
    1ECLIP H37S19101   3.867   7.775  11.033
    1ECLIP  C3819102   3.797   7.780  10.828
    1ECLIP H38R19103   3.722   7.702  10.854
    1ECLIP H38S19104   3.745   7.878  10.833
    1ECLIP  C3919105   3.845   7.754  10.685
    1ECLIP H39R19106   3.884   7.650  10.678
    1ECLIP H39S19107   3.930   7.822  10.662
    1ECLIP C31019108   3.737   7.769  10.578
    1ECLIPH310R19109   3.700   7.874  10.577
    1ECLIPH310S19110   3.651   7.704  10.604
    1ECLIP C31119111   3.792   7.730  10.440
    1ECLIPH311R19112   3.892   7.775  10.428
    1ECLIPH311S19113   3.804   7.620  10.436
    1ECLIP C31219114   3.705   7.775  10.321
    1ECLIPH312R19115   3.606   7.724  10.327
    1ECLIPH312S19116   3.687   7.884  10.327
    1ECLIP C31319117   3.773   7.742  10.188
    1ECLIPH313R19118   3.869   7.798  10.182
    1ECLIPH313S19119   3.798   7.634  10.186
    1ECLIP C31419120   3.687   7.776  10.066
    1ECLIPH314R19121   3.664   7.884  10.064
    1ECLIPH314S19122   3.739   7.749   9.972
    1ECLIPH314T19123   3.591   7.720  10.070
    1ECLIP  C1119124   3.813   6.914  10.912
    1ECLIP  O1119125   3.714   6.983  10.896
    1ECLIP  C1219126   3.848   6.806  10.813
    1ECLIP H12R19127   3.777   6.722  10.829
    1ECLIP H12S19128   3.952   6.769  10.831
    1ECLIP  C1319129   3.834   6.856  10.669
    1ECLIP H13R19130   3.735   6.904  10.654
    1ECLIP  O1319131   3.841   6.742  10.585
    1ECLIP HO1319132   3.821   6.762  10.493
    1ECLIP  C1419133   3.946   6.954  10.626
    1ECLIP H14R19134   4.042   6.914  10.665
    1ECLIP H14S19135   3.928   7.051  10.677
    1ECLIP  C1519136   3.961   6.974  10.474
    1ECLIP H15R19137   3.986   6.876  10.428
    1ECLIP H15S19138   4.049   7.039  10.455
    1ECLIP  C1619139   3.838   7.033  10.403
    1ECLIP H16R19140   3.837   7.143  10.419
    1ECLIP H16S19141   3.744   6.994  10.446
    1ECLIP  C1719142   3.840   7.004  10.252
    1ECLIP H17R19143   3.945   7.014  10.217
    1ECLIP H17S19144   3.778   7.080  10.200
    1ECLIP  C1819145   3.788   6.864  10.218
    1ECLIP H18R19146   3.845   6.790  10.278
    1ECLIP H18S19147   3.681   6.856  10.248
    1ECLIP  C1919148   3.803   6.825  10.070
    1ECLIP H19R19149   3.774   6.719  10.059
    1ECLIP H19S19150   3.910   6.834  10.041
    1ECLIP C11019151   3.717   6.908   9.974
    1ECLIPH110R19152   3.611   6.906  10.007
    1ECLIPH110S19153   3.751   7.014   9.976
    1ECLIP C11119154   3.723   6.855   9.830
    1ECLIPH111R19155   3.830   6.844   9.800
    1ECLIPH111S19156   3.678   6.753   9.828
    1ECLIP C11219157   3.651   6.944   9.727
    1ECLIPH112R19158   3.545   6.957   9.758
    1ECLIPH112S19159   3.698   7.045   9.726
    1ECLIP C11319160   3.657   6.884   9.587
    1ECLIPH113R19161   3.764   6.863   9.562
    1ECLIPH113S19162   3.604   6.786   9.590
    1ECLIP C11419163   3.595   6.969   9.477
    1ECLIPH114R19164   3.492   6.999   9.504
    1ECLIPH114S19165   3.656   7.061   9.461
    1ECLIPH114T19166   3.592   6.913   9.381
    2AKDO    C119167   3.649   7.567  12.006
    2AKDO   O1119168   3.571   7.667  12.015
    2AKDO   O1219169   3.771   7.570  11.976
    2AKDO    C219170   3.592   7.427  12.047
    2AKDO    C619171   3.405   7.318  12.151
    2AKDO    H619172   3.407   7.251  12.062
    2AKDO    O619173   3.465   7.443  12.112
    2AKDO    C319174   3.682   7.349  12.146
    2AKDO   H3119175   3.696   7.412  12.236
    2AKDO   H3219176   3.781   7.333  12.098
    2AKDO    C419177   3.626   7.217  12.191
    2AKDO    H419178   3.613   7.150  12.104
    2AKDO    O419179   3.714   7.154  12.287
    2AKDO    C519180   3.489   7.242  12.257
    2AKDO    H519181   3.444   7.142  12.270
    2AKDO    O519182   3.499   7.303  12.390
    2AKDO    C719183   3.258   7.351  12.172
    2AKDO    H719184   3.248   7.427  12.253
    2AKDO    O719185   3.182   7.234  12.204
    2AKDO   HO719186   3.111   7.236  12.139
    2AKDO    C819187   3.203   7.412  12.043
    2AKDO   H8119188   3.258   7.505  12.021
    2AKDO   H8219189   3.220   7.342  11.958
    2AKDO    O819190   3.064   7.445  12.049
    2AKDO   HO819191   3.050   7.502  11.973
    3AKDO    C119192   3.819   6.968  12.145
    3AKDO   O1119193   3.919   6.953  12.069
    3AKDO   O1219194   3.732   6.880  12.169
    3AKDO    C219195   3.833   7.082  12.254
    3AKDO    C619196   3.979   7.267  12.320
    3AKDO    H619197   3.893   7.337  12.330
    3AKDO    O619198   3.948   7.165  12.222
    3AKDO    C319199   3.861   7.019  12.392
    3AKDO   H3119200   3.947   6.950  12.383
    3AKDO   H3219201   3.773   6.957  12.420
    3AKDO    C419202   3.886   7.122  12.498
    3AKDO    H419203   3.799   7.191  12.507
    3AKDO    O419204   3.903   7.058  12.624
    3AKDO   HO419205   3.817   7.032  12.657
    3AKDO    C519206   4.007   7.205  12.457
    3AKDO    H519207   4.020   7.287  12.531
    3AKDO    O519208   4.129   7.130  12.458
    3AKDO   HO519209   4.111   7.048  12.411
    3AKDO    C719210   4.099   7.344  12.265
    3AKDO    H719211   4.179   7.270  12.241
    3AKDO    O719212   4.152   7.437  12.361
    3AKDO   HO719213   4.106   7.520  12.348
    3AKDO    C819214   4.061   7.416  12.137
    3AKDO   H8119215   4.006   7.346  12.071
    3AKDO   H8219216   3.992   7.501  12.160
    3AKDO    O819217   4.174   7.467  12.066
    3AKDO   HO819218   4.137   7.496  11.982
    4AHEP    C119219   3.389   7.280  12.476
    4AHEP    H119220   3.300   7.321  12.424
    4AHEP    C519221   3.447   7.076  12.588
    4AHEP    H519222   3.550   7.097  12.551
    4AHEP    O519223   3.356   7.141  12.496
    4AHEP    C219224   3.388   7.353  12.613
    4AHEP    H219225   3.433   7.452  12.592
    4AHEP    O219226   3.256   7.381  12.662
    4AHEP   HO219227   3.233   7.469  12.632
    4AHEP    C319228   3.479   7.286  12.716
    4AHEP    H319229   3.582   7.291  12.676
    4AHEP    O319230   3.469   7.347  12.849
    4AHEP    C419231   3.435   7.141  12.727
    4AHEP    H419232   3.327   7.140  12.753
    4AHEP    O419233   3.515   7.073  12.826
    4AHEP    P419234   3.440   6.986  12.946
    4AHEP  OP4219235   3.535   6.975  13.064
    4AHEP  OP4319236   3.412   6.848  12.889
    4AHEP  OP4419237   3.312   7.060  12.984
    4AHEP    C619238   3.434   6.923  12.583
    4AHEP    H619239   3.519   6.880  12.640
    4AHEP    O619240   3.313   6.880  12.648
    4AHEP   HO619241   3.340   6.871  12.739
    4AHEP    C719242   3.439   6.867  12.442
    4AHEP   H7119243   3.444   6.756  12.446
    4AHEP   H7219244   3.531   6.903  12.391
    4AHEP    O719245   3.327   6.906  12.362
    4AHEP   HO719246   3.302   6.991  12.397
    5AHEP    C119247   3.594   7.366  12.915
    5AHEP    H119248   3.673   7.311  12.859
    5AHEP    C519249   3.544   7.587  13.000
    5AHEP    H519250   3.440   7.573  12.966
    5AHEP    O519251   3.630   7.504  12.919
    5AHEP    C219252   3.604   7.315  13.058
    5AHEP    H219253   3.560   7.213  13.059
    5AHEP    O219254   3.740   7.298  13.102
    5AHEP   HO219255   3.753   7.203  13.101
    5AHEP    C319256   3.518   7.395  13.153
    5AHEP    H319257   3.411   7.382  13.126
    5AHEP    O319258   3.542   7.357  13.290
    5AHEP    C419259   3.555   7.540  13.145
    5AHEP    H419260   3.660   7.553  13.179
    5AHEP    O419261   3.461   7.614  13.222
    5AHEP    P419262   3.503   7.692  13.359
    5AHEP  OP4219263   3.377   7.752  13.418
    5AHEP  OP4319264   3.605   7.795  13.316
    5AHEP  OP4419265   3.568   7.593  13.454
    5AHEP    C619266   3.584   7.732  12.973
    5AHEP    H619267   3.517   7.798  13.032
    5AHEP    O619268   3.721   7.755  13.010
    5AHEP   HO619269   3.762   7.731  12.926
    5AHEP    C719270   3.568   7.764  12.823
    5AHEP   H7119271   3.538   7.871  12.816
    5AHEP   H7219272   3.483   7.708  12.779
    5AHEP    O719273   3.689   7.751  12.745
    6AHEP    C119274   3.694   7.630  12.670
    6AHEP    H119275   3.608   7.564  12.695
    6AHEP    C519276   3.800   7.718  12.474
    6AHEP    H519277   3.799   7.816  12.527
    6AHEP    O519278   3.687   7.647  12.528
    6AHEP    C219279   3.822   7.559  12.712
    6AHEP    H219280   3.829   7.564  12.823
    6AHEP    O219281   3.826   7.420  12.678
    6AHEP   HO219282   3.917   7.397  12.660
    6AHEP    C319283   3.941   7.633  12.660
    6AHEP    H319284   3.941   7.737  12.700
    6AHEP    O319285   4.063   7.572  12.704
    6AHEP   HO319286   4.129   7.592  12.637
    6AHEP    C419287   3.927   7.640  12.510
    6AHEP    H419288   3.914   7.537  12.470
    6AHEP    O419289   4.047   7.691  12.451
    6AHEP   HO419290   4.051   7.785  12.469
    6AHEP    C619291   3.793   7.752  12.324
    6AHEP    H619292   3.879   7.817  12.298
    6AHEP    O619293   3.809   7.631  12.250
    6AHEP   HO619294   3.775   7.645  12.161
    6AHEP    C719295   3.669   7.827  12.278
    6AHEP   H7119296   3.681   7.856  12.171
    6AHEP   H7219297   3.661   7.922  12.336
    6AHEP    O719298   3.545   7.756  12.291
    6AHEP   HO719299   3.546   7.691  12.220
    7AGLC    C119300   3.461   7.256  13.342
    7AGLC    H119301   3.362   7.257  13.292
    7AGLC    C519302   3.651   7.118  13.389
    7AGLC    H519303   3.715   7.197  13.344
    7AGLC    O519304   3.521   7.126  13.329
    7AGLC    C219305   3.444   7.281  13.492
    7AGLC    H219306   3.379   7.200  13.532
    7AGLC    O219307   3.376   7.405  13.515
    7AGLC   HO219308   3.435   7.475  13.487
    7AGLC    C319309   3.575   7.278  13.566
    7AGLC    H319310   3.641   7.357  13.525
    7AGLC    O319311   3.557   7.296  13.709
    7AGLC    C419312   3.636   7.143  13.537
    7AGLC    H419313   3.567   7.066  13.577
    7AGLC    O419314   3.764   7.125  13.597
    7AGLC   HO419315   3.795   7.039  13.569
    7AGLC    C619316   3.715   6.984  13.357
    7AGLC   H6119317   3.683   6.949  13.256
    7AGLC   H6219318   3.825   6.996  13.353
    7AGLC    O619319   3.685   6.883  13.455
    7AGLC   HO619320   3.636   6.814  13.410
    8AGLC    C119321   3.618   7.412  13.763
    8AGLC    H119322   3.716   7.431  13.715
    8AGLC    C519323   3.406   7.522  13.800
    8AGLC    H519324   3.355   7.432  13.761
    8AGLC    O519325   3.538   7.529  13.743
    8AGLC    C219326   3.634   7.400  13.914
    8AGLC    H219327   3.686   7.491  13.949
    8AGLC    O219328   3.712   7.287  13.956
    8AGLC    C319329   3.500   7.389  13.983
    8AGLC    H319330   3.448   7.301  13.941
    8AGLC    O319331   3.519   7.365  14.124
    8AGLC    C419332   3.417   7.511  13.952
    8AGLC    H419333   3.469   7.602  13.988
    8AGLC    O419334   3.286   7.506  14.011
    8AGLC   HO419335   3.227   7.541  13.944
    8AGLC    C619336   3.331   7.643  13.750
    8AGLC   H6119337   3.372   7.674  13.651
    8AGLC   H6219338   3.225   7.618  13.732
    8AGLC    O619339   3.338   7.753  13.841
    8AGLC   HO619340   3.314   7.832  13.791
    9AGAL    C119341   3.833   7.258  13.889
    9AGAL    H119342   3.819   7.259  13.779
    9AGAL    C519343   3.964   7.360  14.060
    9AGAL    H519344   3.872   7.389  14.115
    9AGAL    O519345   3.935   7.354  13.920
    9AGAL    C219346   3.872   7.118  13.932
    9AGAL    H219347   3.967   7.092  13.880
    9AGAL    O219348   3.770   7.029  13.881
    9AGAL    C319349   3.901   7.121  14.082
    9AGAL    H319350   3.807   7.151  14.134
    9AGAL    O319351   3.937   6.994  14.135
    9AGAL   HO319352   4.006   6.958  14.079
    9AGAL    C419353   4.009   7.224  14.112
    9AGAL    H419354   4.021   7.229  14.222
    9AGAL    O419355   4.136   7.187  14.059
    9AGAL   HO419356   4.171   7.264  14.015
    9AGAL    C619357   4.065   7.473  14.082
    9AGAL   H6119358   4.019   7.569  14.052
    9AGAL   H6219359   4.090   7.480  14.190
    9AGAL    O619360   4.187   7.455  14.008
    9AGAL   HO619361   4.172   7.479  13.917
   10AGAL    C119362   3.732   6.910  13.946
   10AGAL    H119363   3.822   6.849  13.969
   10AGAL    C519364   3.536   7.011  14.037
   10AGAL    H519365   3.565   7.100  13.977
   10AGAL    O519366   3.656   6.937  14.065
   10AGAL    C219367   3.642   6.828  13.853
   10AGAL    H219368   3.612   6.738  13.912
   10AGAL    O219369   3.713   6.776  13.739
   10AGAL   HO219370   3.707   6.834  13.663
   10AGAL    C319371   3.514   6.903  13.819
   10AGAL    H319372   3.542   7.000  13.772
   10AGAL    O319373   3.430   6.832  13.728
   10AGAL   HO319374   3.452   6.850  13.636
   10AGAL    C419375   3.440   6.933  13.948
   10AGAL    H419376   3.353   6.998  13.923
   10AGAL    O419377   3.390   6.815  14.010
   10AGAL   HO419378   3.364   6.756  13.938
   10AGAL    C619379   3.482   7.070  14.166
   10AGAL   H6119380   3.561   7.138  14.205
   10AGAL   H6219381   3.391   7.131  14.144
   10AGAL    O619382   3.451   6.976  14.269
   10AGAL   HO619383   3.515   6.905  14.265
   11BGLC    C119384   3.524   7.471  14.216
   11BGLC    H119385   3.422   7.512  14.231
   11BGLC    C519386   3.620   7.684  14.268
   11BGLC    H519387   3.518   7.721  14.290
   11BGLC    O519388   3.613   7.575  14.174
   11BGLC    C219389   3.576   7.411  14.345
   11BGLC    H219390   3.676   7.366  14.326
   11BGLC    O219391   3.487   7.309  14.395
   11BGLC   HO219392   3.520   7.223  14.367
   11BGLC    C319393   3.590   7.519  14.449
   11BGLC    H319394   3.490   7.558  14.476
   11BGLC    O319395   3.658   7.466  14.564
   11BGLC    C419396   3.678   7.630  14.399
   11BGLC    H419397   3.781   7.592  14.380
   11BGLC    O419398   3.684   7.732  14.498
   11BGLC   HO419399   3.657   7.692  14.581
   11BGLC    C619400   3.700   7.796  14.205
   11BGLC   H6119401   3.752   7.855  14.283
   11BGLC   H6219402   3.778   7.755  14.138
   11BGLC    O619403   3.615   7.886  14.132
   11BGLC   HO619404   3.628   7.876  14.037
   12BGLCN   C119405   3.588   7.465  14.685
   12BGLCN   H119406   3.508   7.389  14.681
   12BGLCN   C519407   3.468   7.600  14.841
   12BGLCN   H519408   3.385   7.526  14.843
   12BGLCN   O519409   3.535   7.595  14.714
   12BGLCN   C219410   3.693   7.429  14.789
   12BGLCN   H219411   3.766   7.513  14.789
   12BGLCN    N19412   3.763   7.305  14.755
   12BGLCN   HN19413   3.709   7.223  14.739
   12BGLCN    C19414   3.896   7.297  14.737
   12BGLCN    O19415   3.970   7.394  14.749
   12BGLCN   CT19416   3.952   7.162  14.701
   12BGLCN  HT119417   3.998   7.115  14.790
   12BGLCN  HT219418   4.031   7.175  14.624
   12BGLCN  HT319419   3.872   7.096  14.660
   12BGLCN   C319420   3.629   7.427  14.927
   12BGLCN   H319421   3.550   7.349  14.928
   12BGLCN   O319422   3.728   7.398  15.028
   12BGLCN   C419423   3.568   7.564  14.951
   12BGLCN   H419424   3.650   7.639  14.950
   12BGLCN   O419425   3.503   7.570  15.078
   12BGLCN  HO419426   3.535   7.648  15.124
   12BGLCN   C619427   3.410   7.739  14.855
   12BGLCN  H6119428   3.390   7.761  14.962
   12BGLCN  H6219429   3.484   7.815  14.820
   12BGLCN   O619430   3.287   7.755  14.785
   12BGLCN  HO619431   3.225   7.798  14.844
   13AGAL    C119432   3.684   7.320  15.137
   13AGAL    H119433   3.581   7.348  15.167
   13AGAL    C519434   3.822   7.135  15.071
   13AGAL    H519435   3.857   7.197  14.985
   13AGAL    O519436   3.688   7.179  15.105
   13AGAL    C219437   3.777   7.341  15.256
   13AGAL    H219438   3.744   7.267  15.332
   13AGAL    O219439   3.762   7.471  15.314
   13AGAL    C319440   3.920   7.305  15.218
   13AGAL    H319441   3.949   7.365  15.129
   13AGAL    O319442   4.015   7.335  15.320
   13AGAL   HO319443   4.020   7.258  15.377
   13AGAL    C419444   3.923   7.158  15.184
   13AGAL    H419445   4.024   7.132  15.146
   13AGAL    O419446   3.896   7.076  15.298
   13AGAL   HO419447   3.853   6.997  15.263
   13AGAL    C619448   3.817   6.991  15.021
   13AGAL   H6119449   3.745   6.984  14.937
   13AGAL   H6219450   3.917   6.964  14.982
   13AGAL    O619451   3.780   6.897  15.122
   13AGAL   HO619452   3.794   6.808  15.089
   14ARHM    C119453   3.704   7.474  15.443
   14ARHM    H119454   3.624   7.397  15.449
   14ARHM    C519455   3.728   7.708  15.466
   14ARHM    H519456   3.776   7.714  15.365
   14ARHM    O519457   3.638   7.598  15.469
   14ARHM    C219458   3.811   7.446  15.548
   14ARHM    H219459   3.863   7.352  15.521
   14ARHM    O219460   3.761   7.429  15.682
   14ARHM    C319461   3.911   7.560  15.547
   14ARHM    H319462   3.957   7.566  15.446
   14ARHM    O319463   4.016   7.540  15.641
   14ARHM   HO319464   4.076   7.471  15.612
   14ARHM    C419465   3.836   7.690  15.572
   14ARHM    H419466   3.786   7.683  15.671
   14ARHM    O419467   3.924   7.803  15.577
   14ARHM   HO419468   4.010   7.768  15.602
   14ARHM    C619469   3.642   7.834  15.484
   14ARHM   H6119470   3.562   7.837  15.407
   14ARHM   H6219471   3.594   7.835  15.584
   14ARHM   H6319472   3.704   7.926  15.471
   15ARHM    C119473   3.666   7.329  15.704
   15ARHM    H119474   3.677   7.246  15.630
   15ARHM    C519475   3.513   7.492  15.789
   15ARHM    H519476   3.584   7.574  15.764
   15ARHM    O519477   3.533   7.383  15.697
   15ARHM    C219478   3.687   7.275  15.844
   15ARHM    H219479   3.788   7.229  15.850
   15ARHM    O219480   3.588   7.173  15.868
   15ARHM    C319481   3.678   7.389  15.942
   15ARHM    H319482   3.751   7.467  15.913
   15ARHM    O319483   3.713   7.342  16.072
   15ARHM    C419484   3.538   7.446  15.933
   15ARHM    H419485   3.465   7.365  15.954
   15ARHM    O419486   3.513   7.549  16.028
   15ARHM   HO419487   3.556   7.630  15.998
   15ARHM    C619488   3.371   7.544  15.764
   15ARHM   H6119489   3.348   7.628  15.832
   15ARHM   H6219490   3.362   7.580  15.659
   15ARHM   H6319491   3.296   7.463  15.780
   16BMANN   C119492   3.586   7.109  15.993
   16BMANN   H119493   3.549   7.178  16.072
   16BMANN   C519494   3.711   6.986  16.155
   16BMANN   H519495   3.677   7.056  16.234
   16BMANN   O519496   3.713   7.054  16.028
   16BMANN   C219497   3.487   6.995  15.977
   16BMANN   H219498   3.388   7.041  15.957
   16BMANN    N19499   3.526   6.912  15.864
   16BMANN   HN19500   3.620   6.880  15.863
   16BMANN    C19501   3.450   6.890  15.756
   16BMANN    O19502   3.335   6.932  15.745
   16BMANN   CT19503   3.518   6.815  15.645
   16BMANN  HT119504   3.444   6.753  15.590
   16BMANN  HT219505   3.597   6.749  15.685
   16BMANN  HT319506   3.564   6.887  15.574
   16BMANN   C319507   3.477   6.924  16.111
   16BMANN   H319508   3.450   7.000  16.187
   16BMANN   O319509   3.372   6.828  16.115
   16BMANN  HO319510   3.324   6.839  16.197
   16BMANN   C419511   3.613   6.869  16.149
   16BMANN   H419512   3.648   6.799  16.069
   16BMANN   O419513   3.612   6.794  16.271
   16BMANN  HO419514   3.581   6.849  16.344
   16BMANN   C619515   3.853   6.946  16.186
   16BMANN  H6119516   3.857   6.879  16.275
   16BMANN  H6219517   3.897   6.891  16.100
   16BMANN   O619518   3.933   7.062  16.215
   16BMANN  HO619519   3.933   7.118  16.137
   17BGLCN   C119520   3.783   7.434  16.151
   17BGLCN   H119521   3.754   7.538  16.125
   17BGLCN   C519522   3.995   7.511  16.224
   17BGLCN   H519523   3.968   7.615  16.193
   17BGLCN   O519524   3.925   7.418  16.140
   17BGLCN   C219525   3.742   7.403  16.292
   17BGLCN   H219526   3.786   7.303  16.316
   17BGLCN    N19527   3.597   7.394  16.305
   17BGLCN   HN19528   3.545   7.454  16.246
   17BGLCN    C19529   3.535   7.305  16.384
   17BGLCN    O19530   3.594   7.217  16.446
   17BGLCN   CT19531   3.385   7.315  16.392
   17BGLCN  HT119532   3.339   7.238  16.325
   17BGLCN  HT219533   3.351   7.416  16.362
   17BGLCN  HT319534   3.354   7.295  16.496
   17BGLCN   C319535   3.807   7.505  16.383
   17BGLCN   H319536   3.778   7.605  16.344
   17BGLCN   O319537   3.755   7.489  16.516
   17BGLCN   C419538   3.958   7.493  16.370
   17BGLCN   H419539   3.990   7.392  16.406
   17BGLCN   O419540   4.023   7.593  16.447
   17BGLCN  HO419541   4.115   7.576  16.464
   17BGLCN   C619542   4.143   7.491  16.198
   17BGLCN  H6119543   4.203   7.558  16.264
   17BGLCN  H6219544   4.172   7.386  16.220
   17BGLCN   O619545   4.177   7.522  16.063
   17BGLCN  HO619546   4.148   7.451  16.006
   18AGAL    C119547   3.758   7.606  16.595
   18AGAL    H119548   3.862   7.636  16.618
   18AGAL    C519549   3.551   7.693  16.509
   18AGAL    H519550   3.540   7.601  16.447
   18AGAL    O519551   3.692   7.717  16.531
   18AGAL    C219552   3.689   7.581  16.727
   18AGAL    H219553   3.692   7.680  16.777
   18AGAL    O219554   3.761   7.485  16.808
   18AGAL    C319555   3.543   7.547  16.708
   18AGAL    H319556   3.535   7.456  16.644
   18AGAL    O319557   3.482   7.519  16.834
   18AGAL   HO319558   3.402   7.468  16.825
   18AGAL    C419559   3.476   7.666  16.640
   18AGAL    H419560   3.372   7.638  16.615
   18AGAL    O419561   3.470   7.780  16.725
   18AGAL   HO419562   3.447   7.748  16.812
   18AGAL    C619563   3.497   7.808  16.424
   18AGAL   H6119564   3.531   7.794  16.320
   18AGAL   H6219565   3.385   7.806  16.424
   18AGAL    O619566   3.542   7.936  16.469
   18AGAL   HO619567   3.636   7.927  16.486
   19ARHM    C119568   3.779   7.539  16.936
   19ARHM    H119569   3.681   7.579  16.970
   19ARHM    C519570   4.000   7.615  16.899
   19ARHM    H519571   4.000   7.553  16.806
   19ARHM    O519572   3.866   7.653  16.931
   19ARHM    C219573   3.827   7.440  17.040
   19ARHM    H219574   3.769   7.347  17.021
   19ARHM    O219575   3.799   7.478  17.176
   19ARHM    C319576   3.970   7.400  17.016
   19ARHM    H319577   3.979   7.347  16.919
   19ARHM    O319578   4.014   7.310  17.119
   19ARHM   HO319579   4.063   7.362  17.183
   19ARHM    C419580   4.055   7.527  17.011
   19ARHM    H419581   4.039   7.582  17.107
   19ARHM    O419582   4.195   7.505  16.999
   19ARHM   HO419583   4.215   7.439  16.932
   19ARHM    C619584   4.076   7.744  16.864
   19ARHM   H6119585   4.034   7.786  16.769
   19ARHM   H6219586   4.061   7.820  16.943
   19ARHM   H6319587   4.184   7.723  16.847
   20ARHM    C119588   3.660   7.485  17.203
   20ARHM    H119589   3.602   7.435  17.122
   20ARHM    C519590   3.678   7.693  17.316
   20ARHM    H519591   3.788   7.689  17.301
   20ARHM    O519592   3.614   7.620  17.211
   20ARHM    C219593   3.631   7.413  17.333
   20ARHM    H219594   3.677   7.312  17.329
   20ARHM    O219595   3.490   7.398  17.355
   20ARHM    C319596   3.694   7.487  17.449
   20ARHM    H319597   3.804   7.487  17.434
   20ARHM    O319598   3.662   7.416  17.569
   20ARHM    C419599   3.644   7.630  17.451
   20ARHM    H419600   3.534   7.629  17.463
   20ARHM    O419601   3.700   7.704  17.560
   20ARHM   HO419602   3.673   7.796  17.551
   20ARHM    C619603   3.633   7.839  17.299
   20ARHM   H6119604   3.528   7.852  17.331
   20ARHM   H6219605   3.699   7.906  17.358
   20ARHM   H6319606   3.641   7.869  17.192
   21BMANN   C119607   3.425   7.308  17.269
   21BMANN   H119608   3.497   7.254  17.204
   21BMANN   C519609   3.253   7.288  17.103
   21BMANN   H519610   3.324   7.234  17.037
   21BMANN   O519611   3.327   7.376  17.190
   21BMANN   C219612   3.354   7.210  17.361
   21BMANN   H219613   3.434   7.154  17.414
   21BMANN    N19614   3.274   7.279  17.460
   21BMANN   HN19615   3.253   7.375  17.440
   21BMANN    C19616   3.236   7.227  17.577
   21BMANN    O19617   3.263   7.111  17.608
   21BMANN   CT19618   3.158   7.316  17.669
   21BMANN  HT119619   3.050   7.294  17.658
   21BMANN  HT219620   3.177   7.423  17.645
   21BMANN  HT319621   3.189   7.297  17.774
   21BMANN   C319622   3.277   7.112  17.274
   21BMANN   H319623   3.350   7.062  17.206
   21BMANN   O319624   3.218   7.008  17.351
   21BMANN  HO319625   3.219   7.034  17.444
   21BMANN   C419626   3.177   7.187  17.188
   21BMANN   H419627   3.107   7.242  17.255
   21BMANN   O419628   3.099   7.101  17.106
   21BMANN  HO419629   3.122   7.010  17.130
   21BMANN   C619630   3.161   7.370  17.015
   21BMANN  H6119631   3.119   7.305  16.935
   21BMANN  H6219632   3.076   7.410  17.075
   21BMANN   O619633   3.228   7.479  16.953
   21BMANN  HO619634   3.280   7.525  17.020
   22BGLCN   C119635   3.765   7.406  17.663
   22BGLCN   H119636   3.837   7.490  17.654
   22BGLCN   C519637   3.933   7.261  17.749
   22BGLCN   H519638   4.004   7.346  17.744
   22BGLCN   O519639   3.832   7.280  17.649
   22BGLCN   C219640   3.694   7.411  17.796
   22BGLCN   H219641   3.622   7.326  17.799
   22BGLCN    N19642   3.618   7.535  17.803
   22BGLCN   HN19643   3.650   7.607  17.742
   22BGLCN    C19644   3.502   7.555  17.868
   22BGLCN    O19645   3.445   7.469  17.934
   22BGLCN   CT19646   3.444   7.693  17.855
   22BGLCN  HT119647   3.354   7.689  17.790
   22BGLCN  HT219648   3.518   7.763  17.811
   22BGLCN  HT319649   3.413   7.729  17.955
   22BGLCN   C319650   3.795   7.393  17.908
   22BGLCN   H319651   3.867   7.477  17.903
   22BGLCN   O319652   3.721   7.401  18.031
   22BGLCN   C419653   3.869   7.262  17.888
   22BGLCN   H419654   3.797   7.178  17.895
   22BGLCN   O419655   3.972   7.243  17.984
   22BGLCN  HO419656   3.945   7.178  18.049
   22BGLCN   C619657   4.006   7.131  17.715
   22BGLCN  H6119658   4.028   7.073  17.808
   22BGLCN  H6219659   3.942   7.066  17.652
   22BGLCN   O619660   4.130   7.156  17.649
   22BGLCN  HO619661   4.114   7.195  17.563
   23AGAL    C119662   3.791   7.419  18.152
   23AGAL    H119663   3.851   7.328  18.175
   23AGAL    C519664   3.805   7.656  18.128
   23AGAL    H519665   3.746   7.647  18.034
   23AGAL    O519666   3.877   7.534  18.150
   23AGAL    C219667   3.690   7.434  18.265
   23AGAL    H219668   3.746   7.440  18.361
   23AGAL    O219669   3.602   7.321  18.267
   23AGAL    C319670   3.611   7.562  18.248
   23AGAL    H319671   3.555   7.556  18.153
   23AGAL    O319672   3.514   7.579  18.352
   23AGAL   HO319673   3.559   7.604  18.433
   23AGAL    C419674   3.705   7.681  18.242
   23AGAL    H419675   3.646   7.772  18.218
   23AGAL    O419676   3.773   7.704  18.365
   23AGAL   HO419677   3.858   7.740  18.341
   23AGAL    C619678   3.904   7.770  18.106
   23AGAL   H6119679   3.967   7.746  18.018
   23AGAL   H6219680   3.848   7.863  18.082
   23AGAL    O619681   3.988   7.795  18.219
   23AGAL   HO619682   4.067   7.741  18.213
   24ARHM    C119683   3.622   7.221  18.363
   24ARHM    H119684   3.731   7.209  18.381
   24ARHM    C519685   3.434   7.100  18.284
   24ARHM    H519686   3.418   7.176  18.204
   24ARHM    O519687   3.573   7.094  18.317
   24ARHM    C219688   3.551   7.262  18.491
   24ARHM    H219689   3.584   7.365  18.519
   24ARHM    O219690   3.577   7.174  18.601
   24ARHM    C319691   3.403   7.270  18.460
   24ARHM    H319692   3.391   7.346  18.380
   24ARHM    O319693   3.330   7.317  18.574
   24ARHM   HO319694   3.336   7.252  18.644
   24ARHM    C419695   3.352   7.137  18.407
   24ARHM    H419696   3.366   7.059  18.484
   24ARHM    O419697   3.213   7.145  18.373
   24ARHM   HO419698   3.171   7.059  18.380
   24ARHM    C619699   3.399   6.963  18.225
   24ARHM   H6119700   3.293   6.959  18.193
   24ARHM   H6219701   3.463   6.942  18.136
   24ARHM   H6319702   3.417   6.883  18.300
   25ARHM    C119703   3.705   7.194  18.658
   25ARHM    H119704   3.764   7.263  18.594
   25ARHM    C519705   3.725   6.976  18.753
   25ARHM    H519706   3.626   6.945  18.714
   25ARHM    O519707   3.782   7.074  18.665
   25ARHM    C219708   3.689   7.257  18.795
   25ARHM    H219709   3.615   7.340  18.786
   25ARHM    O219710   3.814   7.310  18.845
   25ARHM    C319711   3.626   7.158  18.889
   25ARHM    H319712   3.523   7.134  18.855
   25ARHM    O319713   3.622   7.224  19.015
   25ARHM    C419714   3.710   7.033  18.894
   25ARHM    H419715   3.811   7.059  18.931
   25ARHM    O419716   3.655   6.934  18.981
   25ARHM   HO419717   3.724   6.873  19.007
   25ARHM    C619718   3.822   6.857  18.746
   25ARHM   H6119719   3.828   6.819  18.642
   25ARHM   H6219720   3.923   6.890  18.777
   25ARHM   H6319721   3.789   6.775  18.813
   26BMANN   C119722   3.848   7.432  18.782
   26BMANN   H119723   3.757   7.483  18.744
   26BMANN   C519724   3.963   7.530  18.598
   26BMANN   H519725   3.864   7.568  18.564
   26BMANN   O519726   3.938   7.409  18.672
   26BMANN   C219727   3.917   7.527  18.880
   26BMANN   H219728   3.845   7.544  18.962
   26BMANN    N19729   4.039   7.471  18.935
   26BMANN   HN19730   4.095   7.419  18.871
   26BMANN    C19731   4.083   7.489  19.060
   26BMANN    O19732   4.021   7.552  19.145
   26BMANN   CT19733   4.214   7.422  19.095
   26BMANN  HT119734   4.260   7.377  19.004
   26BMANN  HT219735   4.195   7.344  19.171
   26BMANN  HT319736   4.284   7.498  19.137
   26BMANN   C319737   3.937   7.658  18.806
   26BMANN   H319738   3.838   7.692  18.770
   26BMANN   O319739   3.986   7.761  18.893
   26BMANN  HO319740   3.951   7.843  18.859
   26BMANN   C419741   4.027   7.636  18.686
   26BMANN   H419742   4.126   7.600  18.721
   26BMANN   O419743   4.047   7.755  18.610
   26BMANN  HO419744   4.141   7.773  18.600
   26BMANN   C619745   4.043   7.495  18.474
   26BMANN  H6119746   4.001   7.403  18.427
   26BMANN  H6219747   4.033   7.577  18.399
   26BMANN   O619748   4.182   7.475  18.501
   26BMANN  HO619749   4.225   7.560  18.508
   27BGLCN   C119750   3.512   7.198  19.097
   27BGLCN   H119751   3.486   7.090  19.096
   27BGLCN   C519752   3.289   7.264  19.153
   27BGLCN   H519753   3.257   7.157  19.154
   27BGLCN   O519754   3.400   7.280  19.062
   27BGLCN   C219755   3.561   7.242  19.233
   27BGLCN   H219756   3.577   7.352  19.227
   27BGLCN    N19757   3.689   7.180  19.268
   27BGLCN   HN19758   3.703   7.086  19.237
   27BGLCN    C19759   3.788   7.245  19.330
   27BGLCN    O19760   3.782   7.364  19.361
   27BGLCN   CT19761   3.912   7.165  19.359
   27BGLCN  HT119762   3.913   7.070  19.301
   27BGLCN  HT219763   3.918   7.143  19.468
   27BGLCN  HT319764   4.002   7.225  19.331
   27BGLCN   C319765   3.451   7.217  19.334
   27BGLCN   H319766   3.421   7.111  19.324
   27BGLCN   O319767   3.505   7.238  19.466
   27BGLCN   C419768   3.332   7.303  19.294
   27BGLCN   H419769   3.366   7.409  19.291
   27BGLCN   O419770   3.222   7.299  19.384
   27BGLCN  HO419771   3.205   7.211  19.419
   27BGLCN   C619772   3.172   7.346  19.101
   27BGLCN  H6119773   3.091   7.351  19.177
   27BGLCN  H6219774   3.206   7.451  19.082
   27BGLCN   O619775   3.116   7.291  18.982
   27BGLCN  HO619776   3.043   7.348  18.955
   28AGAL    C119777   3.435   7.177   0.099
   28AGAL    H119778   3.339   7.231   0.116
   28AGAL    C519779   3.528   6.959   0.062
   28AGAL    H519780   3.591   7.004  19.455
   28AGAL    O519781   3.408   7.038   0.073
   28AGAL    C219782   3.512   7.186   0.229
   28AGAL    H219783   3.446   7.134   0.301
   28AGAL    O219784   3.534   7.322   0.272
   28AGAL    C319785   3.642   7.109   0.221
   28AGAL    H319786   3.702   7.151   0.137
   28AGAL    O319787   3.719   7.121   0.341
   28AGAL   HO319788   3.800   7.170   0.323
   28AGAL    C419789   3.610   6.964   0.191
   28AGAL    H419790   3.706   6.909   0.173
   28AGAL    O419791   3.546   6.901   0.302
   28AGAL   HO419792   3.594   6.926   0.381
   28AGAL    C619793   3.489   6.821   0.012
   28AGAL   H6119794   3.436   6.831  19.388
   28AGAL   H6219795   3.580   6.760  19.467
   28AGAL    O619796   3.403   6.751   0.103
   28AGAL   HO619797   3.345   6.816   0.143
   29ARHM    C119798   3.495   7.342   0.405
   29ARHM    H119799   3.498   7.245   0.459
   29ARHM    C519800   3.352   7.526   0.355
   29ARHM    H519801   3.378   7.521   0.247
   29ARHM    O519802   3.362   7.396   0.414
   29ARHM    C219803   3.592   7.433   0.475
   29ARHM    H219804   3.695   7.392   0.459
   29ARHM    O219805   3.562   7.436   0.616
   29ARHM    C319806   3.588   7.571   0.415
   29ARHM    H319807   3.615   7.564   0.307
   29ARHM    O319808   3.682   7.657   0.478
   29ARHM   HO319809   3.663   7.746   0.445
   29ARHM    C419810   3.446   7.624   0.425
   29ARHM    H419811   3.417   7.628   0.532
   29ARHM    O419812   3.434   7.756   0.373
   29ARHM   HO419813   3.489   7.766   0.295
   29ARHM    C619814   3.204   7.566   0.367
   29ARHM   H6119815   3.140   7.491   0.316
   29ARHM   H6219816   3.174   7.572   0.474
   29ARHM   H6319817   3.187   7.666   0.320
   30ARHM    C119818   3.642   7.350   0.692
   30ARHM    H119819   3.749   7.366   0.666
   30ARHM    C519820   3.475   7.177   0.707
   30ARHM    H519821   3.403   7.239   0.648
   30ARHM    O519822   3.610   7.211   0.671
   30ARHM    C219823   3.622   7.383   0.838
   30ARHM    H219824   3.636   7.492   0.851
   30ARHM    O219825   3.718   7.311   0.916
   30ARHM    C319826   3.479   7.351   0.882
   30ARHM    H319827   3.412   7.410   0.816
   30ARHM    O319828   3.453   7.394   1.017
   30ARHM    C419829   3.449   7.205   0.854
   30ARHM    H419830   3.517   7.140   0.914
   30ARHM    O419831   3.314   7.171   0.886
   30ARHM   HO419832   3.260   7.167   0.806
   30ARHM    C619833   3.455   7.030   0.668
   30ARHM   H6119834   3.351   6.996   0.689
   30ARHM   H6219835   3.473   7.016   0.559
   30ARHM   H6319836   3.525   6.965   0.725
   31BMANN   C119837   3.840   7.376   0.939
   31BMANN   H119838   3.826   7.485   0.955
   31BMANN   C519839   4.063   7.410   0.857
   31BMANN   H519840   4.052   7.518   0.876
   31BMANN   O519841   3.933   7.352   0.832
   31BMANN   C219842   3.893   7.309   1.063
   31BMANN   H219843   3.824   7.336   1.145
   31BMANN    N19844   3.889   7.163   1.049
   31BMANN   HN19845   3.886   7.129   0.956
   31BMANN    C19846   3.877   7.079   1.152
   31BMANN    O19847   3.881   7.117   1.268
   31BMANN   CT19848   3.855   6.934   1.117
   31BMANN  HT119849   3.934   6.899   1.048
   31BMANN  HT219850   3.756   6.922   1.068
   31BMANN  HT319851   3.857   6.873   1.210
   31BMANN   C319852   4.029   7.367   1.097
   31BMANN   H319853   4.017   7.477   1.109
   31BMANN   O319854   4.077   7.319   1.222
   31BMANN  HO319855   4.037   7.233   1.240
   31BMANN   C419856   4.124   7.346   0.982
   31BMANN   H419857   4.140   7.237   0.964
   31BMANN   O419858   4.251   7.405   1.010
   31BMANN  HO419859   4.262   7.402   1.106
   31BMANN   C619860   4.148   7.392   0.732
   31BMANN  H6119861   4.254   7.419   0.754
   31BMANN  H6219862   4.146   7.286   0.701
   31BMANN   O619863   4.103   7.473   0.622
   31BMANN  HO619864   4.154   7.555   0.619
   32BGLCN   C119865   3.499   7.311   1.122
   32BGLCN   H119866   3.602   7.274   1.102
   32BGLCN   C519867   3.464   7.107   1.243
   32BGLCN   H519868   3.565   7.071   1.213
   32BGLCN   O519869   3.414   7.198   1.145
   32BGLCN   C219870   3.502   7.389   1.253
   32BGLCN   H219871   3.395   7.400   1.281
   32BGLCN    N19872   3.558   7.523   1.240
   32BGLCN   HN19873   3.632   7.535   1.174
   32BGLCN    C19874   3.506   7.629   1.303
   32BGLCN    O19875   3.415   7.619   1.385
   32BGLCN   CT19876   3.563   7.763   1.268
   32BGLCN  HT119877   3.631   7.754   1.180
   32BGLCN  HT219878   3.618   7.803   1.355
   32BGLCN  HT319879   3.480   7.833   1.243
   32BGLCN   C319880   3.567   7.300   1.360
   32BGLCN   H319881   3.663   7.265   1.317
   32BGLCN   O319882   3.596   7.368   1.484
   32BGLCN   C419883   3.477   7.179   1.377
   32BGLCN   H419884   3.375   7.214   1.407
   32BGLCN   O419885   3.524   7.091   1.478
   32BGLCN  HO419886   3.496   7.124   1.563
   32BGLCN   C619887   3.370   6.988   1.243
   32BGLCN  H6119888   3.406   6.911   1.315
   32BGLCN  H6219889   3.269   7.021   1.275
   32BGLCN   O619890   3.361   6.930   1.112
   32BGLCN  HO619891   3.331   6.999   1.053
   33AGAL    C119892   3.723   7.331   1.536
   33AGAL    H119893   3.739   7.222   1.524
   33AGAL    C519894   3.830   7.540   1.484
   33AGAL    H519895   3.734   7.582   1.447
   33AGAL    O519896   3.829   7.397   1.465
   33AGAL    C219897   3.737   7.365   1.684
   33AGAL    H219898   3.838   7.330   1.713
   33AGAL    O219899   3.641   7.291   1.761
   33AGAL    C319900   3.731   7.515   1.707
   33AGAL    H319901   3.633   7.552   1.668
   33AGAL    O319902   3.739   7.549   1.845
   33AGAL   HO319903   3.829   7.530   1.873
   33AGAL    C419904   3.844   7.580   1.630
   33AGAL    H419905   3.834   7.690   1.637
   33AGAL    O419906   3.972   7.545   1.681
   33AGAL   HO419907   4.030   7.535   1.605
   33AGAL    C619908   3.941   7.596   1.396
   33AGAL   H6119909   3.915   7.579   1.290
   33AGAL   H6219910   3.950   7.706   1.413
   33AGAL    O619911   4.069   7.536   1.422
   33AGAL   HO619912   4.077   7.456   1.369
   34ARHM    C119913   3.690   7.240   1.882
   34ARHM    H119914   3.742   7.320   1.940
   34ARHM    C519915   3.724   7.022   1.791
   34ARHM    H519916   3.692   7.056   1.690
   34ARHM    O519917   3.782   7.132   1.863
   34ARHM    C219918   3.570   7.193   1.960
   34ARHM    H219919   3.499   7.278   1.968
   34ARHM    O219920   3.601   7.147   2.093
   34ARHM    C319921   3.502   7.081   1.885
   34ARHM    H319922   3.471   7.118   1.784
   34ARHM    O319923   3.383   7.039   1.951
   34ARHM   HO319924   3.347   6.964   1.903
   34ARHM    C419925   3.602   6.968   1.865
   34ARHM    H419926   3.634   6.932   1.965
   34ARHM    O419927   3.545   6.858   1.795
   34ARHM   HO419928   3.591   6.777   1.820
   34ARHM    C619929   3.837   6.920   1.773
   34ARHM   H6119930   3.872   6.882   1.872
   34ARHM   H6219931   3.803   6.834   1.711
   34ARHM   H6319932   3.923   6.969   1.722
   35ARHM    C119933   3.658   7.241   2.181
   35ARHM    H119934   3.621   7.343   2.156
   35ARHM    C519935   3.854   7.106   2.200
   35ARHM    H519936   3.813   7.034   2.126
   35ARHM    O519937   3.801   7.238   2.175
   35ARHM    C219938   3.612   7.201   2.320
   35ARHM    H219939   3.501   7.196   2.319
   35ARHM    O219940   3.654   7.291   2.424
   35ARHM    C319941   3.663   7.063   2.353
   35ARHM    H319942   3.621   6.990   2.280
   35ARHM    O319943   3.620   7.022   2.482
   35ARHM   HO319944   3.680   7.063   2.545
   35ARHM    C419945   3.814   7.062   2.341
   35ARHM    H419946   3.855   7.139   2.411
   35ARHM    O419947   3.874   6.938   2.378
   35ARHM   HO419948   3.844   6.865   2.323
   35ARHM    C619949   4.006   7.115   2.178
   35ARHM   H6119950   4.027   7.146   2.073
   35ARHM   H6219951   4.052   7.188   2.248
   35ARHM   H6319952   4.053   7.015   2.195
   36BMANN   C119953   3.587   7.415   2.426
   36BMANN   H119954   3.480   7.402   2.401
   36BMANN   C519955   3.585   7.634   2.332
   36BMANN   H519956   3.478   7.619   2.306
   36BMANN   O519957   3.650   7.506   2.334
   36BMANN   C219958   3.602   7.473   2.565
   36BMANN   H219959   3.549   7.404   2.634
   36BMANN    N19960   3.741   7.483   2.609
   36BMANN   HN19961   3.809   7.494   2.538
   36BMANN    C19962   3.780   7.483   2.738
   36BMANN    O19963   3.704   7.460   2.831
   36BMANN   CT19964   3.925   7.512   2.763
   36BMANN  HT119965   3.956   7.601   2.706
   36BMANN  HT219966   3.987   7.425   2.733
   36BMANN  HT319967   3.941   7.532   2.871
   36BMANN   C319968   3.527   7.606   2.568
   36BMANN   H319969   3.422   7.588   2.536
   36BMANN   O319970   3.520   7.661   2.700
   36BMANN  HO319971   3.467   7.740   2.700
   36BMANN   C419972   3.591   7.701   2.468
   36BMANN   H419973   3.697   7.719   2.497
   36BMANN   O419974   3.524   7.826   2.461
   36BMANN  HO419975   3.506   7.862   2.548
   36BMANN   C619976   3.645   7.717   2.219
   36BMANN  H6119977   3.629   7.662   2.124
   36BMANN  H6219978   3.592   7.814   2.211
   36BMANN   O619979   3.786   7.741   2.234
   36BMANN  HO619980   3.801   7.799   2.309
    1ECLIP HB6S19981   4.882   7.320  11.823
    1ECLIP  OB619982   5.039   7.271  11.951
    1ECLIP  CB619983   4.983   7.359  11.851
    1ECLIP HB6R19984   4.968   7.461  11.892
    1ECLIP  CB519985   5.069   7.364  11.728
    1ECLIP  OB519986   5.080   7.229  11.681
    1ECLIP  HB519987   5.170   7.400  11.756
    1ECLIP  CB119988   5.169   7.218  11.569
    1ECLIP  HB119989   5.268   7.259  11.597
    1ECLIP  OA619990   5.187   7.084  11.532
    1ECLIP  CA619991   5.069   7.004  11.542
    1ECLIP HA6R19992   4.977   7.065  11.531
    1ECLIP HA6S19993   5.067   6.957  11.642
    1ECLIP  CB419994   5.012   7.452  11.616
    1ECLIP  HB419995   4.909   7.420  11.591
    1ECLIP  OB419996   5.017   7.585  11.663
    1ECLIP   PB19997   4.898   7.693  11.685
    1ECLIP OPB419998   4.978   7.816  11.719
    1ECLIP OPB319999   4.796   7.655  11.789
    1ECLIP OPB220000   4.817   7.717  11.561
    1ECLIP  CB320001   5.101   7.440  11.494
    1ECLIP  OB320002   5.046   7.507  11.381
    1ECLIP  HB320003   5.204   7.476  11.515
    1ECLIP  C7120004   5.068   7.634  11.362
    1ECLIP  O7120005   5.130   7.708  11.439
    1ECLIP  C7220006   5.017   7.673  11.225
    1ECLIP H72R20007   5.068   7.611  11.149
    1ECLIP H72S20008   5.042   7.780  11.208
    1ECLIP  CB220009   5.114   7.296  11.452
    1ECLIP  HB220010   5.011   7.258  11.432
    1ECLIP  NB220011   5.194   7.281  11.330
    1ECLIP HNB220012   5.293   7.289  11.337
    1ECLIP  CA420013   5.204   6.890  11.359
    1ECLIP  HA420014   5.225   6.990  11.315
    1ECLIP  OA420015   5.306   6.856  11.452
    1ECLIP HOA420016   5.309   6.924  11.519
    1ECLIP  CA520017   5.073   6.897  11.434
    1ECLIP  HA520018   5.052   6.800  11.483
    1ECLIP  OA520019   4.967   6.929  11.343
    1ECLIP  CA120020   4.951   6.831  11.240
    1ECLIP  HA120021   4.867   6.863  11.174
    1ECLIP  OA120022   4.925   6.703  11.295
    1ECLIP OPA220023   4.804   6.511  11.391
    1ECLIP OPA320024   4.765   6.735  11.505
    1ECLIP OPA420025   4.679   6.672  11.270
    1ECLIP   PA20026   4.789   6.662  11.374
    1ECLIP  CA320027   5.196   6.790  11.247
    1ECLIP  HA320028   5.171   6.692  11.292
    1ECLIP  OA320029   5.319   6.766  11.177
    1ECLIP  C3120030   5.386   6.873  11.127
    1ECLIP  O3120031   5.387   6.894  11.007
    1ECLIP  C3220032   5.516   6.887  11.207
    1ECLIP H32R20033   5.598   6.843  11.146
    1ECLIP H32S20034   5.510   6.830  11.303
    1ECLIP  CA220035   5.080   6.830  11.155
    1ECLIP  HA220036   5.098   6.935  11.124
    1ECLIP  NA220037   5.075   6.752  11.032
    1ECLIP HNA220038   5.144   6.680  11.024
    1ECLIP  C7320039   4.865   7.652  11.218
    1ECLIP H73R20040   4.819   7.699  11.307
    1ECLIP  O7320041   4.837   7.512  11.211
    1ECLIP  C8120042   4.718   7.475  11.256
    1ECLIP  O8120043   4.637   7.547  11.311
    1ECLIP  C8220044   4.685   7.334  11.206
    1ECLIP H82R20045   4.586   7.306  11.248
    1ECLIP H82S20046   4.762   7.264  11.246
    1ECLIP  C8320047   4.682   7.324  11.052
    1ECLIP H83R20048   4.785   7.338  11.014
    1ECLIP H83S20049   4.619   7.405  11.009
    1ECLIP  C8420050   4.628   7.189  11.001
    1ECLIP H84R20051   4.520   7.180  11.023
    1ECLIP H84S20052   4.681   7.107  11.053
    1ECLIP  C8520053   4.653   7.173  10.850
    1ECLIP H85R20054   4.763   7.170  10.835
    1ECLIP H85S20055   4.614   7.263  10.797
    1ECLIP  C8620056   4.592   7.047  10.788
    1ECLIP H86R20057   4.482   7.060  10.779
    1ECLIP H86S20058   4.610   6.961  10.856
    1ECLIP  C8720059   4.652   7.012  10.650
    1ECLIP H87R20060   4.594   6.929  10.605
    1ECLIP H87S20061   4.756   6.977  10.666
    1ECLIP  C8820062   4.656   7.132  10.554
    1ECLIP H88R20063   4.721   7.210  10.599
    1ECLIP H88S20064   4.554   7.175  10.542
    1ECLIP  C8920065   4.715   7.100  10.416
    1ECLIP H89R20066   4.802   7.032  10.426
    1ECLIP H89S20067   4.754   7.195  10.374
    1ECLIP C81020068   4.613   7.041  10.317
    1ECLIPH810R20069   4.519   7.099  10.323
    1ECLIPH810S20070   4.590   6.937  10.348
    1ECLIP C81120071   4.665   7.041  10.171
    1ECLIPH811R20072   4.596   6.980  10.109
    1ECLIPH811S20073   4.764   6.991  10.172
    1ECLIP C81220074   4.680   7.180  10.106
    1ECLIPH812R20075   4.729   7.168  10.007
    1ECLIPH812S20076   4.747   7.243  10.168
    1ECLIP C81320077   4.547   7.254  10.086
    1ECLIPH813R20078   4.483   7.193  10.018
    1ECLIPH813S20079   4.494   7.261  10.183
    1ECLIP C81420080   4.563   7.395  10.029
    1ECLIPH814R20081   4.618   7.392   9.932
    1ECLIPH814S20082   4.621   7.458  10.100
    1ECLIPH814T20083   4.464   7.442  10.013
    1ECLIP  C7420084   4.802   7.718  11.092
    1ECLIP H74R20085   4.824   7.827  11.094
    1ECLIP H74S20086   4.692   7.705  11.102
    1ECLIP  C7520087   4.841   7.660  10.955
    1ECLIP H75R20088   4.754   7.676  10.887
    1ECLIP H75S20089   4.858   7.550  10.961
    1ECLIP  C7620090   4.962   7.727  10.888
    1ECLIP H76R20091   5.056   7.696  10.937
    1ECLIP H76S20092   4.953   7.837  10.897
    1ECLIP  C7720093   4.968   7.691  10.738
    1ECLIP H77R20094   4.872   7.720  10.692
    1ECLIP H77S20095   4.978   7.581  10.729
    1ECLIP  C7820096   5.083   7.759  10.663
    1ECLIP H78R20097   5.067   7.869  10.664
    1ECLIP H78S20098   5.179   7.739  10.716
    1ECLIP  C7920099   5.097   7.712  10.517
    1ECLIP H79R20100   5.131   7.606  10.516
    1ECLIP H79S20101   5.176   7.773  10.467
    1ECLIP C71020102   4.967   7.722  10.435
    1ECLIPH710R20103   4.889   7.658  10.482
    1ECLIPH710S20104   4.931   7.827  10.437
    1ECLIP C71120105   4.984   7.676  10.290
    1ECLIPH711R20106   5.064   7.737  10.243
    1ECLIPH711S20107   5.018   7.570  10.291
    1ECLIP C71220108   4.854   7.687  10.210
    1ECLIPH712R20109   4.828   7.794  10.199
    1ECLIPH712S20110   4.772   7.638  10.267
    1ECLIP C71320111   4.862   7.622  10.071
    1ECLIPH713R20112   4.868   7.512  10.084
    1ECLIPH713S20113   4.767   7.644  10.017
    1ECLIP C71420114   4.981   7.670   9.986
    1ECLIPH714R20115   4.978   7.780   9.977
    1ECLIPH714S20116   5.077   7.641  10.034
    1ECLIPH714T20117   4.978   7.624   9.885
    1ECLIP  C5120118   5.141   7.264  11.208
    1ECLIP  O5120119   5.022   7.242  11.191
    1ECLIP  C5220120   5.238   7.273  11.093
    1ECLIP H52R20121   5.277   7.376  11.085
    1ECLIP H52S20122   5.323   7.205  11.116
    1ECLIP  C5320123   5.176   7.230  10.959
    1ECLIP H53R20124   5.120   7.135  10.973
    1ECLIP  O5320125   5.288   7.216  10.870
    1ECLIP  C6120126   5.298   7.101  10.804
    1ECLIP  O6120127   5.207   7.021  10.791
    1ECLIP  C6220128   5.413   7.118  10.703
    1ECLIP H62R20129   5.507   7.134  10.760
    1ECLIP H62S20130   5.391   7.210  10.644
    1ECLIP  C6320131   5.429   6.998  10.606
    1ECLIP H63R20132   5.331   6.971  10.563
    1ECLIP H63S20133   5.465   6.910  10.665
    1ECLIP  C6420134   5.526   7.024  10.489
    1ECLIP H64R20135   5.550   6.927  10.441
    1ECLIP H64S20136   5.621   7.066  10.529
    1ECLIP  C6520137   5.468   7.118  10.383
    1ECLIP H65R20138   5.441   7.214  10.432
    1ECLIP H65S20139   5.375   7.074  10.342
    1ECLIP  C6620140   5.565   7.151  10.267
    1ECLIP H66R20141   5.659   7.192  10.311
    1ECLIP H66S20142   5.519   7.231  10.205
    1ECLIP  C6720143   5.600   7.032  10.176
    1ECLIP H67R20144   5.655   6.956  10.235
    1ECLIP H67S20145   5.669   7.068  10.097
    1ECLIP  C6820146   5.479   6.965  10.109
    1ECLIP H68R20147   5.416   7.041  10.058
    1ECLIP H68S20148   5.417   6.917  10.188
    1ECLIP  C6920149   5.523   6.859  10.008
    1ECLIP H69R20150   5.605   6.801  10.058
    1ECLIP H69S20151   5.566   6.908   9.918
    1ECLIP C61020152   5.414   6.759   9.969
    1ECLIPH610R20153   5.334   6.811   9.911
    1ECLIPH610S20154   5.367   6.720  10.062
    1ECLIP C61120155   5.466   6.638   9.889
    1ECLIPH611R20156   5.542   6.586   9.952
    1ECLIPH611S20157   5.381   6.567   9.876
    1ECLIP C61220158   5.527   6.669   9.752
    1ECLIPH612R20159   5.448   6.701   9.681
    1ECLIPH612S20160   5.603   6.750   9.760
    1ECLIPH612T20161   5.577   6.579   9.710
    1ECLIP  C5420162   5.079   7.337  10.903
    1ECLIP H54R20163   5.136   7.431  10.884
    1ECLIP H54S20164   5.004   7.360  10.982
    1ECLIP  C5520165   5.002   7.296  10.777
    1ECLIP H55R20166   4.907   7.353  10.771
    1ECLIP H55S20167   4.976   7.188  10.784
    1ECLIP  C5620168   5.082   7.322  10.649
    1ECLIP H56R20169   5.179   7.269  10.656
    1ECLIP H56S20170   5.106   7.430  10.641
    1ECLIP  C5720171   5.014   7.274  10.521
    1ECLIP H57R20172   4.926   7.339  10.500
    1ECLIP H57S20173   4.979   7.170  10.533
    1ECLIP  C5820174   5.116   7.282  10.408
    1ECLIP H58R20175   5.167   7.381  10.416
    1ECLIP H58S20176   5.194   7.204  10.423
    1ECLIP  C5920177   5.057   7.271  10.268
    1ECLIP H59R20178   4.968   7.337  10.259
    1ECLIP H59S20179   5.025   7.166  10.248
    1ECLIP C51020180   5.164   7.316  10.168
    1ECLIPH510R20181   5.253   7.250  10.179
    1ECLIPH510S20182   5.195   7.419  10.194
    1ECLIP C51120183   5.115   7.315  10.023
    1ECLIPH511R20184   5.095   7.210   9.993
    1ECLIPH511S20185   5.020   7.372  10.017
    1ECLIP C51220186   5.219   7.379   9.930
    1ECLIPH512R20187   5.175   7.393   9.829
    1ECLIPH512S20188   5.245   7.480   9.968
    1ECLIP C51320189   5.346   7.295   9.917
    1ECLIPH513R20190   5.318   7.191   9.890
    1ECLIPH513S20191   5.397   7.291  10.016
    1ECLIP C51420192   5.442   7.352   9.815
    1ECLIPH514R20193   5.460   7.459   9.838
    1ECLIPH514S20194   5.539   7.298   9.817
    1ECLIPH514T20195   5.400   7.346   9.712
    1ECLIP  C3320196   5.557   7.033  11.232
    1ECLIP H33R20197   5.651   7.036  11.292
    1ECLIP  O3320198   5.454   7.095  11.308
    1ECLIP HO3320199   5.448   7.060  11.397
    1ECLIP  C3420200   5.582   7.110  11.100
    1ECLIP H34R20201   5.491   7.104  11.038
    1ECLIP H34S20202   5.663   7.059  11.044
    1ECLIP  C3520203   5.617   7.260  11.113
    1ECLIP H35R20204   5.720   7.275  11.150
    1ECLIP H35S20205   5.549   7.308  11.186
    1ECLIP  C3620206   5.597   7.330  10.977
    1ECLIP H36R20207   5.498   7.298  10.939
    1ECLIP H36S20208   5.674   7.297  10.904
    1ECLIP  C3720209   5.593   7.483  10.985
    1ECLIP H37R20210   5.697   7.523  10.984
    1ECLIP H37S20211   5.550   7.513  11.083
    1ECLIP  C3820212   5.508   7.548  10.875
    1ECLIP H38R20213   5.400   7.533  10.900
    1ECLIP H38S20214   5.528   7.657  10.876
    1ECLIP  C3920215   5.531   7.491  10.734
    1ECLIP H39R20216   5.491   7.388  10.729
    1ECLIP H39S20217   5.641   7.485  10.714
    1ECLIP C31020218   5.467   7.576  10.623
    1ECLIPH310R20219   5.510   7.678  10.628
    1ECLIPH310S20220   5.357   7.584  10.642
    1ECLIP C31120221   5.491   7.517  10.484
    1ECLIPH311R20222   5.600   7.497  10.473
    1ECLIPH311S20223   5.438   7.420  10.476
    1ECLIP C31220224   5.446   7.609  10.370
    1ECLIPH312R20225   5.337   7.626  10.377
    1ECLIPH312S20226   5.497   7.708  10.382
    1ECLIP C31320227   5.479   7.552  10.231
    1ECLIPH313R20228   5.589   7.533  10.226
    1ECLIPH313S20229   5.429   7.454  10.220
    1ECLIP C31420230   5.438   7.645  10.117
    1ECLIPH314R20231   5.490   7.742  10.125
    1ECLIPH314S20232   5.463   7.599  10.019
    1ECLIPH314T20233   5.328   7.663  10.120
    1ECLIP  C1120234   4.996   6.782  10.926
    1ECLIP  O1120235   4.924   6.881  10.924
    1ECLIP  C1220236   4.987   6.679  10.815
    1ECLIP H12R20237   4.885   6.636  10.823
    1ECLIP H12S20238   5.061   6.597  10.832
    1ECLIP  C1320239   5.003   6.735  10.671
    1ECLIP H13R20240   4.958   6.836  10.663
    1ECLIP  O1320241   4.931   6.647  10.586
    1ECLIP HO1320242   4.935   6.673  10.494
    1ECLIP  C1420243   5.149   6.737  10.620
    1ECLIP H14R20244   5.200   6.646  10.657
    1ECLIP H14S20245   5.201   6.824  10.666
    1ECLIP  C1520246   5.169   6.740  10.466
    1ECLIP H15R20247   5.131   6.645  10.425
    1ECLIP H15S20248   5.278   6.741  10.446
    1ECLIP  C1620249   5.106   6.859  10.391
    1ECLIP H16R20250   5.168   6.949  10.410
    1ECLIP H16S20251   5.004   6.881  10.430
    1ECLIP  C1720252   5.096   6.836  10.239
    1ECLIP H17R20253   5.193   6.797  10.201
    1ECLIP H17S20254   5.076   6.933  10.189
    1ECLIP  C1820255   4.983   6.738  10.201
    1ECLIP H18R20256   4.998   6.642  10.255
    1ECLIP H18S20257   4.886   6.780  10.237
    1ECLIP  C1920258   4.971   6.707  10.051
    1ECLIP H19R20259   4.890   6.633  10.039
    1ECLIP H19S20260   5.065   6.661  10.014
    1ECLIP C11020261   4.937   6.830   9.965
    1ECLIPH110R20262   4.858   6.889  10.017
    1ECLIPH110S20263   5.026   6.896   9.956
    1ECLIP C11120264   4.883   6.793   9.827
    1ECLIPH111R20265   4.963   6.740   9.771
    1ECLIPH111S20266   4.797   6.724   9.840
    1ECLIP C11220267   4.838   6.915   9.747
    1ECLIPH112R20268   4.766   6.974   9.808
    1ECLIPH112S20269   4.928   6.977   9.730
    1ECLIP C11320270   4.775   6.883   9.611
    1ECLIPH113R20271   4.854   6.837   9.547
    1ECLIPH113S20272   4.695   6.807   9.624
    1ECLIP C11420273   4.716   7.006   9.541
    1ECLIPH114R20274   4.611   7.022   9.573
    1ECLIPH114S20275   4.775   7.097   9.567
    1ECLIPH114T20276   4.718   6.995   9.431
    2AKDO    C120277   5.204   7.432  12.022
    2AKDO   O1120278   5.179   7.556  12.014
    2AKDO   O1220279   5.314   7.377  11.997
    2AKDO    C220280   5.087   7.338  12.067
    2AKDO    C620281   4.867   7.336  12.162
    2AKDO    H620282   4.837   7.280  12.071
    2AKDO    O620283   4.983   7.416  12.128
    2AKDO    C320284   5.126   7.225  12.166
    2AKDO   H3120285   5.170   7.272  12.257
    2AKDO   H3220286   5.203   7.161  12.118
    2AKDO    C420287   5.008   7.140  12.206
    2AKDO    H420288   4.966   7.096  12.113
    2AKDO    O420289   5.040   7.035  12.300
    2AKDO    C520290   4.900   7.228  12.267
    2AKDO    H520291   4.810   7.164  12.279
    2AKDO    O520292   4.940   7.278  12.398
    2AKDO    C720293   4.752   7.431  12.188
    2AKDO    H720294   4.773   7.493  12.277
    2AKDO    O720295   4.631   7.357  12.206
    2AKDO   HO720296   4.565   7.418  12.173
    2AKDO    C820297   4.732   7.525  12.070
    2AKDO   H8120298   4.824   7.585  12.055
    2AKDO   H8220299   4.713   7.468  11.977
    2AKDO    O820300   4.622   7.615  12.095
    2AKDO   HO820301   4.629   7.684  12.029
    3AKDO    C120302   4.980   6.842  12.145
    3AKDO   O1120303   5.022   6.733  12.094
    3AKDO   O1220304   4.860   6.880  12.146
    3AKDO    C220305   5.073   6.903  12.257
    3AKDO    C620306   5.304   6.932  12.321
    3AKDO    H620307   5.279   7.035  12.354
    3AKDO    O620308   5.212   6.892  12.216
    3AKDO    C320309   5.054   6.817  12.383
    3AKDO   H3120310   5.067   6.710  12.356
    3AKDO   H3220311   4.949   6.829  12.418
    3AKDO    C420312   5.147   6.851  12.495
    3AKDO    H420313   5.130   6.956  12.527
    3AKDO    O420314   5.123   6.765  12.606
    3AKDO   HO420315   5.056   6.805  12.662
    3AKDO    C520316   5.289   6.838  12.441
    3AKDO    H520317   5.359   6.869  12.522
    3AKDO    O520318   5.322   6.705  12.401
    3AKDO   HO520319   5.283   6.700  12.313
    3AKDO    C720320   5.446   6.935  12.266
    3AKDO    H720321   5.470   6.836  12.221
    3AKDO    O720322   5.540   6.962  12.370
    3AKDO   HO720323   5.610   7.006  12.322
    3AKDO    C820324   5.463   7.042  12.159
    3AKDO   H8120325   5.391   7.026  12.076
    3AKDO   H8220326   5.443   7.143  12.201
    3AKDO    O820327   5.598   7.039  12.108
    3AKDO   HO820328   5.597   6.981  12.031
    4AHEP    C120329   4.835   7.303  12.490
    4AHEP    H120330   4.774   7.387  12.451
    4AHEP    C520331   4.803   7.079  12.569
    4AHEP    H520332   4.893   7.052  12.510
    4AHEP    O520333   4.743   7.194  12.506
    4AHEP    C220334   4.885   7.347  12.627
    4AHEP    H220335   4.969   7.418  12.607
    4AHEP    O220336   4.789   7.423  12.702
    4AHEP   HO220337   4.807   7.516  12.687
    4AHEP    C320338   4.946   7.231  12.703
    4AHEP    H320339   5.040   7.200  12.652
    4AHEP    O320340   4.971   7.277  12.838
    4AHEP    C420341   4.848   7.116  12.712
    4AHEP    H420342   4.761   7.146  12.774
    4AHEP    O420343   4.919   7.005  12.768
    4AHEP    P420344   4.863   6.906  12.887
    4AHEP  OP4220345   4.983   6.824  12.933
    4AHEP  OP4320346   4.755   6.818  12.826
    4AHEP  OP4420347   4.806   6.991  12.999
    4AHEP    C620348   4.707   6.959  12.559
    4AHEP    H620349   4.764   6.868  12.586
    4AHEP    O620350   4.601   6.973  12.654
    4AHEP   HO620351   4.639   6.929  12.730
    4AHEP    C720352   4.650   6.935  12.419
    4AHEP   H7120353   4.581   6.848  12.422
    4AHEP   H7220354   4.734   6.909  12.352
    4AHEP    O720355   4.580   7.046  12.362
    4AHEP   HO720356   4.616   7.120  12.411
    5AHEP    C120357   5.090   7.238  12.899
    5AHEP    H120358   5.129   7.146  12.850
    5AHEP    C520359   5.146   7.465  12.953
    5AHEP    H520360   5.050   7.495  12.906
    5AHEP    O520361   5.189   7.342  12.891
    5AHEP    C220362   5.064   7.209  13.046
    5AHEP    H220363   4.974   7.143  13.048
    5AHEP    O220364   5.166   7.129  13.106
    5AHEP   HO220365   5.130   7.041  13.097
    5AHEP    C320366   5.019   7.334  13.122
    5AHEP    H320367   4.921   7.365  13.080
    5AHEP    O320368   5.007   7.311  13.264
    5AHEP    C420369   5.122   7.443  13.103
    5AHEP    H420370   5.218   7.415  13.151
    5AHEP    O420371   5.082   7.572  13.146
    5AHEP    P420372   5.000   7.630  13.273
    5AHEP  OP4220373   4.855   7.595  13.245
    5AHEP  OP4320374   5.016   7.782  13.267
    5AHEP  OP4420375   5.053   7.566  13.399
    5AHEP    C620376   5.247   7.576  12.922
    5AHEP    H620377   5.220   7.669  12.977
    5AHEP    O620378   5.380   7.538  12.963
    5AHEP   HO620379   5.432   7.559  12.885
    5AHEP    C720380   5.246   7.610  12.774
    5AHEP   H7120381   5.249   7.721  12.766
    5AHEP   H7220382   5.151   7.580  12.724
    5AHEP    O720383   5.361   7.561  12.704
    6AHEP    C120384   5.337   7.440  12.637
    6AHEP    H120385   5.237   7.398  12.662
    6AHEP    C520386   5.467   7.513  12.449
    6AHEP    H520387   5.484   7.610  12.500
    6AHEP    O520388   5.341   7.458  12.495
    6AHEP    C220389   5.443   7.339  12.676
    6AHEP    H220390   5.440   7.329  12.787
    6AHEP    O220391   5.415   7.210  12.621
    6AHEP   HO220392   5.401   7.220  12.527
    6AHEP    C320393   5.579   7.393  12.637
    6AHEP    H320394   5.595   7.491  12.688
    6AHEP    O320395   5.686   7.308  12.679
    6AHEP   HO320396   5.758   7.323  12.616
    6AHEP    C420397   5.581   7.418  12.487
    6AHEP    H420398   5.565   7.320  12.435
    6AHEP    O420399   5.707   7.470  12.446
    6AHEP   HO420400   5.725   7.440  12.356
    6AHEP    C620401   5.462   7.540  12.299
    6AHEP    H620402   5.560   7.580  12.267
    6AHEP    O620403   5.444   7.415  12.231
    6AHEP   HO620404   5.390   7.428  12.152
    6AHEP    C720405   5.358   7.644  12.257
    6AHEP   H7120406   5.368   7.664  12.148
    6AHEP   H7220407   5.381   7.740  12.309
    6AHEP    O720408   5.221   7.611  12.286
    6AHEP   HO720409   5.195   7.551  12.216
    7AGLC    C120410   4.882   7.262  13.310
    7AGLC    H120411   4.799   7.313  13.257
    7AGLC    C520412   4.975   7.048  13.356
    7AGLC    H520413   5.073   7.092  13.329
    7AGLC    O520414   4.872   7.121  13.289
    7AGLC    C220415   4.867   7.284  13.462
    7AGLC    H220416   4.771   7.237  13.490
    7AGLC    O220417   4.852   7.422  13.497
    7AGLC   HO220418   4.927   7.470  13.460
    7AGLC    C320419   4.976   7.213  13.541
    7AGLC    H320420   5.073   7.248  13.500
    7AGLC    O320421   4.974   7.240  13.685
    7AGLC    C420422   4.962   7.065  13.507
    7AGLC    H420423   4.861   7.030  13.537
    7AGLC    O420424   5.057   6.982  13.571
    7AGLC   HO420425   5.025   6.892  13.562
    7AGLC    C620426   4.979   6.905  13.302
    7AGLC   H6120427   4.949   6.906  13.195
    7AGLC   H6220428   5.083   6.869  13.306
    7AGLC    O620429   4.896   6.813  13.374
    7AGLC   HO620430   4.817   6.800  13.321
    8AGLC    C120431   5.096   7.291  13.737
    8AGLC    H120432   5.183   7.241  13.688
    8AGLC    C520433   5.006   7.511  13.773
    8AGLC    H520434   4.910   7.471  13.734
    8AGLC    O520435   5.111   7.432  13.715
    8AGLC    C220436   5.104   7.272  13.889
    8AGLC    H220437   5.202   7.312  13.922
    8AGLC    O220438   5.095   7.135  13.933
    8AGLC    C320439   4.994   7.348  13.960
    8AGLC    H320440   4.897   7.311  13.919
    8AGLC    O320441   4.996   7.316  14.102
    8AGLC    C420442   5.007   7.495  13.925
    8AGLC    H420443   5.104   7.533  13.963
    8AGLC    O420444   4.901   7.572  13.982
    8AGLC   HO420445   4.820   7.552  13.933
    8AGLC    C620446   5.020   7.654  13.723
    8AGLC   H6120447   5.065   7.654  13.621
    8AGLC   H6220448   4.918   7.699  13.713
    8AGLC    O620449   5.097   7.738  13.809
    8AGLC   HO620450   5.057   7.735  13.897
    9AGAL    C120451   5.181   7.041  13.874
    9AGAL    H120452   5.177   7.046  13.763
    9AGAL    C520453   5.335   7.048  14.056
    9AGAL    H520454   5.271   7.124  14.105
    9AGAL    O520455   5.317   7.059  13.914
    9AGAL    C220456   5.129   6.904  13.917
    9AGAL    H220457   5.193   6.828  13.868
    9AGAL    O220458   4.997   6.892  13.860
    9AGAL    C320459   5.146   6.891  14.069
    9AGAL    H320460   5.089   6.974  14.116
    9AGAL    O320461   5.093   6.771  14.123
    9AGAL   HO320462   4.998   6.781  14.117
    9AGAL    C420463   5.292   6.910  14.105
    9AGAL    H420464   5.302   6.907  14.216
    9AGAL    O420465   5.375   6.808  14.051
    9AGAL   HO420466   5.457   6.852  14.029
    9AGAL    C620467   5.479   7.085  14.088
    9AGAL   H6120468   5.497   7.190  14.057
    9AGAL   H6220469   5.495   7.078  14.197
    9AGAL    O620470   5.574   7.001  14.022
    9AGAL   HO620471   5.585   7.031  13.931
   10AGAL    C120472   4.897   6.811  13.916
   10AGAL    H120473   4.936   6.707  13.926
   10AGAL    C520474   4.805   6.997  14.034
   10AGAL    H520475   4.879   7.060  13.980
   10AGAL    O520476   4.858   6.862  14.044
   10AGAL    C220477   4.774   6.805  13.824
   10AGAL    H220478   4.699   6.739  13.872
   10AGAL    O220479   4.809   6.747  13.698
   10AGAL   HO220480   4.739   6.759  13.633
   10AGAL    C320481   4.714   6.945  13.811
   10AGAL    H320482   4.790   7.011  13.764
   10AGAL    O320483   4.597   6.947  13.729
   10AGAL   HO320484   4.614   6.906  13.644
   10AGAL    C420485   4.679   6.998  13.949
   10AGAL    H420486   4.646   7.104  13.937
   10AGAL    O420487   4.574   6.926  14.012
   10AGAL   HO420488   4.509   6.908  13.944
   10AGAL    C620489   4.792   7.059  14.171
   10AGAL   H6120490   4.894   7.073  14.213
   10AGAL   H6220491   4.745   7.159  14.162
   10AGAL    O620492   4.716   6.980  14.262
   10AGAL   HO620493   4.647   6.939  14.210
   11BGLC    C120494   5.065   7.397  14.195
   11BGLC    H120495   5.009   7.492  14.210
   11BGLC    C520496   5.272   7.506  14.248
   11BGLC    H520497   5.213   7.597  14.271
   11BGLC    O520498   5.199   7.425  14.153
   11BGLC    C220499   5.071   7.318  14.326
   11BGLC    H220500   5.123   7.222  14.305
   11BGLC    O220501   4.941   7.290  14.377
   11BGLC   HO220502   4.903   7.216  14.328
   11BGLC    C320503   5.149   7.393  14.431
   11BGLC    H320504   5.095   7.486  14.460
   11BGLC    O320505   5.174   7.310  14.546
   11BGLC    C420506   5.286   7.427  14.378
   11BGLC    H420507   5.342   7.333  14.357
   11BGLC    O420508   5.357   7.501  14.477
   11BGLC   HO420509   5.312   7.483  14.560
   11BGLC    C620510   5.403   7.547  14.184
   11BGLC   H6120511   5.479   7.571  14.262
   11BGLC   H6220512   5.443   7.464  14.122
   11BGLC    O620513   5.385   7.663  14.104
   11BGLC   HO620514   5.464   7.687  14.054
   12BGLCN   C120515   5.117   7.349  14.668
   12BGLCN   H120516   5.006   7.344  14.660
   12BGLCN   C520517   5.101   7.524  14.829
   12BGLCN   H520518   4.990   7.527  14.818
   12BGLCN   O520519   5.159   7.480  14.705
   12BGLCN   C220520   5.166   7.251  14.775
   12BGLCN   H220521   5.275   7.273  14.785
   12BGLCN    N20522   5.154   7.112  14.732
   12BGLCN   HN20523   5.074   7.089  14.676
   12BGLCN    C20524   5.250   7.020  14.750
   12BGLCN    O20525   5.349   7.040  14.819
   12BGLCN   CT20526   5.230   6.888  14.681
   12BGLCN  HT120527   5.239   6.805  14.755
   12BGLCN  HT220528   5.307   6.875  14.603
   12BGLCN  HT320529   5.129   6.884  14.634
   12BGLCN   C320530   5.103   7.285  14.910
   12BGLCN   H320531   4.993   7.271  14.905
   12BGLCN   O320532   5.159   7.201  15.014
   12BGLCN   C420533   5.141   7.428  14.940
   12BGLCN   H420534   5.251   7.433  14.951
   12BGLCN   O420535   5.085   7.474  15.063
   12BGLCN  HO420536   4.990   7.460  15.068
   12BGLCN   C620537   5.151   7.664  14.859
   12BGLCN  H6120538   5.100   7.705  14.949
   12BGLCN  H6220539   5.260   7.658  14.883
   12BGLCN   O620540   5.137   7.757  14.751
   12BGLCN  HO620541   5.045   7.770  14.729
   13AGAL    C120542   5.079   7.168  15.127
   13AGAL    H120543   5.012   7.252  15.155
   13AGAL    C520544   5.081   6.937  15.065
   13AGAL    H520545   5.143   6.966  14.978
   13AGAL    O520546   5.000   7.051  15.101
   13AGAL    C220547   5.168   7.133  15.246
   13AGAL    H220548   5.099   7.091  15.322
   13AGAL    O220549   5.232   7.248  15.307
   13AGAL    C320550   5.263   7.019  15.209
   13AGAL    H320551   5.317   7.050  15.116
   13AGAL    O320552   5.363   6.993  15.307
   13AGAL   HO320553   5.439   6.954  15.263
   13AGAL    C420554   5.178   6.897  15.177
   13AGAL    H420555   5.244   6.816  15.139
   13AGAL    O420556   5.109   6.846  15.291
   13AGAL   HO420557   5.027   6.810  15.257
   13AGAL    C620558   4.991   6.824  15.015
   13AGAL   H6120559   4.923   6.864  14.937
   13AGAL   H6220560   5.054   6.746  14.968
   13AGAL    O620561   4.913   6.762  15.118
   13AGAL   HO620562   4.865   6.688  15.081
   14ARHM    C120563   5.187   7.281  15.438
   14ARHM    H120564   5.078   7.260  15.444
   14ARHM    C520565   5.335   7.466  15.467
   14ARHM    H520566   5.381   7.448  15.367
   14ARHM    O520567   5.199   7.421  15.466
   14ARHM    C220568   5.262   7.197  15.541
   14ARHM    H220569   5.255   7.090  15.510
   14ARHM    O220570   5.215   7.205  15.678
   14ARHM    C320571   5.406   7.240  15.543
   14ARHM    H320572   5.450   7.223  15.442
   14ARHM    O320573   5.481   7.161  15.635
   14ARHM   HO320574   5.430   7.158  15.716
   14ARHM    C420575   5.413   7.389  15.574
   14ARHM    H420576   5.362   7.407  15.671
   14ARHM    O420577   5.546   7.439  15.588
   14ARHM   HO420578   5.604   7.386  15.532
   14ARHM    C620579   5.329   7.618  15.491
   14ARHM   H6120580   5.271   7.666  15.410
   14ARHM   H6220581   5.279   7.640  15.588
   14ARHM   H6320582   5.431   7.662  15.492
   15ARHM    C120583   5.079   7.179  15.700
   15ARHM    H120584   5.041   7.103  15.629
   15ARHM    C520585   5.043   7.402  15.781
   15ARHM    H520586   5.149   7.429  15.760
   15ARHM    O520587   5.001   7.300  15.689
   15ARHM    C220588   5.063   7.126  15.842
   15ARHM    H220589   5.122   7.032  15.852
   15ARHM    O220590   4.923   7.094  15.859
   15ARHM    C320591   5.114   7.228  15.940
   15ARHM    H320592   5.219   7.252  15.912
   15ARHM    O320593   5.115   7.175  16.073
   15ARHM    C420594   5.031   7.354  15.925
   15ARHM    H420595   4.924   7.329  15.944
   15ARHM    O420596   5.069   7.455  16.018
   15ARHM   HO420597   5.013   7.531  16.003
   15ARHM    C620598   4.957   7.526  15.749
   15ARHM   H6120599   4.985   7.613  15.812
   15ARHM   H6220600   4.973   7.555  15.643
   15ARHM   H6320601   4.850   7.503  15.763
   16BMANN   C120602   4.881   7.044  15.983
   16BMANN   H120603   4.896   7.120  16.063
   16BMANN   C520604   4.904   6.873  16.148
   16BMANN   H520605   4.928   6.951  16.224
   16BMANN   O520606   4.947   6.921  16.019
   16BMANN   C220607   4.733   7.019  15.971
   16BMANN   H220608   4.687   7.117  15.949
   16BMANN    N20609   4.703   6.927  15.861
   16BMANN   HN20610   4.766   6.851  15.850
   16BMANN    C20611   4.601   6.943  15.776
   16BMANN    O20612   4.517   7.031  15.789
   16BMANN   CT20613   4.595   6.845  15.662
   16BMANN  HT120614   4.491   6.843  15.621
   16BMANN  HT220615   4.623   6.744  15.697
   16BMANN  HT320616   4.664   6.877  15.582
   16BMANN   C320617   4.682   6.974  16.107
   16BMANN   H320618   4.708   7.052  16.181
   16BMANN   O320619   4.541   6.960  16.109
   16BMANN  HO320620   4.502   7.046  16.125
   16BMANN   C420621   4.754   6.847  16.148
   16BMANN   H420622   4.731   6.766  16.075
   16BMANN   O420623   4.711   6.805  16.277
   16BMANN  HO420624   4.615   6.806  16.276
   16BMANN   C620625   4.981   6.748  16.185
   16BMANN  H6120626   4.952   6.716  16.287
   16BMANN  H6220627   4.955   6.666  16.115
   16BMANN   O620628   5.123   6.766  16.182
   16BMANN  HO620629   5.149   6.768  16.090
   17BGLCN   C120630   5.228   7.208  16.148
   17BGLCN   H120631   5.257   7.313  16.127
   17BGLCN   C520632   5.455   7.155  16.196
   17BGLCN   H520633   5.484   7.259  16.169
   17BGLCN   O520634   5.337   7.120  16.122
   17BGLCN   C220635   5.190   7.195  16.294
   17BGLCN   H220636   5.175   7.087  16.315
   17BGLCN    N20637   5.062   7.260  16.319
   17BGLCN   HN20638   5.034   7.326  16.250
   17BGLCN    C20639   4.976   7.228  16.417
   17BGLCN    O20640   4.996   7.140  16.500
   17BGLCN   CT20641   4.848   7.307  16.419
   17BGLCN  HT120642   4.773   7.260  16.352
   17BGLCN  HT220643   4.866   7.412  16.386
   17BGLCN  HT320644   4.807   7.308  16.523
   17BGLCN   C320645   5.310   7.243  16.377
   17BGLCN   H320646   5.337   7.343  16.336
   17BGLCN   O320647   5.276   7.258  16.516
   17BGLCN   C420648   5.427   7.150  16.347
   17BGLCN   H420649   5.398   7.047  16.376
   17BGLCN   O420650   5.545   7.187  16.418
   17BGLCN  HO420651   5.604   7.112  16.427
   17BGLCN   C620652   5.567   7.063  16.153
   17BGLCN  H6120653   5.663   7.099  16.196
   17BGLCN  H6220654   5.548   6.961  16.193
   17BGLCN   O620655   5.583   7.053  16.011
   17BGLCN  HO620656   5.588   7.141  15.974
   18AGAL    C120657   5.346   7.360  16.585
   18AGAL    H120658   5.453   7.333  16.596
   18AGAL    C520659   5.203   7.535  16.503
   18AGAL    H520660   5.143   7.457  16.451
   18AGAL    O520661   5.338   7.487  16.517
   18AGAL    C220662   5.289   7.381  16.725
   18AGAL    H220663   5.346   7.467  16.767
   18AGAL    O220664   5.312   7.268  16.812
   18AGAL    C320665   5.143   7.423  16.714
   18AGAL    H320666   5.092   7.345  16.652
   18AGAL    O320667   5.073   7.425  16.838
   18AGAL   HO320668   5.010   7.353  16.838
   18AGAL    C420669   5.137   7.555  16.639
   18AGAL    H420670   5.030   7.580  16.622
   18AGAL    O420671   5.196   7.664  16.710
   18AGAL   HO420672   5.125   7.718  16.744
   18AGAL    C620673   5.198   7.657  16.413
   18AGAL   H6120674   5.213   7.626  16.308
   18AGAL   H6220675   5.098   7.705  16.420
   18AGAL    O620676   5.299   7.753  16.448
   18AGAL   HO620677   5.297   7.759  16.544
   19ARHM    C120678   5.333   7.304  16.946
   19ARHM    H120679   5.287   7.403  16.969
   19ARHM    C520680   5.542   7.188  16.963
   19ARHM    H520681   5.534   7.155  16.857
   19ARHM    O520682   5.473   7.313  16.979
   19ARHM    C220683   5.267   7.200  17.033
   19ARHM    H220684   5.164   7.185  16.994
   19ARHM    O220685   5.258   7.236  17.172
   19ARHM    C320686   5.335   7.066  17.019
   19ARHM    H320687   5.327   7.032  16.913
   19ARHM    O320688   5.271   6.968  17.101
   19ARHM   HO320689   5.258   7.006  17.188
   19ARHM    C420690   5.482   7.082  17.054
   19ARHM    H420691   5.491   7.118  17.158
   19ARHM    O420692   5.553   6.958  17.045
   19ARHM   HO420693   5.513   6.906  16.974
   19ARHM    C620694   5.691   7.216  16.992
   19ARHM   H6120695   5.731   7.291  16.921
   19ARHM   H6220696   5.703   7.254  17.096
   19ARHM   H6320697   5.751   7.123  16.982
   20ARHM    C120698   5.154   7.327  17.201
   20ARHM    H120699   5.077   7.325  17.121
   20ARHM    C520700   5.293   7.481  17.318
   20ARHM    H520701   5.381   7.415  17.302
   20ARHM    O520702   5.199   7.462  17.212
   20ARHM    C220703   5.090   7.283  17.331
   20ARHM    H220704   5.069   7.174  17.326
   20ARHM    O220705   4.966   7.350  17.360
   20ARHM    C320706   5.185   7.303  17.446
   20ARHM    H320707   5.273   7.237  17.432
   20ARHM    O320708   5.114   7.267  17.564
   20ARHM    C420709   5.227   7.447  17.451
   20ARHM    H420710   5.137   7.511  17.462
   20ARHM    O420711   5.314   7.474  17.561
   20ARHM   HO420712   5.364   7.553  17.540
   20ARHM    C620713   5.340   7.627  17.309
   20ARHM   H6120714   5.256   7.697  17.327
   20ARHM   H6220715   5.422   7.648  17.382
   20ARHM   H6320716   5.380   7.647  17.207
   21BMANN   C120717   4.859   7.308  17.280
   21BMANN   H120718   4.889   7.224  17.214
   21BMANN   C520719   4.709   7.381  17.110
   21BMANN   H520720   4.745   7.297  17.046
   21BMANN   O520721   4.816   7.418  17.200
   21BMANN   C220722   4.746   7.263  17.370
   21BMANN   H220723   4.783   7.174  17.424
   21BMANN    N20724   4.713   7.364  17.470
   21BMANN   HN20725   4.747   7.455  17.450
   21BMANN    C20726   4.652   7.340  17.587
   21BMANN    O20727   4.609   7.229  17.618
   21BMANN   CT20728   4.639   7.457  17.681
   21BMANN  HT120729   4.540   7.506  17.665
   21BMANN  HT220730   4.720   7.530  17.662
   21BMANN  HT320731   4.646   7.421  17.785
   21BMANN   C320732   4.631   7.221  17.281
   21BMANN   H320733   4.665   7.137  17.216
   21BMANN   O320734   4.521   7.169  17.357
   21BMANN  HO320735   4.532   7.195  17.449
   21BMANN   C420736   4.589   7.335  17.191
   21BMANN   H420737   4.553   7.420  17.254
   21BMANN   O420738   4.484   7.297  17.103
   21BMANN  HO420739   4.424   7.242  17.154
   21BMANN   C620740   4.678   7.499  17.020
   21BMANN  H6120741   4.617   7.465  16.933
   21BMANN  H6220742   4.616   7.570  17.078
   21BMANN   O620743   4.794   7.568  16.972
   21BMANN  HO620744   4.853   7.509  16.926
   22BGLCN   C120745   5.189   7.199  17.661
   22BGLCN   H120746   5.295   7.230  17.659
   22BGLCN   C520747   5.236   6.985  17.748
   22BGLCN   H520748   5.343   7.015  17.757
   22BGLCN   O520749   5.175   7.059  17.643
   22BGLCN   C220750   5.122   7.244  17.789
   22BGLCN   H220751   5.015   7.215  17.783
   22BGLCN    N20752   5.128   7.389  17.797
   22BGLCN   HN20753   5.193   7.433  17.735
   22BGLCN    C20754   5.040   7.467  17.862
   22BGLCN    O20755   4.950   7.424  17.933
   22BGLCN   CT20756   5.057   7.615  17.842
   22BGLCN  HT120757   5.040   7.640  17.735
   22BGLCN  HT220758   5.159   7.646  17.872
   22BGLCN  HT320759   4.981   7.668  17.904
   22BGLCN   C320760   5.185   7.169  17.905
   22BGLCN   H320761   5.294   7.191  17.903
   22BGLCN   O320762   5.130   7.219  18.028
   22BGLCN   C420763   5.165   7.020  17.878
   22BGLCN   H420764   5.056   7.001  17.865
   22BGLCN   O420765   5.211   6.937  17.984
   22BGLCN  HO420766   5.137   6.882  18.012
   22BGLCN   C620767   5.232   6.838  17.710
   22BGLCN  H6120768   5.269   6.777  17.795
   22BGLCN  H6220769   5.127   6.807  17.688
   22BGLCN   O620770   5.315   6.810  17.597
   22BGLCN  HO620771   5.261   6.817  17.518
   23AGAL    C120772   5.207   7.200  18.145
   23AGAL    H120773   5.208   7.092  18.170
   23AGAL    C520774   5.351   7.387  18.109
   23AGAL    H520775   5.287   7.413  18.022
   23AGAL    O520776   5.343   7.245  18.130
   23AGAL    C220777   5.144   7.272  18.264
   23AGAL    H220778   5.199   7.243  18.355
   23AGAL    O220779   5.005   7.235  18.276
   23AGAL    C320780   5.151   7.422  18.248
   23AGAL    H320781   5.091   7.452  18.160
   23AGAL    O320782   5.100   7.488  18.364
   23AGAL   HO320783   5.178   7.504  18.418
   23AGAL    C420784   5.296   7.462  18.229
   23AGAL    H420785   5.300   7.571  18.207
   23AGAL    O420786   5.375   7.438  18.345
   23AGAL   HO420787   5.464   7.425  18.312
   23AGAL    C620788   5.492   7.427  18.069
   23AGAL   H6120789   5.522   7.369  17.979
   23AGAL   H6220790   5.494   7.535  18.041
   23AGAL    O620791   5.589   7.405  18.172
   23AGAL   HO620792   5.676   7.404  18.130
   24ARHM    C120793   4.974   7.131  18.365
   24ARHM    H120794   5.062   7.063  18.374
   24ARHM    C520795   4.744   7.124  18.305
   24ARHM    H520796   4.759   7.206  18.231
   24ARHM    O520797   4.866   7.050  18.318
   24ARHM    C220798   4.943   7.193  18.499
   24ARHM    H220799   5.025   7.263  18.527
   24ARHM    O220800   4.928   7.094  18.602
   24ARHM    C320801   4.816   7.275  18.489
   24ARHM    H320802   4.832   7.355  18.413
   24ARHM    O320803   4.788   7.340  18.613
   24ARHM   HO320804   4.754   7.274  18.674
   24ARHM    C420805   4.704   7.185  18.439
   24ARHM    H420806   4.692   7.101  18.511
   24ARHM    O420807   4.578   7.252  18.431
   24ARHM   HO420808   4.517   7.205  18.488
   24ARHM    C620809   4.641   7.025  18.247
   24ARHM   H6120810   4.544   7.076  18.229
   24ARHM   H6220811   4.678   6.984  18.151
   24ARHM   H6320812   4.625   6.941  18.318
   25ARHM    C120813   5.051   7.047  18.652
   25ARHM    H120814   5.133   7.073  18.582
   25ARHM    C520815   4.966   6.853  18.761
   25ARHM    H520816   4.862   6.883  18.735
   25ARHM    O520817   5.057   6.904  18.662
   25ARHM    C220818   5.080   7.115  18.784
   25ARHM    H220819   5.059   7.224  18.774
   25ARHM    O220820   5.215   7.097  18.826
   25ARHM    C320821   4.985   7.063  18.889
   25ARHM    H320822   4.881   7.085  18.857
   25ARHM    O320823   5.013   7.130  19.011
   25ARHM    C420824   5.003   6.913  18.897
   25ARHM    H420825   5.110   6.891  18.916
   25ARHM    O420826   4.928   6.854  19.002
   25ARHM   HO420827   4.971   6.770  19.024
   25ARHM    C620828   4.974   6.699  18.755
   25ARHM   H6120829   4.945   6.664  18.654
   25ARHM   H6220830   5.077   6.665  18.778
   25ARHM   H6320831   4.903   6.655  18.828
   26BMANN   C120832   5.308   7.181  18.762
   26BMANN   H120833   5.259   7.272  18.722
   26BMANN   C520834   5.476   7.192  18.591
   26BMANN   H520835   5.424   7.283  18.554
   26BMANN   O520836   5.377   7.111  18.657
   26BMANN   C220837   5.409   7.219  18.869
   26BMANN   H220838   5.353   7.277  18.945
   26BMANN    N20839   5.466   7.102  18.936
   26BMANN   HN20840   5.461   7.017  18.884
   26BMANN    C20841   5.518   7.102  19.059
   26BMANN    O20842   5.526   7.203  19.128
   26BMANN   CT20843   5.568   6.970  19.111
   26BMANN  HT120844   5.563   6.893  19.031
   26BMANN  HT220845   5.506   6.939  19.197
   26BMANN  HT320846   5.674   6.981  19.143
   26BMANN   C320847   5.509   7.311  18.803
   26BMANN   H320848   5.451   7.393  18.754
   26BMANN   O320849   5.596   7.376  18.895
   26BMANN  HO320850   5.568   7.468  18.900
   26BMANN   C420851   5.581   7.237  18.692
   26BMANN   H420852   5.632   7.148  18.735
   26BMANN   O420853   5.681   7.318  18.630
   26BMANN  HO420854   5.723   7.367  18.702
   26BMANN   C620855   5.532   7.122  18.468
   26BMANN  H6120856   5.449   7.073  18.413
   26BMANN  H6220857   5.576   7.198  18.400
   26BMANN   O620858   5.632   7.025  18.499
   26BMANN  HO620859   5.706   7.069  18.541
   27BGLCN   C120860   4.900   7.157  19.089
   27BGLCN   H120861   4.825   7.075  19.081
   27BGLCN   C520862   4.729   7.316  19.135
   27BGLCN   H520863   4.653   7.236  19.126
   27BGLCN   O520864   4.842   7.283  19.053
   27BGLCN   C220865   4.953   7.167  19.230
   27BGLCN   H220866   5.022   7.254  19.233
   27BGLCN    N20867   5.028   7.048  19.265
   27BGLCN   HN20868   5.000   6.964  19.219
   27BGLCN    C20869   5.137   7.048  19.344
   27BGLCN    O20870   5.183   7.149  19.395
   27BGLCN   CT20871   5.203   6.914  19.365
   27BGLCN  HT120872   5.146   6.834  19.314
   27BGLCN  HT220873   5.207   6.893   0.002
   27BGLCN  HT320874   5.307   6.918  19.325
   27BGLCN   C320875   4.838   7.196  19.324
   27BGLCN   H320876   4.763   7.115  19.311
   27BGLCN   O320877   4.888   7.192  19.459
   27BGLCN   C420878   4.774   7.327  19.281
   27BGLCN   H420879   4.850   7.408  19.289
   27BGLCN   O420880   4.663   7.364  19.362
   27BGLCN  HO420881   4.603   7.290  19.371
   27BGLCN   C620882   4.670   7.445  19.082
   27BGLCN  H6120883   4.592   7.484  19.151
   27BGLCN  H6220884   4.751   7.521  19.076
   27BGLCN   O620885   4.610   7.429  18.953
   27BGLCN  HO620886   4.605   7.516  18.912
   28AGAL    C120887   4.794   7.186   0.091
   28AGAL    H120888   4.748   7.286   0.104
   28AGAL    C520889   4.741   6.954   0.060
   28AGAL    H520890   4.821   6.949  19.456
   28AGAL    O520891   4.691   7.089   0.065
   28AGAL    C220892   4.859   7.152   0.224
   28AGAL    H220893   4.774   7.152   0.295
   28AGAL    O220894   4.955   7.250   0.268
   28AGAL    C320895   4.917   7.012   0.225
   28AGAL    H320896   4.996   7.006   0.147
   28AGAL    O320897   4.974   6.983   0.352
   28AGAL   HO320898   5.045   6.919   0.350
   28AGAL    C420899   4.805   6.914   0.193
   28AGAL    H420900   4.850   6.813   0.181
   28AGAL    O420901   4.710   6.905   0.300
   28AGAL   HO420902   4.760   6.904   0.381
   28AGAL    C620903   4.629   6.862   0.011
   28AGAL   H6120904   4.590   6.900  19.387
   28AGAL   H6220905   4.670   6.760  19.466
   28AGAL    O620906   4.521   6.853   0.103
   28AGAL   HO620907   4.549   6.898   0.183
   29ARHM    C120908   4.938   7.285   0.403
   29ARHM    H120909   4.895   7.199   0.459
   29ARHM    C520910   4.901   7.514   0.350
   29ARHM    H520911   4.913   7.493   0.241
   29ARHM    O520912   4.850   7.398   0.417
   29ARHM    C220913   5.071   7.318   0.467
   29ARHM    H220914   5.138   7.231   0.450
   29ARHM    O220915   5.057   7.342   0.609
   29ARHM    C320916   5.132   7.437   0.396
   29ARHM    H320917   5.141   7.411   0.288
   29ARHM    O320918   5.264   7.466   0.442
   29ARHM   HO320919   5.318   7.481   0.365
   29ARHM    C420920   5.037   7.555   0.407
   29ARHM    H420921   5.024   7.580   0.515
   29ARHM    O420922   5.088   7.670   0.340
   29ARHM   HO420923   5.154   7.642   0.277
   29ARHM    C620924   4.793   7.623   0.366
   29ARHM   H6120925   4.697   7.588   0.323
   29ARHM   H6220926   4.778   7.647   0.473
   29ARHM   H6320927   4.823   7.716   0.313
   30ARHM    C120928   5.079   7.228   0.689
   30ARHM    H120929   5.177   7.183   0.662
   30ARHM    C520930   4.846   7.173   0.711
   30ARHM    H520931   4.817   7.263   0.652
   30ARHM    O520932   4.977   7.129   0.672
   30ARHM    C220933   5.085   7.268   0.836
   30ARHM    H220934   5.158   7.350   0.847
   30ARHM    O220935   5.125   7.156   0.916
   30ARHM    C320936   4.949   7.317   0.882
   30ARHM    H320937   4.922   7.404   0.818
   30ARHM    O320938   4.954   7.366   1.018
   30ARHM    C420939   4.844   7.211   0.858
   30ARHM    H420940   4.867   7.118   0.916
   30ARHM    O420941   4.715   7.258   0.895
   30ARHM   HO420942   4.702   7.240   0.988
   30ARHM    C620943   4.751   7.058   0.676
   30ARHM   H6120944   4.646   7.085   0.701
   30ARHM   H6220945   4.757   7.034   0.568
   30ARHM   H6320946   4.778   6.967   0.733
   31BMANN   C120947   5.262   7.142   0.943
   31BMANN   H120948   5.308   7.240   0.969
   31BMANN   C520949   5.470   7.052   0.864
   31BMANN   H520950   5.520   7.147   0.893
   31BMANN   O520951   5.331   7.079   0.834
   31BMANN   C220952   5.265   7.047   1.061
   31BMANN   H220953   5.217   7.102   1.146
   31BMANN    N20954   5.186   6.926   1.038
   31BMANN   HN20955   5.173   6.899   0.943
   31BMANN    C20956   5.134   6.851   1.135
   31BMANN    O20957   5.153   6.876   1.253
   31BMANN   CT20958   5.048   6.735   1.093
   31BMANN  HT120959   5.100   6.676   1.014
   31BMANN  HT220960   4.952   6.772   1.053
   31BMANN  HT320961   5.028   6.670   1.181
   31BMANN   C320962   5.409   7.022   1.099
   31BMANN   H320963   5.458   7.120   1.116
   31BMANN   O320964   5.421   6.951   1.222
   31BMANN  HO320965   5.336   6.912   1.243
   31BMANN   C420966   5.480   6.956   0.982
   31BMANN   H420967   5.428   6.861   0.955
   31BMANN   O420968   5.615   6.924   1.014
   31BMANN  HO420969   5.621   6.929   1.110
   31BMANN   C620970   5.537   7.002   0.738
   31BMANN  H6120971   5.635   6.956   0.763
   31BMANN  H6220972   5.474   6.923   0.691
   31BMANN   O620973   5.561   7.108   0.644
   31BMANN  HO620974   5.483   7.118   0.589
   32BGLCN   C120975   4.937   7.272   1.122
   32BGLCN   H120976   4.987   7.176   1.096
   32BGLCN   C520977   4.782   7.144   1.253
   32BGLCN   H520978   4.831   7.051   1.218
   32BGLCN   O520979   4.799   7.246   1.152
   32BGLCN   C220980   5.001   7.327   1.247
   32BGLCN   H220981   4.935   7.410   1.282
   32BGLCN    N20982   5.134   7.382   1.222
   32BGLCN   HN20983   5.204   7.322   1.185
   32BGLCN    C20984   5.166   7.511   1.244
   32BGLCN    O20985   5.088   7.591   1.295
   32BGLCN   CT20986   5.303   7.554   1.200
   32BGLCN  HT120987   5.316   7.534   1.092
   32BGLCN  HT220988   5.381   7.501   1.259
   32BGLCN  HT320989   5.314   7.663   1.218
   32BGLCN   C320990   4.996   7.219   1.353
   32BGLCN   H320991   5.043   7.128   1.311
   32BGLCN   O320992   5.064   7.254   1.474
   32BGLCN   C420993   4.850   7.190   1.381
   32BGLCN   H420994   4.800   7.283   1.416
   32BGLCN   O420995   4.835   7.092   1.483
   32BGLCN  HO420996   4.854   7.134   1.567
   32BGLCN   C620997   4.634   7.114   1.273
   32BGLCN  H6120998   4.622   7.026   1.339
   32BGLCN  H6220999   4.587   7.201   1.324
   32BGLCN   O621000   4.563   7.089   1.150
   32BGLCN  HO621001   4.588   7.004   1.114
   33AGAL    C121002   5.143   7.149   1.527
   33AGAL    H121003   5.094   7.051   1.511
   33AGAL    C521004   5.348   7.268   1.488
   33AGAL    H521005   5.289   7.354   1.448
   33AGAL    O521006   5.273   7.147   1.465
   33AGAL    C221007   5.163   7.169   1.676
   33AGAL    H221008   5.228   7.086   1.710
   33AGAL    O221009   5.037   7.158   1.744
   33AGAL    C321010   5.234   7.301   1.702
   33AGAL    H321011   5.174   7.381   1.654
   33AGAL    O321012   5.244   7.333   1.840
   33AGAL   HO321013   5.316   7.281   1.876
   33AGAL    C421014   5.370   7.296   1.636
   33AGAL    H421015   5.419   7.395   1.647
   33AGAL    O421016   5.456   7.200   1.698
   33AGAL   HO421017   5.507   7.158   1.628
   33AGAL    C621018   5.476   7.262   1.407
   33AGAL   H6121019   5.452   7.262   1.299
   33AGAL   H6221020   5.537   7.353   1.427
   33AGAL    O621021   5.554   7.145   1.436
   33AGAL   HO621022   5.513   7.070   1.393
   34ARHM    C121023   5.045   7.092   1.869
   34ARHM    H121024   5.139   7.120   1.921
   34ARHM    C521025   4.921   6.904   1.789
   34ARHM    H521026   4.917   6.945   1.686
   34ARHM    O521027   5.041   6.949   1.854
   34ARHM    C221028   4.927   7.139   1.951
   34ARHM    H221029   4.930   7.250   1.956
   34ARHM    O221030   4.927   7.086   2.085
   34ARHM    C321031   4.798   7.099   1.882
   34ARHM    H321032   4.796   7.144   1.780
   34ARHM    O321033   4.683   7.146   1.952
   34ARHM   HO321034   4.655   7.228   1.911
   34ARHM    C421035   4.797   6.948   1.867
   34ARHM    H421036   4.801   6.901   1.968
   34ARHM    O421037   4.679   6.903   1.801
   34ARHM   HO421038   4.604   6.933   1.853
   34ARHM    C621039   4.935   6.751   1.779
   34ARHM   H6121040   4.942   6.707   1.881
   34ARHM   H6221041   4.846   6.708   1.728
   34ARHM   H6321042   5.026   6.724   1.722
   35ARHM    C121043   5.028   7.133   2.171
   35ARHM    H121044   5.048   7.241   2.151
   35ARHM    C521045   5.131   6.918   2.181
   35ARHM    H521046   5.056   6.877   2.110
   35ARHM    O521047   5.149   7.058   2.158
   35ARHM    C221048   4.973   7.115   2.312
   35ARHM    H221049   4.874   7.166   2.316
   35ARHM    O221050   5.055   7.169   2.417
   35ARHM    C321051   4.951   6.968   2.340
   35ARHM    H321052   4.880   6.928   2.265
   35ARHM    O321053   4.891   6.947   2.468
   35ARHM   HO321054   4.935   7.003   2.532
   35ARHM    C421055   5.083   6.896   2.324
   35ARHM    H421056   5.157   6.940   2.394
   35ARHM    O421057   5.071   6.757   2.355
   35ARHM   HO421058   5.005   6.749   2.424
   35ARHM    C621059   5.266   6.851   2.149
   35ARHM   H6121060   5.293   6.871   2.043
   35ARHM   H6221061   5.347   6.893   2.214
   35ARHM   H6321062   5.261   6.742   2.164
   36BMANN   C121063   5.074   7.309   2.412
   36BMANN   H121064   4.987   7.357   2.363
   36BMANN   C521065   5.213   7.486   2.336
   36BMANN   H521066   5.122   7.527   2.286
   36BMANN   O521067   5.195   7.343   2.344
   36BMANN   C221068   5.085   7.359   2.555
   36BMANN   H221069   4.988   7.334   2.603
   36BMANN    N21070   5.190   7.292   2.631
   36BMANN   HN21071   5.267   7.256   2.578
   36BMANN    C21072   5.189   7.280   2.764
   36BMANN    O21073   5.095   7.323   2.831
   36BMANN   CT21074   5.307   7.212   2.829
   36BMANN  HT121075   5.394   7.213   2.760
   36BMANN  HT221076   5.281   7.107   2.854
   36BMANN  HT321077   5.333   7.266   2.922
   36BMANN   C321078   5.097   7.510   2.551
   36BMANN   H321079   5.011   7.552   2.495
   36BMANN   O321080   5.091   7.566   2.682
   36BMANN  HO321081   5.120   7.501   2.746
   36BMANN   C421082   5.223   7.548   2.474
   36BMANN   H421083   5.313   7.510   2.527
   36BMANN   O421084   5.235   7.689   2.459
   36BMANN  HO421085   5.258   7.731   2.542
   36BMANN   C621086   5.330   7.519   2.244
   36BMANN  H6121087   5.323   7.456   2.152
   36BMANN  H6221088   5.322   7.625   2.212
   36BMANN   O621089   5.458   7.500   2.304
   36BMANN  HO621090   5.477   7.575   2.361
    1ECLIP HB6S21091   1.498   1.533  11.855
    1ECLIP  OB621092   1.385   1.666  11.965
    1ECLIP  CB621093   1.391   1.560  11.867
    1ECLIP HB6R21094   1.338   1.470  11.905
    1ECLIP  CB521095   1.336   1.590  11.728
    1ECLIP  OB521096   1.398   1.707  11.673
    1ECLIP  HB521097   1.227   1.608  11.739
    1ECLIP  CB121098   1.342   1.745  11.546
    1ECLIP  HB121099   1.233   1.758  11.560
    1ECLIP  OA621100   1.389   1.868  11.500
    1ECLIP  CA621101   1.530   1.888  11.518
    1ECLIP HA6R21102   1.584   1.792  11.537
    1ECLIP HA6S21103   1.546   1.955  11.605
    1ECLIP  CB421104   1.361   1.477  11.626
    1ECLIP  HB421105   1.470   1.473  11.607
    1ECLIP  OB421106   1.310   1.355  11.683
    1ECLIP   PB21107   1.416   1.232  11.720
    1ECLIP OPB421108   1.358   1.152  11.836
    1ECLIP OPB321109   1.548   1.299  11.760
    1ECLIP OPB221110   1.438   1.150  11.595
    1ECLIP  CB321111   1.297   1.511  11.491
    1ECLIP  OB321112   1.323   1.403  11.402
    1ECLIP  HB321113   1.188   1.532  11.504
    1ECLIP  C7121114   1.231   1.308  11.388
    1ECLIP  O7121115   1.116   1.315  11.433
    1ECLIP  C7221116   1.255   1.231  11.258
    1ECLIP H72R21117   1.221   1.294  11.173
    1ECLIP H72S21118   1.190   1.141  11.262
    1ECLIP  CB221119   1.362   1.639  11.438
    1ECLIP  HB221120   1.471   1.620  11.428
    1ECLIP  NB221121   1.322   1.695  11.308
    1ECLIP HNB221122   1.338   1.794  11.306
    1ECLIP  CA421123   1.511   2.067  11.337
    1ECLIP  HA421124   1.411   2.025  11.314
    1ECLIP  OA421125   1.499   2.170  11.436
    1ECLIP HOA421126   1.556   2.245  11.415
    1ECLIP  CA521127   1.590   1.951  11.394
    1ECLIP  HA521128   1.693   1.983  11.418
    1ECLIP  OA521129   1.591   1.847  11.295
    1ECLIP  CA121130   1.660   1.884  11.175
    1ECLIP  HA121131   1.658   1.799  11.103
    1ECLIP  OA121132   1.793   1.920  11.207
    1ECLIP OPA221133   2.013   1.856  11.315
    1ECLIP OPA321134   1.835   1.678  11.288
    1ECLIP OPA421135   1.952   1.773  11.083
    1ECLIP   PA21136   1.904   1.800  11.225
    1ECLIP  CA321137   1.571   2.116  11.208
    1ECLIP  HA321138   1.672   2.157  11.229
    1ECLIP  OA321139   1.490   2.221  11.152
    1ECLIP  C3121140   1.363   2.201  11.108
    1ECLIP  O3121141   1.326   2.243  10.999
    1ECLIP  C3221142   1.262   2.231  11.222
    1ECLIP H32R21143   1.219   2.329  11.193
    1ECLIP H32S21144   1.315   2.252  11.317
    1ECLIP  CA221145   1.584   1.999  11.109
    1ECLIP  HA221146   1.483   1.963  11.081
    1ECLIP  NA221147   1.655   2.043  10.990
    1ECLIP HNA221148   1.724   2.111  11.012
    1ECLIP  C7321149   1.400   1.187  11.233
    1ECLIP H73R21150   1.431   1.127  11.321
    1ECLIP  O7321151   1.484   1.301  11.214
    1ECLIP  C8121152   1.612   1.284  11.245
    1ECLIP  O8121153   1.660   1.179  11.288
    1ECLIP  C8221154   1.696   1.396  11.188
    1ECLIP H82R21155   1.796   1.390  11.235
    1ECLIP H82S21156   1.652   1.494  11.216
    1ECLIP  C8321157   1.712   1.386  11.035
    1ECLIP H83R21158   1.618   1.420  10.988
    1ECLIP H83S21159   1.732   1.281  11.003
    1ECLIP  C8421160   1.827   1.474  10.985
    1ECLIP H84R21161   1.925   1.428  11.008
    1ECLIP H84S21162   1.823   1.570  11.041
    1ECLIP  C8521163   1.815   1.506  10.836
    1ECLIP H85R21164   1.722   1.566  10.824
    1ECLIP H85S21165   1.805   1.412  10.778
    1ECLIP  C8621166   1.932   1.590  10.782
    1ECLIP H86R21167   2.022   1.526  10.772
    1ECLIP H86S21168   1.956   1.669  10.856
    1ECLIP  C8721169   1.899   1.659  10.648
    1ECLIP H87R21170   1.993   1.699  10.604
    1ECLIP H87S21171   1.833   1.745  10.669
    1ECLIP  C8821172   1.827   1.566  10.549
    1ECLIP H88R21173   1.728   1.540  10.593
    1ECLIP H88S21174   1.885   1.471  10.538
    1ECLIP  C8921175   1.802   1.628  10.411
    1ECLIP H89R21176   1.775   1.736  10.423
    1ECLIP H89S21177   1.715   1.576  10.367
    1ECLIP C81021178   1.922   1.613  10.317
    1ECLIPH810R21179   1.964   1.511  10.329
    1ECLIPH810S21180   2.001   1.684  10.349
    1ECLIP C81121181   1.886   1.638  10.170
    1ECLIPH811R21182   1.980   1.651  10.111
    1ECLIPH811S21183   1.831   1.735  10.168
    1ECLIP C81221184   1.799   1.530  10.104
    1ECLIPH812R21185   1.766   1.566  10.005
    1ECLIPH812S21186   1.709   1.512  10.165
    1ECLIP C81321187   1.872   1.396  10.084
    1ECLIPH813R21188   1.959   1.412  10.017
    1ECLIPH813S21189   1.911   1.361  10.182
    1ECLIP C81421190   1.782   1.286  10.027
    1ECLIPH814R21191   1.740   1.317   9.928
    1ECLIPH814S21192   1.697   1.266  10.096
    1ECLIPH814T21193   1.839   1.192  10.013
    1ECLIP  C7421194   1.410   1.099  11.105
    1ECLIP H74R21195   1.336   1.016  11.110
    1ECLIP H74S21196   1.511   1.052  11.109
    1ECLIP  C7521197   1.400   1.171  10.968
    1ECLIP H75R21198   1.463   1.114  10.896
    1ECLIP H75S21199   1.445   1.272  10.975
    1ECLIP  C7621200   1.260   1.182  10.904
    1ECLIP H76R21201   1.198   1.254  10.963
    1ECLIP H76S21202   1.211   1.083  10.907
    1ECLIP  C7721203   1.266   1.231  10.758
    1ECLIP H77R21204   1.337   1.165  10.703
    1ECLIP H77S21205   1.308   1.333  10.756
    1ECLIP  C7821206   1.130   1.230  10.685
    1ECLIP H78R21207   1.095   1.125  10.678
    1ECLIP H78S21208   1.057   1.286  10.747
    1ECLIP  C7921209   1.132   1.293  10.544
    1ECLIP H79R21210   1.144   1.403  10.555
    1ECLIP H79S21211   1.034   1.275  10.496
    1ECLIP C71021212   1.245   1.241  10.453
    1ECLIPH710R21213   1.342   1.269  10.498
    1ECLIPH710S21214   1.240   1.130  10.447
    1ECLIP C71121215   1.240   1.301  10.311
    1ECLIPH711R21216   1.146   1.269  10.261
    1ECLIPH711S21217   1.238   1.411  10.319
    1ECLIP C71221218   1.361   1.260  10.227
    1ECLIPH712R21219   1.357   1.151  10.207
    1ECLIPH712S21220   1.453   1.280  10.286
    1ECLIP C71321221   1.374   1.336  10.094
    1ECLIPH713R21222   1.394   1.442  10.116
    1ECLIPH713S21223   1.463   1.297  10.040
    1ECLIP C71421224   1.250   1.327  10.004
    1ECLIPH714R21225   1.219   1.221   9.990
    1ECLIPH714S21226   1.166   1.384  10.049
    1ECLIPH714T21227   1.272   1.371   9.904
    1ECLIP  C5121228   1.281   1.639  11.191
    1ECLIP  O5121229   1.257   1.521  11.176
    1ECLIP  C5221230   1.246   1.733  11.077
    1ECLIP H52R21231   1.141   1.708  11.051
    1ECLIP H52S21232   1.249   1.837  11.115
    1ECLIP  C5321233   1.330   1.725  10.946
    1ECLIP H53R21234   1.425   1.781  10.960
    1ECLIP  O5321235   1.247   1.779  10.842
    1ECLIP  C6121236   1.271   1.907  10.814
    1ECLIP  O6121237   1.317   1.987  10.893
    1ECLIP  C6221238   1.182   1.948  10.696
    1ECLIP H62R21239   1.097   2.007  10.738
    1ECLIP H62S21240   1.142   1.857  10.647
    1ECLIP  C6321241   1.261   2.035  10.595
    1ECLIP H63R21242   1.352   1.980  10.562
    1ECLIP H63S21243   1.295   2.127  10.647
    1ECLIP  C6421244   1.181   2.076  10.470
    1ECLIP H64R21245   1.236   2.157  10.418
    1ECLIP H64S21246   1.083   2.118  10.502
    1ECLIP  C6521247   1.156   1.961  10.372
    1ECLIP H65R21248   1.124   1.871  10.428
    1ECLIP H65S21249   1.253   1.936  10.323
    1ECLIP  C6621250   1.051   1.992  10.264
    1ECLIP H66R21251   0.954   2.012  10.313
    1ECLIP H66S21252   1.040   1.903  10.199
    1ECLIP  C6721253   1.088   2.111  10.175
    1ECLIP H67R21254   1.089   2.204  10.236
    1ECLIP H67S21255   1.010   2.122  10.097
    1ECLIP  C6821256   1.225   2.097  10.109
    1ECLIP H68R21257   1.238   1.992  10.073
    1ECLIP H68S21258   1.306   2.117  10.183
    1ECLIP  C6921259   1.241   2.191   9.990
    1ECLIP H69R21260   1.226   2.296  10.022
    1ECLIP H69S21261   1.160   2.165   9.917
    1ECLIP C61021262   1.377   2.176   9.923
    1ECLIPH610R21263   1.397   2.069   9.905
    1ECLIPH610S21264   1.455   2.212   9.993
    1ECLIP C61121265   1.390   2.255   9.792
    1ECLIPH611R21266   1.385   2.362   9.820
    1ECLIPH611S21267   1.490   2.236   9.749
    1ECLIP C61221268   1.282   2.227   9.686
    1ECLIPH612R21269   1.275   2.118   9.666
    1ECLIPH612S21270   1.182   2.263   9.722
    1ECLIPH612T21271   1.306   2.279   9.592
    1ECLIP  C5421272   1.367   1.584  10.896
    1ECLIP H54R21273   1.275   1.523  10.883
    1ECLIP H54S21274   1.429   1.537  10.975
    1ECLIP  C5521275   1.451   1.583  10.764
    1ECLIP H55R21276   1.500   1.484  10.754
    1ECLIP H55S21277   1.532   1.658  10.774
    1ECLIP  C5621278   1.373   1.611  10.634
    1ECLIP H56R21279   1.327   1.712  10.641
    1ECLIP H56S21280   1.291   1.537  10.622
    1ECLIP  C5721281   1.459   1.616  10.506
    1ECLIP H57R21282   1.497   1.514  10.482
    1ECLIP H57S21283   1.546   1.682  10.525
    1ECLIP  C5821284   1.379   1.673  10.388
    1ECLIP H58R21285   1.287   1.612  10.375
    1ECLIP H58S21286   1.347   1.775  10.416
    1ECLIP  C5921287   1.454   1.680  10.255
    1ECLIP H59R21288   1.505   1.582  10.238
    1ECLIP H59S21289   1.534   1.757  10.261
    1ECLIP C51021290   1.361   1.709  10.136
    1ECLIPH510R21291   1.310   1.806  10.153
    1ECLIPH510S21292   1.282   1.631  10.133
    1ECLIP C51121293   1.432   1.713  10.000
    1ECLIPH511R21294   1.486   1.810   9.990
    1ECLIPH511S21295   1.509   1.632   9.999
    1ECLIP C51221296   1.339   1.692   9.879
    1ECLIPH512R21297   1.400   1.693   9.787
    1ECLIPH512S21298   1.292   1.591   9.888
    1ECLIP C51321299   1.227   1.796   9.867
    1ECLIPH513R21300   1.274   1.897   9.860
    1ECLIPH513S21301   1.166   1.795   9.960
    1ECLIP C51421302   1.136   1.775   9.746
    1ECLIPH514R21303   1.084   1.677   9.754
    1ECLIPH514S21304   1.061   1.856   9.742
    1ECLIPH514T21305   1.195   1.776   9.652
    1ECLIP  C3321306   1.142   2.133  11.241
    1ECLIP H33R21307   1.062   2.186  11.297
    1ECLIP  O3321308   1.181   2.023  11.321
    1ECLIP HO3321309   1.239   2.046  11.394
    1ECLIP  C3421310   1.086   2.077  11.109
    1ECLIP H34R21311   1.169   2.021  11.062
    1ECLIP H34S21312   1.060   2.159  11.039
    1ECLIP  C3521313   0.967   1.977  11.121
    1ECLIP H35R21314   0.876   2.030  11.156
    1ECLIP H35S21315   0.995   1.904  11.200
    1ECLIP  C3621316   0.941   1.899  10.991
    1ECLIP H36R21317   1.040   1.877  10.947
    1ECLIP H36S21318   0.887   1.963  10.917
    1ECLIP  C3721319   0.870   1.764  11.010
    1ECLIP H37R21320   0.761   1.780  11.025
    1ECLIP H37S21321   0.910   1.718  11.104
    1ECLIP  C3821322   0.896   1.662  10.896
    1ECLIP H38R21323   1.004   1.639  10.895
    1ECLIP H38S21324   0.842   1.568  10.919
    1ECLIP  C3921325   0.857   1.712  10.756
    1ECLIP H39R21326   0.915   1.804  10.735
    1ECLIP H39S21327   0.749   1.737  10.754
    1ECLIP C31021328   0.886   1.610  10.645
    1ECLIPH310R21329   0.812   1.527  10.650
    1ECLIPH310S21330   0.987   1.566  10.662
    1ECLIP C31121331   0.884   1.675  10.506
    1ECLIPH311R21332   0.790   1.733  10.494
    1ECLIPH311S21333   0.968   1.747  10.502
    1ECLIP C31221334   0.897   1.576  10.389
    1ECLIPH312R21335   0.979   1.504  10.411
    1ECLIPH312S21336   0.803   1.518  10.380
    1ECLIP C31321337   0.929   1.647  10.257
    1ECLIPH313R21338   0.857   1.731  10.242
    1ECLIPH313S21339   1.031   1.692  10.267
    1ECLIP C31421340   0.926   1.556  10.135
    1ECLIPH314R21341   0.824   1.517  10.117
    1ECLIPH314S21342   0.961   1.610  10.045
    1ECLIPH314T21343   0.994   1.469  10.151
    1ECLIP  C1121344   1.654   1.991  10.866
    1ECLIP  O1121345   1.577   1.905  10.825
    1ECLIP  C1221346   1.763   2.046  10.777
    1ECLIP H12R21347   1.856   1.990  10.800
    1ECLIP H12S21348   1.776   2.153  10.804
    1ECLIP  C1321349   1.732   2.037  10.627
    1ECLIP H13R21350   1.707   1.933  10.599
    1ECLIP  O1321351   1.849   2.076  10.558
    1ECLIP HO1321352   1.875   2.166  10.578
    1ECLIP  C1421353   1.619   2.133  10.582
    1ECLIP H14R21354   1.638   2.231  10.629
    1ECLIP H14S21355   1.523   2.095  10.624
    1ECLIP  C1521356   1.606   2.155  10.429
    1ECLIP H15R21357   1.701   2.201  10.395
    1ECLIP H15S21358   1.525   2.230  10.410
    1ECLIP  C1621359   1.578   2.029  10.346
    1ECLIP H16R21360   1.471   2.001  10.360
    1ECLIP H16S21361   1.639   1.945  10.384
    1ECLIP  C1721362   1.609   2.046  10.196
    1ECLIP H17R21363   1.567   2.143  10.162
    1ECLIP H17S21364   1.559   1.964  10.140
    1ECLIP  C1821365   1.760   2.041  10.166
    1ECLIP H18R21366   1.808   2.126  10.220
    1ECLIP H18S21367   1.802   1.949  10.210
    1ECLIP  C1921368   1.799   2.050  10.017
    1ECLIP H19R21369   1.909   2.061  10.014
    1ECLIP H19S21370   1.754   2.140   9.971
    1ECLIP C11021371   1.762   1.925   9.935
    1ECLIPH110R21372   1.781   1.835   9.998
    1ECLIPH110S21373   1.653   1.926   9.912
    1ECLIP C11121374   1.843   1.910   9.806
    1ECLIPH111R21375   1.810   1.988   9.734
    1ECLIPH111S21376   1.950   1.928   9.828
    1ECLIP C11221377   1.829   1.770   9.744
    1ECLIPH112R21378   1.877   1.695   9.810
    1ECLIPH112S21379   1.721   1.744   9.739
    1ECLIP C11321380   1.888   1.761   9.603
    1ECLIPH113R21381   1.859   1.852   9.546
    1ECLIPH113S21382   1.999   1.761   9.611
    1ECLIP C11421383   1.843   1.637   9.525
    1ECLIPH114R21384   1.874   1.545   9.578
    1ECLIPH114S21385   1.732   1.637   9.514
    1ECLIPH114T21386   1.889   1.637   9.423
    2AKDO    C121387   1.162   1.628  12.044
    2AKDO   O1121388   1.108   1.514  12.039
    2AKDO   O1221389   1.101   1.739  12.043
    2AKDO    C221390   1.314   1.633  12.084
    2AKDO    C621391   1.495   1.503  12.178
    2AKDO    H621392   1.553   1.532  12.088
    2AKDO    O621393   1.355   1.508  12.144
    2AKDO    C321394   1.348   1.741  12.189
    2AKDO   H3121395   1.285   1.724  12.279
    2AKDO   H3221396   1.323   1.840  12.145
    2AKDO    C421397   1.494   1.740  12.227
    2AKDO    H421398   1.554   1.759  12.136
    2AKDO    O421399   1.520   1.837  12.328
    2AKDO    C521400   1.536   1.606  12.286
    2AKDO    H521401   1.647   1.608  12.289
    2AKDO    O521402   1.489   1.587  12.423
    2AKDO    C721403   1.523   1.355  12.201
    2AKDO    H721404   1.454   1.316  12.279
    2AKDO    O721405   1.659   1.331  12.242
    2AKDO   HO721406   1.716   1.385  12.188
    2AKDO    C821407   1.494   1.284  12.071
    2AKDO   H8121408   1.392   1.310  12.036
    2AKDO   H8221409   1.565   1.321  11.994
    2AKDO    O821410   1.498   1.141  12.072
    2AKDO   HO821411   1.447   1.122  11.993
    3AKDO    C121412   1.671   1.983  12.188
    3AKDO   O1121413   1.689   2.102  12.150
    3AKDO   O1221414   1.754   1.888  12.184
    3AKDO    C221415   1.555   1.969  12.293
    3AKDO    C621416   1.333   2.047  12.346
    3AKDO    H621417   1.301   1.942  12.362
    3AKDO    O621418   1.441   2.048  12.251
    3AKDO    C321419   1.604   2.022  12.428
    3AKDO   H3121420   1.644   2.125  12.414
    3AKDO   H3221421   1.690   1.959  12.460
    3AKDO    C421422   1.496   2.020  12.531
    3AKDO    H421423   1.461   1.916  12.547
    3AKDO    O421424   1.549   2.066  12.655
    3AKDO   HO421425   1.638   2.030  12.661
    3AKDO    C521426   1.381   2.104  12.479
    3AKDO    H521427   1.297   2.097  12.551
    3AKDO    O521428   1.418   2.242  12.465
    3AKDO   HO521429   1.481   2.244  12.393
    3AKDO    C721430   1.215   2.125  12.291
    3AKDO    H721431   1.240   2.233  12.289
    3AKDO    O721432   1.100   2.103  12.375
    3AKDO   HO721433   1.029   2.123  12.313
    3AKDO    C821434   1.176   2.085  12.150
    3AKDO   H8121435   1.263   2.095  12.081
    3AKDO   H8221436   1.142   1.979  12.146
    3AKDO    O821437   1.069   2.171  12.105
    3AKDO   HO821438   1.099   2.218  12.027
    4AHEP    C121439   1.566   1.497  12.502
    4AHEP    H121440   1.549   1.395  12.460
    4AHEP    C521441   1.751   1.637  12.570
    4AHEP    H521442   1.697   1.722  12.522
    4AHEP    O521443   1.708   1.516  12.504
    4AHEP    C221444   1.518   1.491  12.647
    4AHEP    H221445   1.407   1.489  12.643
    4AHEP    O221446   1.563   1.371  12.712
    4AHEP   HO221447   1.658   1.372  12.697
    4AHEP    C321448   1.559   1.616  12.724
    4AHEP    H321449   1.512   1.704  12.677
    4AHEP    O321450   1.518   1.601  12.862
    4AHEP    C421451   1.710   1.631  12.719
    4AHEP    H421452   1.754   1.539  12.764
    4AHEP    O421453   1.748   1.747  12.795
    4AHEP    P421454   1.887   1.754  12.886
    4AHEP  OP4221455   1.861   1.823  13.018
    4AHEP  OP4321456   1.989   1.835  12.808
    4AHEP  OP4421457   1.945   1.614  12.903
    4AHEP    C621458   1.901   1.663  12.545
    4AHEP    H621459   1.922   1.767  12.579
    4AHEP    O621460   1.980   1.572  12.623
    4AHEP   HO621461   1.978   1.614  12.710
    4AHEP    C721462   1.944   1.658  12.398
    4AHEP   H7121463   2.049   1.692  12.391
    4AHEP   H7221464   1.882   1.732  12.341
    4AHEP    O721465   1.934   1.532  12.331
    4AHEP   HO721466   1.953   1.554  12.239
    5AHEP    C121467   1.417   1.688  12.906
    5AHEP    H121468   1.427   1.787  12.857
    5AHEP    C521469   1.267   1.505  12.945
    5AHEP    H521470   1.343   1.436  12.904
    5AHEP    O521471   1.285   1.635  12.884
    5AHEP    C221472   1.437   1.706  13.056
    5AHEP    H221473   1.542   1.738  13.072
    5AHEP    O221474   1.353   1.809  13.110
    5AHEP   HO221475   1.395   1.894  13.094
    5AHEP    C321476   1.420   1.572  13.127
    5AHEP    H321477   1.499   1.503  13.089
    5AHEP    O321478   1.430   1.585  13.270
    5AHEP    C421479   1.284   1.514  13.097
    5AHEP    H421480   1.204   1.574  13.144
    5AHEP    O421481   1.286   1.379  13.143
    5AHEP    P421482   1.198   1.310  13.261
    5AHEP  OP4221483   1.254   1.168  13.267
    5AHEP  OP4321484   1.057   1.289  13.208
    5AHEP  OP4421485   1.210   1.387  13.391
    5AHEP    C621486   1.129   1.457  12.903
    5AHEP    H621487   1.108   1.362  12.957
    5AHEP    O621488   1.029   1.551  12.943
    5AHEP   HO621489   1.082   1.629  12.961
    5AHEP    C721490   1.123   1.431  12.753
    5AHEP   H7121491   1.091   1.325  12.738
    5AHEP   H7221492   1.224   1.436  12.707
    5AHEP    O721493   1.029   1.512  12.680
    6AHEP    C121494   1.086   1.623  12.613
    6AHEP    H121495   1.197   1.626  12.621
    6AHEP    C521496   0.906   1.610  12.456
    6AHEP    H521497   0.872   1.518  12.509
    6AHEP    O521498   1.049   1.620  12.474
    6AHEP    C221499   1.028   1.749  12.675
    6AHEP    H221500   1.056   1.750  12.783
    6AHEP    O221501   1.079   1.870  12.619
    6AHEP   HO221502   1.091   1.862  12.524
    6AHEP    C321503   0.877   1.741  12.665
    6AHEP    H321504   0.844   1.648  12.716
    6AHEP    O321505   0.813   1.849  12.732
    6AHEP   HO321506   0.854   1.929  12.699
    6AHEP    C421507   0.838   1.731  12.518
    6AHEP    H421508   0.870   1.822  12.465
    6AHEP    O421509   0.696   1.718  12.504
    6AHEP   HO421510   0.674   1.625  12.498
    6AHEP    C621511   0.866   1.589  12.310
    6AHEP    H621512   0.755   1.590  12.301
    6AHEP    O621513   0.912   1.700  12.233
    6AHEP   HO621514   0.994   1.678  12.187
    6AHEP    C721515   0.911   1.455  12.254
    6AHEP   H7121516   0.890   1.451  12.145
    6AHEP   H7221517   0.849   1.376  12.302
    6AHEP    O721518   1.047   1.419  12.277
    6AHEP   HO721519   1.097   1.459  12.205
    7AGLC    C121520   1.554   1.550  13.324
    7AGLC    H121521   1.591   1.456  13.278
    7AGLC    C521522   1.609   1.780  13.360
    7AGLC    H521523   1.510   1.808  13.319
    7AGLC    O521524   1.651   1.654  13.304
    7AGLC    C221525   1.538   1.530  13.474
    7AGLC    H221526   1.638   1.504  13.514
    7AGLC    O221527   1.455   1.417  13.503
    7AGLC   HO221528   1.370   1.423  13.457
    7AGLC    C321529   1.493   1.657  13.543
    7AGLC    H321530   1.394   1.686  13.500
    7AGLC    O321531   1.483   1.642  13.687
    7AGLC    C421532   1.595   1.765  13.511
    7AGLC    H421533   1.693   1.732  13.551
    7AGLC    O421534   1.562   1.891  13.570
    7AGLC   HO421535   1.644   1.937  13.589
    7AGLC    C621536   1.708   1.887  13.317
    7AGLC   H6121537   1.713   1.887  13.206
    7AGLC   H6221538   1.672   1.987  13.348
    7AGLC    O621539   1.839   1.865  13.369
    7AGLC   HO621540   1.893   1.839  13.295
    8AGLC    C121541   1.354   1.664  13.740
    8AGLC    H121542   1.307   1.750  13.689
    8AGLC    C521543   1.320   1.431  13.788
    8AGLC    H521544   1.424   1.412  13.752
    8AGLC    O521545   1.270   1.549  13.723
    8AGLC    C221546   1.361   1.691  13.890
    8AGLC    H221547   1.257   1.710  13.925
    8AGLC    O221548   1.441   1.804  13.925
    8AGLC    C321549   1.415   1.572  13.966
    8AGLC    H321550   1.516   1.549  13.924
    8AGLC    O321551   1.436   1.610  14.105
    8AGLC    C421552   1.326   1.452  13.939
    8AGLC    H421553   1.223   1.472  13.973
    8AGLC    O421554   1.373   1.335  14.006
    8AGLC   HO421555   1.375   1.262  13.943
    8AGLC    C621556   1.235   1.314  13.741
    8AGLC   H6121557   1.214   1.327  13.633
    8AGLC   H6221558   1.292   1.219  13.751
    8AGLC    O621559   1.111   1.301  13.813
    8AGLC   HO621560   1.051   1.250  13.758
    9AGAL    C121561   1.409   1.930  13.872
    9AGAL    H121562   1.408   1.927  13.761
    9AGAL    C521563   1.275   1.982  14.062
    9AGAL    H521564   1.303   1.882  14.101
    9AGAL    O521565   1.281   1.977  13.919
    9AGAL    C221566   1.521   2.021  13.918
    9AGAL    H221567   1.505   2.122  13.876
    9AGAL    O221568   1.639   1.965  13.856
    9AGAL    C321569   1.517   2.031  14.071
    9AGAL    H321570   1.530   1.928  14.112
    9AGAL    O321571   1.621   2.110  14.127
    9AGAL   HO321572   1.703   2.064  14.107
    9AGAL    C421573   1.380   2.081  14.115
    9AGAL    H421574   1.378   2.079  14.226
    9AGAL    O421575   1.352   2.216  14.077
    9AGAL   HO421576   1.313   2.213  13.989
    9AGAL    C621577   1.132   2.003  14.108
    9AGAL   H6121578   1.069   1.920  14.069
    9AGAL   H6221579   1.128   1.998  14.219
    9AGAL    O621580   1.074   2.126  14.066
    9AGAL   HO621581   1.055   2.122  13.972
   10AGAL    C121582   1.768   1.988  13.906
   10AGAL    H121583   1.783   2.098  13.918
   10AGAL    C521584   1.773   1.778  14.019
   10AGAL    H521585   1.676   1.756  13.969
   10AGAL    O521586   1.786   1.922  14.033
   10AGAL    C221587   1.874   1.938  13.807
   10AGAL    H221588   1.974   1.966  13.847
   10AGAL    O221589   1.858   2.001  13.680
   10AGAL   HO221590   1.934   1.985  13.624
   10AGAL    C321591   1.866   1.787  13.793
   10AGAL    H321592   1.766   1.760  13.755
   10AGAL    O321593   1.963   1.736  13.701
   10AGAL   HO321594   1.929   1.739  13.611
   10AGAL    C421595   1.882   1.722  13.930
   10AGAL    H421596   1.868   1.613  13.918
   10AGAL    O421597   2.010   1.745  13.989
   10AGAL   HO421598   2.078   1.732  13.923
   10AGAL    C621599   1.763   1.710  14.155
   10AGAL   H6121600   1.669   1.743  14.205
   10AGAL   H6221601   1.756   1.600  14.141
   10AGAL    O621602   1.875   1.740  14.239
   10AGAL   HO621603   1.951   1.732  14.181
   11BGLC    C121604   1.339   1.579  14.202
   11BGLC    H121605   1.341   1.470  14.223
   11BGLC    C521606   1.105   1.591  14.255
   11BGLC    H521607   1.113   1.485  14.284
   11BGLC    O521608   1.208   1.620  14.158
   11BGLC    C221609   1.373   1.657  14.329
   11BGLC    H221610   1.375   1.765  14.300
   11BGLC    O221611   1.501   1.624  14.383
   11BGLC   HO221612   1.557   1.702  14.390
   11BGLC    C321613   1.268   1.636  14.435
   11BGLC    H321614   1.267   1.528  14.461
   11BGLC    O321615   1.291   1.715  14.553
   11BGLC    C421616   1.133   1.674  14.380
   11BGLC    H421617   1.133   1.781  14.352
   11BGLC    O421618   1.033   1.653  14.479
   11BGLC   HO421619   1.077   1.629  14.561
   11BGLC    C621620   0.970   1.615  14.189
   11BGLC   H6121621   0.902   1.667  14.260
   11BGLC   H6221622   0.981   1.680  14.100
   11BGLC    O621623   0.907   1.491  14.151
   11BGLC   HO621624   0.894   1.489  14.056
   12BGLCN   C121625   1.327   1.644  14.668
   12BGLCN   H121626   1.425   1.593  14.652
   12BGLCN   C521627   1.256   1.475  14.821
   12BGLCN   H521628   1.356   1.428  14.809
   12BGLCN   O521629   1.225   1.548  14.701
   12BGLCN   C221630   1.336   1.747  14.780
   12BGLCN   H221631   1.236   1.794  14.789
   12BGLCN    N21632   1.433   1.849  14.742
   12BGLCN   HN21633   1.511   1.819  14.687
   12BGLCN    C21634   1.422   1.980  14.765
   12BGLCN    O21635   1.329   2.029  14.828
   12BGLCN   CT21636   1.533   2.065  14.712
   12BGLCN  HT121637   1.568   2.136  14.790
   12BGLCN  HT221638   1.498   2.122  14.623
   12BGLCN  HT321639   1.619   2.002  14.680
   12BGLCN   C321640   1.369   1.678  14.913
   12BGLCN   H321641   1.470   1.633  14.907
   12BGLCN   O321642   1.364   1.776  15.020
   12BGLCN   C421643   1.263   1.572  14.938
   12BGLCN   H421644   1.164   1.621  14.950
   12BGLCN   O421645   1.290   1.497  15.057
   12BGLCN  HO421646   1.308   1.406  15.035
   12BGLCN   C621647   1.151   1.367  14.834
   12BGLCN  H6121648   1.135   1.340  14.941
   12BGLCN  H6221649   1.053   1.402  14.795
   12BGLCN   O621650   1.191   1.247  14.767
   12BGLCN  HO621651   1.169   1.252  14.674
   13AGAL    C121652   1.446   1.754  15.134
   13AGAL    H121653   1.447   1.646  15.162
   13AGAL    C521654   1.592   1.936  15.081
   13AGAL    H521655   1.526   1.957  14.995
   13AGAL    O521656   1.582   1.796  15.111
   13AGAL    C221657   1.396   1.833  15.255
   13AGAL    H221658   1.475   1.821  15.332
   13AGAL    O221659   1.275   1.781  15.315
   13AGAL    C321660   1.395   1.981  15.223
   13AGAL    H321661   1.336   1.996  15.130
   13AGAL    O321662   1.333   2.059  15.324
   13AGAL   HO321663   1.279   2.127  15.283
   13AGAL    C421664   1.540   2.023  15.196
   13AGAL    H421665   1.539   2.129  15.162
   13AGAL    O421666   1.623   2.016  15.312
   13AGAL   HO421667   1.635   1.924  15.338
   13AGAL    C621668   1.733   1.970  15.035
   13AGAL   H6121669   1.762   1.903  14.951
   13AGAL   H6221670   1.736   2.074  14.995
   13AGAL    O621671   1.831   1.959  15.138
   13AGAL   HO621672   1.798   2.008  15.214
   14ARHM    C121673   1.291   1.728  15.446
   14ARHM    H121674   1.389   1.676  15.452
   14ARHM    C521675   1.062   1.672  15.485
   14ARHM    H521676   1.032   1.714  15.386
   14ARHM    O521677   1.197   1.624  15.476
   14ARHM    C221678   1.287   1.837  15.552
   14ARHM    H221679   1.358   1.917  15.524
   14ARHM    O221680   1.320   1.796  15.686
   14ARHM    C321681   1.147   1.894  15.560
   14ARHM    H321682   1.120   1.936  15.460
   14ARHM    O321683   1.140   2.001  15.656
   14ARHM   HO321684   1.151   1.959  15.742
   14ARHM    C421685   1.049   1.781  15.591
   14ARHM    H421686   1.079   1.736  15.689
   14ARHM    O421687   0.914   1.826  15.604
   14ARHM   HO421688   0.863   1.764  15.657
   14ARHM    C621689   0.978   1.546  15.514
   14ARHM   H6121690   0.997   1.469  15.436
   14ARHM   H6221691   1.007   1.503  15.612
   14ARHM   H6321692   0.870   1.570  15.516
   15ARHM    C121693   1.444   1.734  15.708
   15ARHM    H121694   1.521   1.774  15.639
   15ARHM    C521695   1.331   1.536  15.779
   15ARHM    H521696   1.233   1.580  15.750
   15ARHM    O521697   1.434   1.591  15.696
   15ARHM    C221698   1.481   1.765  15.852
   15ARHM    H221699   1.489   1.876  15.863
   15ARHM    O221700   1.611   1.707  15.876
   15ARHM    C321701   1.373   1.714  15.944
   15ARHM    H321702   1.277   1.763  15.915
   15ARHM    O321703   1.402   1.750  16.079
   15ARHM    C421704   1.359   1.565  15.926
   15ARHM    H421705   1.455   1.516  15.955
   15ARHM    O421706   1.254   1.515  16.008
   15ARHM   HO421707   1.256   1.419  16.013
   15ARHM    C621708   1.323   1.385  15.747
   15ARHM   H6121709   1.241   1.337  15.803
   15ARHM   H6221710   1.305   1.371  15.639
   15ARHM   H6321711   1.419   1.335  15.773
   16BMANN   C121712   1.673   1.734  15.999
   16BMANN   H121713   1.624   1.676  16.079
   16BMANN   C521714   1.738   1.897  16.160
   16BMANN   H521715   1.682   1.840  16.238
   16BMANN   O521716   1.675   1.874  16.032
   16BMANN   C221717   1.815   1.687  15.984
   16BMANN   H221718   1.811   1.578  15.962
   16BMANN    N21719   1.880   1.756  15.873
   16BMANN   HN21720   1.864   1.855  15.868
   16BMANN    C21721   1.945   1.697  15.772
   16BMANN    O21722   1.961   1.576  15.766
   16BMANN   CT21723   1.998   1.788  15.665
   16BMANN  HT121724   2.097   1.751  15.630
   16BMANN  HT221725   2.010   1.891  15.704
   16BMANN  HT321726   1.927   1.789  15.579
   16BMANN   C321727   1.885   1.703  16.117
   16BMANN   H321728   1.829   1.646  16.194
   16BMANN   O321729   2.017   1.650  16.113
   16BMANN  HO321730   2.071   1.693  16.180
   16BMANN   C421731   1.883   1.850  16.157
   16BMANN   H421732   1.938   1.911  16.082
   16BMANN   O421733   1.944   1.869  16.285
   16BMANN  HO421734   2.039   1.871  16.276
   16BMANN   C621735   1.725   2.045  16.195
   16BMANN  H6121736   1.770   2.063  16.295
   16BMANN  H6221737   1.781   2.106  16.121
   16BMANN   O621738   1.589   2.090  16.200
   16BMANN  HO621739   1.565   2.123  16.113
   17BGLCN   C121740   1.292   1.790  16.156
   17BGLCN   H121741   1.204   1.724  16.137
   17BGLCN   C521742   1.150   1.973  16.213
   17BGLCN   H521743   1.060   1.910  16.195
   17BGLCN   O521744   1.258   1.927  16.131
   17BGLCN   C221745   1.338   1.776  16.299
   17BGLCN   H221746   1.417   1.853  16.314
   17BGLCN    N21747   1.402   1.647  16.323
   17BGLCN   HN21748   1.383   1.576  16.257
   17BGLCN    C21749   1.491   1.627  16.421
   17BGLCN    O21750   1.521   1.713  16.503
   17BGLCN   CT21751   1.553   1.490  16.427
   17BGLCN  HT121752   1.640   1.485  16.358
   17BGLCN  HT221753   1.479   1.412  16.399
   17BGLCN  HT321754   1.588   1.470  16.531
   17BGLCN   C321755   1.220   1.811  16.389
   17BGLCN   H321756   1.134   1.751  16.353
   17BGLCN   O321757   1.243   1.776  16.527
   17BGLCN   C421758   1.189   1.957  16.360
   17BGLCN   H421759   1.282   2.016  16.377
   17BGLCN   O421760   1.092   2.013  16.448
   17BGLCN  HO421761   1.005   1.974  16.437
   17BGLCN   C621762   1.117   2.116  16.172
   17BGLCN  H6121763   1.032   2.154  16.233
   17BGLCN  H6221764   1.205   2.180  16.192
   17BGLCN   O621765   1.082   2.127  16.033
   17BGLCN  HO621766   1.009   2.068  16.013
   18AGAL    C121767   1.128   1.732  16.599
   18AGAL    H121768   1.054   1.815  16.606
   18AGAL    C521769   1.148   1.501  16.532
   18AGAL    H521770   1.239   1.526  16.475
   18AGAL    O521771   1.064   1.619  16.536
   18AGAL    C221772   1.165   1.689  16.740
   18AGAL    H221773   1.070   1.652  16.784
   18AGAL    O221774   1.207   1.800  16.822
   18AGAL    C321775   1.264   1.573  16.736
   18AGAL    H321776   1.350   1.605  16.673
   18AGAL    O321777   1.318   1.536  16.863
   18AGAL   HO321778   1.411   1.512  16.852
   18AGAL    C421779   1.194   1.456  16.670
   18AGAL    H421780   1.268   1.374  16.656
   18AGAL    O421781   1.089   1.404  16.751
   18AGAL   HO421782   1.117   1.414  16.843
   18AGAL    C621783   1.078   1.391  16.453
   18AGAL   H6121784   1.092   1.411  16.345
   18AGAL   H6221785   1.125   1.293  16.474
   18AGAL    O621786   0.938   1.384  16.479
   18AGAL   HO621787   0.906   1.474  16.486
   19ARHM    C121788   1.168   1.785  16.956
   19ARHM    H121789   1.164   1.677  16.984
   19ARHM    C521790   1.030   1.980  16.963
   19ARHM    H521791   1.048   2.003  16.856
   19ARHM    O521792   1.038   1.839  16.985
   19ARHM    C221793   1.274   1.853  17.041
   19ARHM    H221794   1.373   1.819  17.003
   19ARHM    O221795   1.263   1.818  17.180
   19ARHM    C321796   1.271   2.002  17.018
   19ARHM    H321797   1.291   2.019  16.910
   19ARHM    O321798   1.374   2.070  17.089
   19ARHM   HO321799   1.340   2.101  17.174
   19ARHM    C421800   1.132   2.053  17.050
   19ARHM    H421801   1.109   2.028  17.155
   19ARHM    O421802   1.120   2.195  17.036
   19ARHM   HO421803   1.158   2.220  16.951
   19ARHM    C621804   0.885   2.018  16.998
   19ARHM   H6121805   0.814   1.963  16.932
   19ARHM   H6221806   0.863   1.991  17.104
   19ARHM   H6321807   0.868   2.127  16.987
   20ARHM    C121808   1.307   1.687  17.206
   20ARHM    H121809   1.373   1.651  17.125
   20ARHM    C521810   1.112   1.620  17.326
   20ARHM    H521811   1.066   1.720  17.311
   20ARHM    O521812   1.201   1.592  17.217
   20ARHM    C221813   1.386   1.689  17.335
   20ARHM    H221814   1.461   1.771  17.330
   20ARHM    O221815   1.453   1.564  17.357
   20ARHM    C321816   1.297   1.719  17.453
   20ARHM    H321817   1.253   1.821  17.439
   20ARHM    O321818   1.378   1.717  17.570
   20ARHM    C421819   1.187   1.616  17.458
   20ARHM    H421820   1.232   1.516  17.470
   20ARHM    O421821   1.099   1.637  17.568
   20ARHM   HO421822   1.016   1.592  17.549
   20ARHM    C621823   1.002   1.513  17.317
   20ARHM   H6121824   1.046   1.412  17.330
   20ARHM   H6221825   0.924   1.529  17.395
   20ARHM   H6321826   0.954   1.518  17.217
   21BMANN   C121827   1.567   1.547  17.277
   21BMANN   H121828   1.584   1.635  17.211
   21BMANN   C521829   1.669   1.411  17.111
   21BMANN   H521830   1.683   1.501  17.047
   21BMANN   O521831   1.554   1.430  17.195
   21BMANN   C221832   1.684   1.530  17.372
   21BMANN   H221833   1.693   1.624  17.429
   21BMANN    N21834   1.656   1.424  17.468
   21BMANN   HN21835   1.574   1.371  17.450
   21BMANN    C21836   1.724   1.404  17.581
   21BMANN    O21837   1.824   1.468  17.610
   21BMANN   CT21838   1.672   1.297  17.674
   21BMANN  HT121839   1.729   1.204  17.657
   21BMANN  HT221840   1.564   1.280  17.655
   21BMANN  HT321841   1.686   1.331  17.779
   21BMANN   C321842   1.808   1.514  17.287
   21BMANN   H321843   1.816   1.603  17.221
   21BMANN   O321844   1.928   1.513  17.365
   21BMANN  HO321845   1.905   1.492  17.455
   21BMANN   C421846   1.794   1.392  17.197
   21BMANN   H421847   1.781   1.301  17.259
   21BMANN   O421848   1.909   1.373  17.115
   21BMANN  HO421849   1.980   1.339  17.170
   21BMANN   C621850   1.639   1.295  17.018
   21BMANN  H6121851   1.723   1.280  16.947
   21BMANN  H6221852   1.627   1.201  17.075
   21BMANN   O621853   1.520   1.320  16.942
   21BMANN  HO621854   1.447   1.335  17.002
   22BGLCN   C121855   1.342   1.810  17.668
   22BGLCN   H121856   1.234   1.837  17.660
   22BGLCN   C521857   1.392   2.022  17.761
   22BGLCN   H521858   1.284   2.047  17.755
   22BGLCN   O521859   1.424   1.927  17.658
   22BGLCN   C221860   1.369   1.740  17.798
   22BGLCN   H221861   1.477   1.715  17.802
   22BGLCN    N21862   1.292   1.616  17.803
   22BGLCN   HN21863   1.209   1.617  17.748
   22BGLCN    C21864   1.330   1.501  17.860
   22BGLCN    O21865   1.438   1.484  17.915
   22BGLCN   CT21866   1.231   1.389  17.851
   22BGLCN  HT121867   1.212   1.363  17.745
   22BGLCN  HT221868   1.135   1.419  17.900
   22BGLCN  HT321869   1.271   1.300  17.905
   22BGLCN   C321870   1.338   1.835  17.912
   22BGLCN   H321871   1.230   1.861  17.907
   22BGLCN   O321872   1.363   1.759  18.032
   22BGLCN   C421873   1.419   1.962  17.898
   22BGLCN   H421874   1.527   1.937  17.907
   22BGLCN   O421875   1.383   2.058  17.996
   22BGLCN  HO421876   1.460   2.102  18.034
   22BGLCN   C621877   1.471   2.149  17.731
   22BGLCN  H6121878   1.468   2.217  17.818
   22BGLCN  H6221879   1.577   2.123  17.709
   22BGLCN   O621880   1.416   2.220  17.620
   22BGLCN  HO621881   1.449   2.182  17.538
   23AGAL    C121882   1.316   1.809  18.156
   23AGAL    H121883   1.376   1.897  18.185
   23AGAL    C521884   1.093   1.734  18.118
   23AGAL    H521885   1.130   1.689  18.024
   23AGAL    O521886   1.177   1.846  18.150
   23AGAL    C221887   1.334   1.701  18.262
   23AGAL    H221888   1.302   1.744  18.359
   23AGAL    O221889   1.472   1.661  18.272
   23AGAL    C321890   1.246   1.582  18.233
   23AGAL    H321891   1.276   1.541  18.134
   23AGAL    O321892   1.263   1.476  18.327
   23AGAL   HO321893   1.197   1.485  18.396
   23AGAL    C421894   1.102   1.627  18.226
   23AGAL    H421895   1.039   1.541  18.196
   23AGAL    O421896   1.055   1.676  18.351
   23AGAL   HO421897   0.981   1.733  18.329
   23AGAL    C621898   0.953   1.784  18.084
   23AGAL   H6121899   0.961   1.874  18.019
   23AGAL   H6221900   0.901   1.705  18.025
   23AGAL    O621901   0.871   1.815  18.198
   23AGAL   HO621902   0.785   1.775  18.182
   24ARHM    C121903   1.548   1.731  18.366
   24ARHM    H121904   1.506   1.833  18.378
   24ARHM    C521905   1.752   1.626  18.306
   24ARHM    H521906   1.698   1.565  18.230
   24ARHM    O521907   1.683   1.750  18.323
   24ARHM    C221908   1.543   1.658  18.498
   24ARHM    H221909   1.437   1.635  18.523
   24ARHM    O221910   1.600   1.737  18.604
   24ARHM    C321911   1.614   1.525  18.486
   24ARHM    H321912   1.561   1.463  18.411
   24ARHM    O321913   1.612   1.456  18.611
   24ARHM   HO321914   1.700   1.460  18.648
   24ARHM    C421915   1.757   1.550  18.438
   24ARHM    H421916   1.809   1.614  18.512
   24ARHM    O421917   1.830   1.429  18.424
   24ARHM   HO421918   1.923   1.449  18.410
   24ARHM    C621919   1.890   1.661  18.248
   24ARHM   H6121920   1.948   1.570  18.223
   24ARHM   H6221921   1.876   1.720  18.155
   24ARHM   H6321922   1.947   1.724  18.321
   25ARHM    C121923   1.511   1.831  18.658
   25ARHM    H121924   1.426   1.848  18.588
   25ARHM    C521925   1.680   1.953  18.770
   25ARHM    H521926   1.757   1.882  18.734
   25ARHM    O521927   1.573   1.959  18.675
   25ARHM    C221928   1.456   1.777  18.788
   25ARHM    H221929   1.416   1.675  18.772
   25ARHM    O221930   1.355   1.862  18.844
   25ARHM    C321931   1.567   1.768  18.890
   25ARHM    H321932   1.644   1.698  18.853
   25ARHM    O321933   1.509   1.718  19.010
   25ARHM    C421934   1.628   1.906  18.906
   25ARHM    H421935   1.549   1.977  18.939
   25ARHM    O421936   1.732   1.909  19.004
   25ARHM   HO421937   1.788   1.984  18.986
   25ARHM    C621938   1.739   2.095  18.770
   25ARHM   H6121939   1.774   2.121  18.668
   25ARHM   H6221940   1.662   2.169  18.799
   25ARHM   H6321941   1.825   2.103  18.840
   26BMANN   C121942   1.228   1.849  18.787
   26BMANN   H121943   1.207   1.743  18.762
   26BMANN   C521944   1.082   1.926  18.614
   26BMANN   H521945   1.063   1.821  18.583
   26BMANN   O521946   1.214   1.933  18.672
   26BMANN   C221947   1.132   1.897  18.895
   26BMANN   H221948   1.143   1.827  18.980
   26BMANN    N21949   1.164   2.031  18.943
   26BMANN   HN21950   1.208   2.092  18.878
   26BMANN    C21951   1.139   2.076  19.067
   26BMANN    O21952   1.082   2.010  19.154
   26BMANN   CT21953   1.185   2.216  19.097
   26BMANN  HT121954   1.201   2.272  19.003
   26BMANN  HT221955   1.280   2.212  19.155
   26BMANN  HT321956   1.108   2.268  19.158
   26BMANN   C321957   0.991   1.882  18.840
   26BMANN   H321958   0.978   1.776  18.810
   26BMANN   O321959   0.892   1.912  18.938
   26BMANN  HO321960   0.846   1.832  18.963
   26BMANN   C421961   0.977   1.968  18.716
   26BMANN   H421962   0.995   2.075  18.743
   26BMANN   O421963   0.846   1.958  18.660
   26BMANN  HO421964   0.797   2.034  18.693
   26BMANN   C621965   1.083   2.012  18.488
   26BMANN  H6121966   1.168   1.982  18.423
   26BMANN  H6221967   0.989   1.994  18.432
   26BMANN   O621968   1.094   2.152  18.517
   26BMANN  HO621969   1.066   2.202  18.439
   27BGLCN   C121970   1.593   1.639  19.089
   27BGLCN   H121971   1.699   1.673  19.082
   27BGLCN   C521972   1.665   1.418  19.141
   27BGLCN   H521973   1.770   1.454  19.135
   27BGLCN   O521974   1.584   1.501  19.055
   27BGLCN   C221975   1.540   1.660  19.229
   27BGLCN   H221976   1.435   1.623  19.232
   27BGLCN    N21977   1.539   1.803  19.258
   27BGLCN   HN21978   1.599   1.858  19.202
   27BGLCN    C21979   1.451   1.865  19.339
   27BGLCN    O21980   1.364   1.806  19.402
   27BGLCN   CT21981   1.465   2.014  19.350
   27BGLCN  HT121982   1.544   2.052  19.281
   27BGLCN  HT221983   1.491   2.041  19.455
   27BGLCN  HT321984   1.368   2.061  19.325
   27BGLCN   C321985   1.622   1.578  19.326
   27BGLCN   H321986   1.727   1.611  19.313
   27BGLCN   O321987   1.578   1.607  19.460
   27BGLCN   C421988   1.617   1.431  19.285
   27BGLCN   H421989   1.512   1.396  19.291
   27BGLCN   O421990   1.697   1.349  19.370
   27BGLCN  HO421991   1.784   1.387  19.380
   27BGLCN   C621992   1.663   1.278  19.084
   27BGLCN  H6121993   1.722   1.209  19.148
   27BGLCN  H6221994   1.558   1.239  19.082
   27BGLCN   O621995   1.718   1.275  18.952
   27BGLCN  HO621996   1.653   1.314  18.892
   28AGAL    C121997   1.666   1.577   0.094
   28AGAL    H121998   1.662   1.467   0.114
   28AGAL    C521999   1.813   1.757   0.045
   28AGAL    H522000   1.738   1.791  19.444
   28AGAL    O522001   1.801   1.614   0.062
   28AGAL    C222002   1.626   1.646   0.224
   28AGAL    H222003   1.701   1.611   0.298
   28AGAL    O222004   1.494   1.608   0.271
   28AGAL    C322005   1.638   1.796   0.213
   28AGAL    H322006   1.569   1.829   0.132
   28AGAL    O322007   1.598   1.863   0.332
   28AGAL   HO322008   1.567   1.952   0.313
   28AGAL    C422009   1.781   1.831   0.174
   28AGAL    H422010   1.787   1.940   0.154
   28AGAL    O422011   1.877   1.801   0.276
   28AGAL   HO422012   1.956   1.771   0.232
   28AGAL    C622013   1.948   1.787  19.453
   28AGAL   H6122014   1.960   1.727  19.361
   28AGAL   H6222015   1.947   1.894  19.423
   28AGAL    O622016   2.060   1.764   0.066
   28AGAL   HO622017   2.082   1.671   0.068
   29ARHM    C122018   1.493   1.574   0.408
   29ARHM    H122019   1.576   1.628   0.460
   29ARHM    C522020   1.404   1.358   0.363
   29ARHM    H522021   1.404   1.380   0.254
   29ARHM    O522022   1.509   1.433   0.426
   29ARHM    C222023   1.363   1.617   0.474
   29ARHM    H222024   1.350   1.726   0.456
   29ARHM    O222025   1.365   1.590   0.616
   29ARHM    C322026   1.248   1.545   0.409
   29ARHM    H322027   1.246   1.570   0.300
   29ARHM    O322028   1.123   1.585   0.465
   29ARHM   HO322029   1.129   1.577   0.560
   29ARHM    C422030   1.269   1.395   0.422
   29ARHM    H422031   1.269   1.367   0.530
   29ARHM    O422032   1.164   1.324   0.357
   29ARHM   HO422033   1.092   1.386   0.344
   29ARHM    C622034   1.440   1.210   0.382
   29ARHM   H6122035   1.539   1.188   0.338
   29ARHM   H6222036   1.443   1.185   0.491
   29ARHM   H6322037   1.364   1.145   0.333
   30ARHM    C122038   1.406   1.699   0.695
   30ARHM    H122039   1.344   1.787   0.670
   30ARHM    C522040   1.635   1.629   0.712
   30ARHM    H522041   1.612   1.536   0.655
   30ARHM    O522042   1.544   1.734   0.675
   30ARHM    C222043   1.386   1.667   0.843
   30ARHM    H222044   1.282   1.632   0.857
   30ARHM    O222045   1.410   1.782   0.924
   30ARHM    C322046   1.480   1.557   0.887
   30ARHM    H322047   1.458   1.467   0.825
   30ARHM    O322048   1.456   1.518   1.024
   30ARHM    C422049   1.623   1.597   0.860
   30ARHM    H422050   1.649   1.689   0.916
   30ARHM    O422051   1.713   1.494   0.897
   30ARHM   HO422052   1.715   1.491   0.993
   30ARHM    C622053   1.775   1.677   0.669
   30ARHM   H6122054   1.852   1.600   0.691
   30ARHM   H6222055   1.777   1.699   0.561
   30ARHM   H6322056   1.801   1.770   0.724
   31BMANN   C122057   1.303   1.870   0.945
   31BMANN   H122058   1.208   1.816   0.960
   31BMANN   C522059   1.193   2.066   0.863
   31BMANN   H522060   1.096   2.015   0.880
   31BMANN   O522061   1.295   1.966   0.840
   31BMANN   C222062   1.345   1.945   1.070
   31BMANN   H222063   1.344   1.871   1.153
   31BMANN    N22064   1.482   1.995   1.059
   31BMANN   HN22065   1.518   1.999   0.966
   31BMANN    C22066   1.560   2.027   1.162
   31BMANN    O22067   1.518   2.024   1.277
   31BMANN   CT22068   1.702   2.066   1.132
   31BMANN  HT122069   1.709   2.117   1.033
   31BMANN  HT222070   1.765   1.975   1.130
   31BMANN  HT322071   1.739   2.134   1.211
   31BMANN   C322072   1.240   2.048   1.103
   31BMANN   H322073   1.142   1.997   1.112
   31BMANN   O322074   1.262   2.111   1.228
   31BMANN  HO322075   1.352   2.093   1.258
   31BMANN   C422076   1.228   2.146   0.988
   31BMANN   H422077   1.326   2.197   0.972
   31BMANN   O422078   1.131   2.247   1.014
   31BMANN  HO422079   1.148   2.278   1.103
   31BMANN   C622080   1.178   2.149   0.737
   31BMANN  H6122081   1.102   2.228   0.754
   31BMANN  H6222082   1.274   2.199   0.713
   31BMANN   O622083   1.138   2.071   0.624
   31BMANN  HO622084   1.048   2.039   0.635
   32BGLCN   C122085   1.516   1.594   1.127
   32BGLCN   H122086   1.522   1.701   1.100
   32BGLCN   C522087   1.709   1.626   1.264
   32BGLCN   H522088   1.715   1.732   1.232
   32BGLCN   O522089   1.647   1.547   1.161
   32BGLCN   C222090   1.426   1.579   1.249
   32BGLCN   H222091   1.435   1.474   1.284
   32BGLCN    N22092   1.287   1.599   1.211
   32BGLCN   HN22093   1.271   1.640   1.122
   32BGLCN    C22094   1.182   1.543   1.274
   32BGLCN    O22095   1.191   1.482   1.379
   32BGLCN   CT22096   1.049   1.561   1.207
   32BGLCN  HT122097   1.051   1.644   1.133
   32BGLCN  HT222098   0.971   1.583   1.284
   32BGLCN  HT322099   1.020   1.467   1.154
   32BGLCN   C322100   1.483   1.671   1.357
   32BGLCN   H322101   1.491   1.772   1.312
   32BGLCN   O322102   1.404   1.682   1.476
   32BGLCN   C422103   1.622   1.620   1.390
   32BGLCN   H422104   1.615   1.515   1.423
   32BGLCN   O422105   1.680   1.694   1.496
   32BGLCN  HO422106   1.625   1.684   1.573
   32BGLCN   C622107   1.851   1.575   1.286
   32BGLCN  H6122108   1.894   1.620   1.378
   32BGLCN  H6222109   1.848   1.465   1.300
   32BGLCN   O622110   1.938   1.607   1.177
   32BGLCN  HO622111   1.960   1.700   1.180
   33AGAL    C122112   1.398   1.813   1.531
   33AGAL    H122113   1.493   1.869   1.513
   33AGAL    C522114   1.162   1.826   1.497
   33AGAL    H522115   1.167   1.723   1.455
   33AGAL    O522116   1.289   1.889   1.475
   33AGAL    C222117   1.375   1.803   1.680
   33AGAL    H222118   1.364   1.908   1.717
   33AGAL    O222119   1.490   1.746   1.745
   33AGAL    C322120   1.245   1.729   1.707
   33AGAL    H322121   1.251   1.629   1.659
   33AGAL    O322122   1.219   1.707   1.845
   33AGAL   HO322123   1.175   1.786   1.877
   33AGAL    C422124   1.132   1.808   1.645
   33AGAL    H422125   1.038   1.749   1.654
   33AGAL    O422126   1.108   1.930   1.715
   33AGAL   HO422127   1.166   2.000   1.684
   33AGAL    C622128   1.055   1.898   1.416
   33AGAL   H6122129   1.078   1.888   1.308
   33AGAL   H6222130   0.957   1.849   1.434
   33AGAL    O622131   1.045   2.037   1.448
   33AGAL   HO622132   1.119   2.084   1.409
   34ARHM    C122133   1.517   1.803   1.871
   34ARHM    H122134   1.422   1.816   1.928
   34ARHM    C522135   1.706   1.927   1.792
   34ARHM    H522136   1.692   1.891   1.688
   34ARHM    O522137   1.580   1.931   1.860
   34ARHM    C222138   1.608   1.707   1.947
   34ARHM    H222139   1.559   1.607   1.945
   34ARHM    O222140   1.633   1.741   2.085
   34ARHM    C322141   1.741   1.697   1.876
   34ARHM    H322142   1.725   1.658   1.774
   34ARHM    O322143   1.827   1.606   1.944
   34ARHM   HO322144   1.816   1.621   2.038
   34ARHM    C422145   1.803   1.836   1.866
   34ARHM    H422146   1.819   1.876   1.968
   34ARHM    O422147   1.929   1.831   1.799
   34ARHM   HO422148   1.970   1.748   1.822
   34ARHM    C622149   1.753   2.074   1.786
   34ARHM   H6122150   1.765   2.115   1.889
   34ARHM   H6222151   1.850   2.082   1.733
   34ARHM   H6322152   1.678   2.135   1.732
   35ARHM    C122153   1.520   1.765   2.166
   35ARHM    H122154   1.438   1.695   2.139
   35ARHM    C522155   1.574   1.997   2.186
   35ARHM    H522156   1.662   1.983   2.119
   35ARHM    O522157   1.473   1.900   2.154
   35ARHM    C222158   1.562   1.741   2.309
   35ARHM    H222159   1.608   1.640   2.316
   35ARHM    O222160   1.450   1.748   2.400
   35ARHM    C322161   1.670   1.839   2.351
   35ARHM    H322162   1.760   1.825   2.288
   35ARHM    O322163   1.707   1.817   2.487
   35ARHM   HO322164   1.708   1.724   2.509
   35ARHM    C422165   1.618   1.981   2.331
   35ARHM    H422166   1.530   1.996   2.396
   35ARHM    O422167   1.716   2.080   2.366
   35ARHM   HO422168   1.765   2.105   2.287
   35ARHM    C622169   1.512   2.134   2.155
   35ARHM   H6122170   1.481   2.138   2.048
   35ARHM   H6222171   1.424   2.152   2.219
   35ARHM   H6322172   1.586   2.216   2.172
   36BMANN   C122173   1.373   1.631   2.410
   36BMANN   H122174   1.428   1.543   2.373
   36BMANN   C522175   1.165   1.527   2.354
   36BMANN   H522176   1.223   1.441   2.312
   36BMANN   O522177   1.247   1.645   2.341
   36BMANN   C222178   1.342   1.616   2.557
   36BMANN   H222179   1.440   1.603   2.609
   36BMANN    N22180   1.282   1.738   2.610
   36BMANN   HN22181   1.253   1.804   2.541
   36BMANN    C22182   1.278   1.770   2.740
   36BMANN    O22183   1.314   1.692   2.827
   36BMANN   CT22184   1.225   1.907   2.774
   36BMANN  HT122185   1.123   1.921   2.731
   36BMANN  HT222186   1.293   1.985   2.733
   36BMANN  HT322187   1.220   1.918   2.884
   36BMANN   C322188   1.264   1.488   2.575
   36BMANN   H322189   1.322   1.404   2.531
   36BMANN   O322190   1.246   1.455   2.713
   36BMANN  HO322191   1.260   1.534   2.766
   36BMANN   C422192   1.133   1.498   2.500
   36BMANN   H422193   1.073   1.581   2.543
   36BMANN   O422194   1.059   1.376   2.511
   36BMANN  HO422195   1.067   1.345   2.601
   36BMANN   C622196   1.042   1.546   2.266
   36BMANN  H6122197   1.070   1.599   2.173
   36BMANN  H6222198   1.004   1.446   2.236
   36BMANN   O622199   0.936   1.617   2.331
   36BMANN  HO622200   0.859   1.560   2.336
    1ECLIP HB6S22201   2.044   7.108  11.829
    1ECLIP  OB622202   2.084   7.257  11.966
    1ECLIP  CB622203   2.001   7.205  11.861
    1ECLIP HB6R22204   1.899   7.183  11.900
    1ECLIP  CB522205   1.984   7.291  11.737
    1ECLIP  OB522206   2.112   7.337  11.692
    1ECLIP  HB522207   1.920   7.379  11.763
    1ECLIP  CB122208   2.107   7.417  11.573
    1ECLIP  HB122209   2.050   7.510  11.594
    1ECLIP  OA622210   2.236   7.452  11.528
    1ECLIP  CA622211   2.335   7.351  11.556
    1ECLIP HA6R22212   2.291   7.256  11.593
    1ECLIP HA6S22213   2.403   7.388  11.635
    1ECLIP  CB422214   1.920   7.212  11.622
    1ECLIP  HB422215   2.001   7.141  11.591
    1ECLIP  OB422216   1.804   7.141  11.670
    1ECLIP   PB22217   1.795   6.977  11.646
    1ECLIP OPB422218   1.728   6.915  11.769
    1ECLIP OPB322219   1.939   6.927  11.633
    1ECLIP OPB222220   1.716   6.954  11.520
    1ECLIP  CB322221   1.900   7.303  11.503
    1ECLIP  OB322222   1.837   7.240  11.391
    1ECLIP  HB322223   1.848   7.396  11.534
    1ECLIP  C7122224   1.704   7.249  11.387
    1ECLIP  O7122225   1.638   7.324  11.458
    1ECLIP  C7222226   1.660   7.228  11.243
    1ECLIP H72R22227   1.735   7.272  11.174
    1ECLIP H72S22228   1.563   7.280  11.230
    1ECLIP  CB222229   2.041   7.342  11.458
    1ECLIP  HB222230   2.099   7.249  11.444
    1ECLIP  NB222231   2.046   7.413  11.330
    1ECLIP HNB222232   2.044   7.512  11.334
    1ECLIP  CA422233   2.472   7.425  11.353
    1ECLIP  HA422234   2.386   7.479  11.308
    1ECLIP  OA422235   2.548   7.514  11.435
    1ECLIP HOA422236   2.506   7.599  11.422
    1ECLIP  CA522237   2.414   7.313  11.434
    1ECLIP  HA522238   2.497   7.249  11.469
    1ECLIP  OA522239   2.328   7.236  11.349
    1ECLIP  CA122240   2.397   7.172  11.241
    1ECLIP  HA122241   2.319   7.125  11.178
    1ECLIP  OA122242   2.484   7.068  11.283
    1ECLIP OPA222243   2.491   7.015  11.529
    1ECLIP OPA322244   2.285   6.950  11.406
    1ECLIP OPA422245   2.501   6.827  11.364
    1ECLIP   PA22246   2.438   6.960  11.398
    1ECLIP  CA322247   2.555   7.366  11.241
    1ECLIP  HA322248   2.628   7.297  11.288
    1ECLIP  OA322249   2.632   7.467  11.174
    1ECLIP  C3122250   2.569   7.558  11.094
    1ECLIP  O3122251   2.596   7.562  10.975
    1ECLIP  C3222252   2.579   7.694  11.167
    1ECLIP H32R22253   2.635   7.759  11.096
    1ECLIP H32S22254   2.641   7.685  11.258
    1ECLIP  CA222255   2.465   7.278  11.154
    1ECLIP  HA222256   2.385   7.341  11.109
    1ECLIP  NA222257   2.542   7.215  11.049
    1ECLIP HNA222258   2.636   7.192  11.074
    1ECLIP  C7322259   1.644   7.078  11.217
    1ECLIP H73R22260   1.591   7.031  11.303
    1ECLIP  O7322261   1.776   7.027  11.204
    1ECLIP  C8122262   1.791   6.897  11.224
    1ECLIP  O8122263   1.702   6.814  11.216
    1ECLIP  C8222264   1.937   6.865  11.190
    1ECLIP H82R22265   1.958   6.762  11.226
    1ECLIP H82S22266   2.003   6.937  11.243
    1ECLIP  C8322267   1.962   6.875  11.038
    1ECLIP H83R22268   1.957   6.982  11.008
    1ECLIP H83S22269   1.881   6.821  10.983
    1ECLIP  C8422270   2.097   6.817  10.993
    1ECLIP H84R22271   2.098   6.707  11.010
    1ECLIP H84S22272   2.178   6.862  11.053
    1ECLIP  C8522273   2.121   6.847  10.845
    1ECLIP H85R22274   2.136   6.957  10.835
    1ECLIP H85S22275   2.029   6.820  10.788
    1ECLIP  C8622276   2.242   6.777  10.782
    1ECLIP H86R22277   2.220   6.668  10.774
    1ECLIP H86S22278   2.329   6.788  10.850
    1ECLIP  C8722279   2.279   6.834  10.643
    1ECLIP H87R22280   2.355   6.768  10.596
    1ECLIP H87S22281   2.325   6.934  10.659
    1ECLIP  C8822282   2.157   6.851  10.550
    1ECLIP H88R22283   2.089   6.926  10.597
    1ECLIP H88S22284   2.102   6.755  10.543
    1ECLIP  C8922285   2.192   6.903  10.410
    1ECLIP H89R22286   2.264   6.986  10.417
    1ECLIP H89S22287   2.098   6.944  10.367
    1ECLIP C81022288   2.245   6.793  10.316
    1ECLIPH810R22289   2.183   6.702  10.328
    1ECLIPH810S22290   2.348   6.767  10.348
    1ECLIP C81122291   2.246   6.835  10.168
    1ECLIPH811R22292   2.304   6.760  10.109
    1ECLIPH811S22293   2.300   6.932  10.161
    1ECLIP C81222294   2.107   6.851  10.104
    1ECLIPH812R22295   2.119   6.898  10.004
    1ECLIPH812S22296   2.045   6.920  10.165
    1ECLIP C81322297   2.032   6.718  10.085
    1ECLIPH813R22298   2.090   6.653  10.016
    1ECLIPH813S22299   2.027   6.665  10.183
    1ECLIP C81422300   1.889   6.735  10.032
    1ECLIPH814R22301   1.889   6.792   9.937
    1ECLIPH814S22302   1.828   6.789  10.107
    1ECLIPH814T22303   1.842   6.636  10.014
    1ECLIP  C7422304   1.560   7.049  11.089
    1ECLIP H74R22305   1.463   7.102  11.096
    1ECLIP H74S22306   1.537   6.940  11.091
    1ECLIP  C7522307   1.627   7.079  10.953
    1ECLIP H75R22308   1.603   6.994  10.886
    1ECLIP H75S22309   1.738   7.081  10.964
    1ECLIP  C7622310   1.578   7.207  10.883
    1ECLIP H76R22311   1.620   7.296  10.934
    1ECLIP H76S22312   1.467   7.213  10.891
    1ECLIP  C7722313   1.617   7.207  10.734
    1ECLIP H77R22314   1.580   7.113  10.689
    1ECLIP H77S22315   1.728   7.206  10.727
    1ECLIP  C7822316   1.562   7.326  10.654
    1ECLIP H78R22317   1.451   7.319  10.651
    1ECLIP H78S22318   1.588   7.420  10.706
    1ECLIP  C7922319   1.616   7.333  10.510
    1ECLIP H79R22320   1.724   7.360  10.515
    1ECLIP H79S22321   1.564   7.415  10.455
    1ECLIP C71022322   1.605   7.202  10.431
    1ECLIPH710R22323   1.665   7.124  10.482
    1ECLIPH710S22324   1.499   7.168  10.430
    1ECLIP C71122325   1.657   7.214  10.287
    1ECLIPH711R22326   1.589   7.280  10.229
    1ECLIPH711S22327   1.757   7.261  10.288
    1ECLIP C71222328   1.670   7.076  10.219
    1ECLIPH712R22329   1.570   7.028  10.215
    1ECLIPH712S22330   1.736   7.012  10.282
    1ECLIP C71322331   1.729   7.083  10.077
    1ECLIPH713R22332   1.829   7.130  10.082
    1ECLIPH713S22333   1.743   6.979  10.040
    1ECLIP C71422334   1.641   7.158   9.978
    1ECLIPH714R22335   1.539   7.114   9.976
    1ECLIPH714S22336   1.632   7.265  10.007
    1ECLIPH714T22337   1.684   7.152   9.876
    1ECLIP  C5122338   2.060   7.350  11.212
    1ECLIP  O5122339   2.064   7.229  11.200
    1ECLIP  C5222340   2.071   7.441  11.091
    1ECLIP H52R22341   1.978   7.500  11.085
    1ECLIP H52S22342   2.157   7.509  11.111
    1ECLIP  C5322343   2.096   7.366  10.959
    1ECLIP H53R22344   2.183   7.298  10.971
    1ECLIP  O5322345   2.117   7.464  10.856
    1ECLIP  C6122346   2.245   7.494  10.832
    1ECLIP  O6122347   2.336   7.478  10.910
    1ECLIP  C6222348   2.248   7.600  10.719
    1ECLIP H62R22349   2.229   7.699  10.766
    1ECLIP H62S22350   2.165   7.576  10.649
    1ECLIP  C6322351   2.382   7.604  10.643
    1ECLIP H63R22352   2.403   7.503  10.602
    1ECLIP H63S22353   2.463   7.630  10.714
    1ECLIP  C6422354   2.384   7.704  10.526
    1ECLIP H64R22355   2.488   7.707  10.486
    1ECLIP H64S22356   2.359   7.806  10.563
    1ECLIP  C6522357   2.289   7.666  10.411
    1ECLIP H65R22358   2.184   7.674  10.448
    1ECLIP H65S22359   2.305   7.560  10.383
    1ECLIP  C6622360   2.302   7.755  10.286
    1ECLIP H66R22361   2.283   7.861  10.315
    1ECLIP H66S22362   2.222   7.726  10.215
    1ECLIP  C6722363   2.438   7.747  10.213
    1ECLIP H67R22364   2.515   7.800  10.274
    1ECLIP H67S22365   2.428   7.802  10.117
    1ECLIP  C6822366   2.488   7.605  10.184
    1ECLIP H68R22367   2.407   7.545  10.136
    1ECLIP H68S22368   2.514   7.554  10.279
    1ECLIP  C6922369   2.611   7.606  10.092
    1ECLIP H69R22370   2.695   7.655  10.145
    1ECLIP H69S22371   2.586   7.666  10.002
    1ECLIP C61022372   2.657   7.467  10.044
    1ECLIPH610R22373   2.572   7.419   9.991
    1ECLIPH610S22374   2.683   7.403  10.132
    1ECLIP C61122375   2.778   7.471   9.950
    1ECLIPH611R22376   2.764   7.553   9.876
    1ECLIPH611S22377   2.868   7.496  10.010
    1ECLIP C61222378   2.801   7.340   9.874
    1ECLIPH612R22379   2.809   7.255   9.944
    1ECLIPH612S22380   2.716   7.319   9.805
    1ECLIPH612T22381   2.894   7.346   9.813
    1ECLIP  C5422382   1.977   7.280  10.911
    1ECLIP H54R22383   1.887   7.344  10.897
    1ECLIP H54S22384   1.952   7.206  10.990
    1ECLIP  C5522385   2.005   7.201  10.781
    1ECLIP H55R22386   1.935   7.115  10.775
    1ECLIP H55S22387   2.109   7.160  10.787
    1ECLIP  C5622388   1.991   7.285  10.654
    1ECLIP H56R22389   2.061   7.370  10.658
    1ECLIP H56S22390   1.888   7.329  10.650
    1ECLIP  C5722391   2.022   7.211  10.524
    1ECLIP H57R22392   1.946   7.132  10.505
    1ECLIP H57S22393   2.122   7.163  10.533
    1ECLIP  C5822394   2.025   7.313  10.410
    1ECLIP H58R22395   1.923   7.357  10.398
    1ECLIP H58S22396   2.093   7.395  10.440
    1ECLIP  C5922397   2.073   7.259  10.275
    1ECLIP H59R22398   2.005   7.180  10.238
    1ECLIP H59S22399   2.173   7.214  10.289
    1ECLIP C51022400   2.079   7.376  10.176
    1ECLIPH510R22401   2.121   7.464  10.229
    1ECLIPH510S22402   1.975   7.401  10.147
    1ECLIP C51122403   2.163   7.352  10.051
    1ECLIPH511R22404   2.271   7.356  10.077
    1ECLIPH511S22405   2.141   7.251  10.010
    1ECLIP C51222406   2.133   7.457   9.943
    1ECLIPH512R22407   2.198   7.437   9.855
    1ECLIPH512S22408   2.027   7.442   9.913
    1ECLIP C51322409   2.148   7.604   9.985
    1ECLIPH513R22410   2.255   7.622  10.012
    1ECLIPH513S22411   2.087   7.622  10.076
    1ECLIP C51422412   2.105   7.706   9.879
    1ECLIPH514R22413   2.000   7.688   9.848
    1ECLIPH514S22414   2.113   7.809   9.920
    1ECLIPH514T22415   2.170   7.700   9.790
    1ECLIP  C3322416   2.446   7.769  11.199
    1ECLIP H33R22417   2.467   7.877  11.210
    1ECLIP  O3322418   2.397   7.722  11.323
    1ECLIP HO3322419   2.311   7.758  11.348
    1ECLIP  C3422420   2.336   7.749  11.093
    1ECLIP H34R22421   2.322   7.640  11.079
    1ECLIP H34S22422   2.372   7.791  10.997
    1ECLIP  C3522423   2.196   7.807  11.125
    1ECLIP H35R22424   2.201   7.916  11.146
    1ECLIP H35S22425   2.155   7.756  11.214
    1ECLIP  C3622426   2.099   7.783  11.007
    1ECLIP H36R22427   2.120   7.680  10.970
    1ECLIP H36S22428   2.124   7.853  10.924
    1ECLIP  C3722429   1.948   7.788  11.037
    1ECLIP H37R22430   1.917   7.894  11.039
    1ECLIP H37S22431   1.928   7.744  11.137
    1ECLIP  C3822432   1.864   7.712  10.932
    1ECLIP H38R22433   1.873   7.602  10.946
    1ECLIP H38S22434   1.756   7.736  10.946
    1ECLIP  C3922435   1.908   7.741  10.788
    1ECLIP H39R22436   2.012   7.704  10.775
    1ECLIP H39S22437   1.910   7.851  10.772
    1ECLIP C31022438   1.825   7.673  10.678
    1ECLIPH310R22439   1.722   7.714  10.679
    1ECLIPH310S22440   1.818   7.564  10.698
    1ECLIP C31122441   1.891   7.697  10.542
    1ECLIPH311R22442   1.915   7.806  10.533
    1ECLIPH311S22443   1.987   7.642  10.539
    1ECLIP C31222444   1.806   7.656  10.422
    1ECLIPH312R22445   1.788   7.546  10.426
    1ECLIPH312S22446   1.708   7.706  10.427
    1ECLIP C31322447   1.876   7.691  10.290
    1ECLIPH313R22448   1.889   7.801  10.284
    1ECLIPH313S22449   1.977   7.645  10.290
    1ECLIP C31422450   1.799   7.641  10.168
    1ECLIPH314R22451   1.695   7.680  10.169
    1ECLIPH314S22452   1.849   7.675  10.075
    1ECLIPH314T22453   1.794   7.530  10.168
    1ECLIP  C1122454   2.498   7.174  10.929
    1ECLIP  O1122455   2.382   7.187  10.891
    1ECLIP  C1222456   2.601   7.107  10.842
    1ECLIP H12R22457   2.597   6.998  10.860
    1ECLIP H12S22458   2.702   7.145  10.868
    1ECLIP  C1322459   2.571   7.136  10.694
    1ECLIP H13R22460   2.470   7.098  10.669
    1ECLIP  O1322461   2.667   7.066  10.617
    1ECLIP HO1322462   2.648   7.066  10.523
    1ECLIP  C1422463   2.580   7.286  10.657
    1ECLIP H14R22464   2.676   7.326  10.697
    1ECLIP H14S22465   2.498   7.340  10.709
    1ECLIP  C1522466   2.574   7.316  10.506
    1ECLIP H15R22467   2.662   7.268  10.458
    1ECLIP H15S22468   2.586   7.425  10.490
    1ECLIP  C1622469   2.445   7.269  10.437
    1ECLIP H16R22470   2.367   7.347  10.450
    1ECLIP H16S22471   2.404   7.177  10.483
    1ECLIP  C1722472   2.467   7.242  10.288
    1ECLIP H17R22473   2.529   7.324  10.246
    1ECLIP H17S22474   2.369   7.243  10.236
    1ECLIP  C1822475   2.533   7.106  10.263
    1ECLIP H18R22476   2.624   7.095  10.326
    1ECLIP H18S22477   2.463   7.026  10.293
    1ECLIP  C1922478   2.576   7.084  10.117
    1ECLIP H19R22479   2.601   6.977  10.103
    1ECLIP H19S22480   2.668   7.142  10.098
    1ECLIP C11022481   2.471   7.126  10.013
    1ECLIPH110R22482   2.371   7.086  10.038
    1ECLIPH110S22483   2.463   7.237  10.013
    1ECLIP C11122484   2.513   7.078   9.875
    1ECLIPH111R22485   2.622   7.095   9.865
    1ECLIPH111S22486   2.495   6.968   9.868
    1ECLIP C11222487   2.444   7.149   9.759
    1ECLIPH112R22488   2.340   7.111   9.747
    1ECLIPH112S22489   2.437   7.258   9.780
    1ECLIP C11322490   2.525   7.127   9.631
    1ECLIPH113R22491   2.628   7.166   9.647
    1ECLIPH113S22492   2.533   7.017   9.617
    1ECLIP C11422493   2.467   7.191   9.506
    1ECLIPH114R22494   2.460   7.301   9.521
    1ECLIPH114S22495   2.365   7.151   9.484
    1ECLIPH114T22496   2.531   7.173   9.417
    2AKDO    C122497   1.940   7.441  12.038
    2AKDO   O1122498   1.825   7.456  12.089
    2AKDO   O1222499   2.013   7.535  11.995
    2AKDO    C222500   2.014   7.309  12.078
    2AKDO    C622501   1.975   7.091  12.172
    2AKDO    H622502   2.032   7.051  12.086
    2AKDO    O622503   1.918   7.217  12.134
    2AKDO    C322504   2.123   7.329  12.185
    2AKDO   H3122505   2.078   7.380  12.272
    2AKDO   H3222506   2.201   7.394  12.141
    2AKDO    C422507   2.186   7.199  12.228
    2AKDO    H422508   2.231   7.151  12.139
    2AKDO    O422509   2.287   7.221  12.328
    2AKDO    C522510   2.079   7.106  12.285
    2AKDO    H522511   2.128   7.007  12.297
    2AKDO    O522512   2.031   7.151  12.415
    2AKDO    C722513   1.856   6.999  12.188
    2AKDO    H722514   1.788   7.037  12.268
    2AKDO    O722515   1.896   6.865  12.219
    2AKDO   HO722516   1.868   6.815  12.142
    2AKDO    C822517   1.781   6.998  12.055
    2AKDO   H8122518   1.744   7.099  12.032
    2AKDO   H8222519   1.852   6.970  11.975
    2AKDO    O822520   1.669   6.909  12.049
    2AKDO   HO822521   1.653   6.907  11.955
    3AKDO    C122522   2.492   7.165  12.186
    3AKDO   O1122523   2.609   7.203  12.156
    3AKDO   O1222524   2.449   7.047  12.177
    3AKDO    C222525   2.421   7.254  12.294
    3AKDO    C622526   2.383   7.485  12.356
    3AKDO    H622527   2.275   7.462  12.368
    3AKDO    O622528   2.438   7.394  12.259
    3AKDO    C322529   2.487   7.232  12.431
    3AKDO   H3122530   2.597   7.247  12.421
    3AKDO   H3222531   2.473   7.125  12.459
    3AKDO    C422532   2.432   7.321  12.537
    3AKDO    H422533   2.323   7.304  12.548
    3AKDO    O422534   2.493   7.289  12.662
    3AKDO   HO422535   2.442   7.219  12.703
    3AKDO    C522536   2.452   7.466  12.492
    3AKDO    H522537   2.402   7.532  12.566
    3AKDO    O522538   2.589   7.504  12.487
    3AKDO   HO522539   2.628   7.453  12.416
    3AKDO    C722540   2.394   7.626  12.299
    3AKDO    H722541   2.501   7.655  12.293
    3AKDO    O722542   2.324   7.719  12.382
    3AKDO   HO722543   2.263   7.760  12.321
    3AKDO    C822544   2.335   7.636  12.159
    3AKDO   H8122545   2.382   7.561  12.091
    3AKDO   H8222546   2.226   7.612  12.162
    3AKDO    O822547   2.352   7.767  12.103
    3AKDO   HO822548   2.275   7.781  12.048
    4AHEP    C122549   1.985   7.049  12.502
    4AHEP    H122550   1.894   7.006  12.456
    4AHEP    C522551   2.199   6.976  12.585
    4AHEP    H522552   2.239   7.066  12.533
    4AHEP    O522553   2.077   6.939  12.517
    4AHEP    C222554   1.947   7.096  12.642
    4AHEP    H222555   1.885   7.187  12.630
    4AHEP    O222556   1.866   6.999  12.710
    4AHEP   HO222557   1.917   6.919  12.709
    4AHEP    C322558   2.070   7.135  12.725
    4AHEP    H322559   2.118   7.222  12.675
    4AHEP    O322560   2.029   7.168  12.860
    4AHEP    C422561   2.166   7.018  12.730
    4AHEP    H422562   2.118   6.933  12.782
    4AHEP    O422563   2.287   7.058  12.797
    4AHEP    P422564   2.364   6.967  12.913
    4AHEP  OP4222565   2.478   7.055  12.964
    4AHEP  OP4322566   2.413   6.840  12.846
    4AHEP  OP4422567   2.260   6.932  13.019
    4AHEP    C622568   2.305   6.868  12.565
    4AHEP    H622569   2.401   6.909  12.602
    4AHEP    O622570   2.274   6.752  12.644
    4AHEP   HO622571   2.321   6.775  12.725
    4AHEP    C722572   2.327   6.826  12.420
    4AHEP   H7122573   2.419   6.764  12.413
    4AHEP   H7222574   2.346   6.919  12.361
    4AHEP    O722575   2.220   6.756  12.357
    4AHEP   HO722576   2.226   6.665  12.387
    5AHEP    C122577   2.075   7.291  12.913
    5AHEP    H122578   2.166   7.323  12.859
    5AHEP    C522579   1.854   7.366  12.976
    5AHEP    H522580   1.814   7.269  12.941
    5AHEP    O522581   1.975   7.395  12.903
    5AHEP    C222582   2.110   7.276  13.061
    5AHEP    H222583   2.175   7.187  13.069
    5AHEP    O222584   2.185   7.388  13.111
    5AHEP   HO222585   2.276   7.375  13.080
    5AHEP    C322586   1.985   7.247  13.143
    5AHEP    H322587   1.943   7.151  13.107
    5AHEP    O322588   2.013   7.242  13.283
    5AHEP    C422589   1.882   7.355  13.126
    5AHEP    H422590   1.919   7.452  13.165
    5AHEP    O422591   1.760   7.312  13.189
    5AHEP    P422592   1.701   7.378  13.328
    5AHEP  OP4222593   1.593   7.283  13.379
    5AHEP  OP4322594   1.645   7.515  13.292
    5AHEP  OP4422595   1.816   7.391  13.427
    5AHEP    C622596   1.753   7.474  12.939
    5AHEP    H622597   1.658   7.454  12.994
    5AHEP    O622598   1.800   7.605  12.975
    5AHEP   HO622599   1.863   7.620  12.904
    5AHEP    C722600   1.729   7.467  12.788
    5AHEP   H7122601   1.619   7.471  12.771
    5AHEP   H7222602   1.759   7.369  12.747
    5AHEP    O722603   1.788   7.577  12.715
    6AHEP    C122604   1.907   7.541  12.647
    6AHEP    H122605   1.930   7.433  12.659
    6AHEP    C522606   1.881   7.702  12.465
    6AHEP    H522607   1.787   7.743  12.509
    6AHEP    O522608   1.896   7.563  12.506
    6AHEP    C222609   2.025   7.620  12.701
    6AHEP    H222610   2.028   7.609  12.812
    6AHEP    O222611   2.150   7.571  12.652
    6AHEP   HO222612   2.142   7.555  12.558
    6AHEP    C322613   2.003   7.765  12.668
    6AHEP    H322614   1.901   7.793  12.703
    6AHEP    O322615   2.094   7.853  12.735
    6AHEP   HO322616   2.156   7.885  12.669
    6AHEP    C422617   2.000   7.781  12.519
    6AHEP    H422618   2.091   7.736  12.474
    6AHEP    O422619   2.002   7.917  12.479
    6AHEP   HO422620   1.933   7.970  12.519
    6AHEP    C622621   1.871   7.716  12.314
    6AHEP    H622622   1.883   7.821  12.283
    6AHEP    O622623   1.978   7.642  12.254
    6AHEP   HO622624   1.943   7.590  12.182
    6AHEP    C722625   1.733   7.674  12.262
    6AHEP   H7122626   1.732   7.679  12.151
    6AHEP   H7222627   1.658   7.748  12.298
    6AHEP    O722628   1.693   7.543  12.304
    6AHEP   HO722629   1.741   7.488  12.243
    7AGLC    C122630   2.032   7.113  13.332
    7AGLC    H122631   1.962   7.041  13.284
    7AGLC    C522632   2.263   7.159  13.371
    7AGLC    H522633   2.244   7.263  13.338
    7AGLC    O522634   2.167   7.072  13.309
    7AGLC    C222635   2.007   7.111  13.481
    7AGLC    H222636   2.023   7.007  13.516
    7AGLC    O222637   1.871   7.142  13.510
    7AGLC   HO222638   1.852   7.230  13.476
    7AGLC    C322639   2.102   7.201  13.556
    7AGLC    H322640   2.090   7.304  13.516
    7AGLC    O322641   2.075   7.200  13.699
    7AGLC    C422642   2.243   7.153  13.522
    7AGLC    H422643   2.253   7.047  13.553
    7AGLC    O422644   2.344   7.227  13.590
    7AGLC   HO422645   2.417   7.167  13.606
    7AGLC    C622646   2.401   7.125  13.317
    7AGLC   H6122647   2.400   7.138  13.207
    7AGLC   H6222648   2.477   7.196  13.358
    7AGLC    O622649   2.444   6.991  13.345
    7AGLC   HO622650   2.465   6.954  13.258
    8AGLC    C122651   2.031   7.324  13.751
    8AGLC    H122652   2.087   7.408  13.703
    8AGLC    C522653   1.805   7.248  13.794
    8AGLC    H522654   1.834   7.148  13.756
    8AGLC    O522655   1.890   7.347  13.732
    8AGLC    C222656   2.054   7.328  13.900
    8AGLC    H222657   2.027   7.430  13.936
    8AGLC    O222658   2.188   7.299  13.939
    8AGLC    C322659   1.970   7.226  13.974
    8AGLC    H322660   1.997   7.126  13.933
    8AGLC    O322661   2.009   7.228  14.113
    8AGLC    C422662   1.824   7.251  13.945
    8AGLC    H422663   1.795   7.352  13.982
    8AGLC    O422664   1.742   7.154  14.009
    8AGLC   HO422665   1.719   7.085  13.946
    8AGLC    C622666   1.663   7.276  13.749
    8AGLC   H6122667   1.661   7.287  13.638
    8AGLC   H6222668   1.597   7.190  13.774
    8AGLC    O622669   1.609   7.394  13.809
    8AGLC   HO622670   1.647   7.468  13.761
    9AGAL    C122671   2.292   7.379  13.890
    9AGAL    H122672   2.294   7.379  13.779
    9AGAL    C522673   2.272   7.520  14.081
    9AGAL    H522674   2.185   7.458  14.113
    9AGAL    O522675   2.284   7.513  13.939
    9AGAL    C222676   2.415   7.311  13.945
    9AGAL    H222677   2.505   7.366  13.910
    9AGAL    O222678   2.413   7.180  13.882
    9AGAL    C322679   2.409   7.316  14.098
    9AGAL    H322680   2.317   7.263  14.131
    9AGAL    O322681   2.517   7.248  14.161
    9AGAL   HO322682   2.506   7.156  14.137
    9AGAL    C422683   2.396   7.460  14.146
    9AGAL    H422684   2.382   7.459  14.256
    9AGAL    O422685   2.513   7.538  14.120
    9AGAL   HO422686   2.493   7.590  14.041
    9AGAL    C622687   2.236   7.663  14.120
    9AGAL   H6122688   2.133   7.685  14.084
    9AGAL   H6222689   2.236   7.673  14.230
    9AGAL    O622690   2.324   7.760  14.063
    9AGAL   HO622691   2.297   7.773  13.972
   10AGAL    C122692   2.493   7.072  13.921
   10AGAL    H122693   2.600   7.104  13.924
   10AGAL    C522694   2.315   6.979  14.051
   10AGAL    H522695   2.251   7.062  14.015
   10AGAL    O522696   2.453   7.022  14.050
   10AGAL    C222697   2.477   6.960  13.818
   10AGAL    H222698   2.545   6.877  13.849
   10AGAL    O222699   2.520   7.002  13.688
   10AGAL   HO222700   2.553   6.927  13.638
   10AGAL    C322701   2.334   6.909  13.815
   10AGAL    H322702   2.267   6.993  13.786
   10AGAL    O322703   2.314   6.803  13.721
   10AGAL   HO322704   2.328   6.835  13.632
   10AGAL    C422705   2.295   6.862  13.955
   10AGAL    H422706   2.187   6.835  13.953
   10AGAL    O422707   2.368   6.745  13.995
   10AGAL   HO422708   2.404   6.707  13.914
   10AGAL    C622709   2.273   6.951  14.194
   10AGAL   H6122710   2.281   7.043  14.255
   10AGAL   H6222711   2.167   6.918  14.196
   10AGAL    O622712   2.355   6.849  14.252
   10AGAL   HO622713   2.374   6.792  14.178
   11BGLC    C122714   1.935   7.302  14.207
   11BGLC    H122715   1.835   7.257  14.222
   11BGLC    C522716   1.845   7.516  14.266
   11BGLC    H522717   1.747   7.467  14.284
   11BGLC    O522718   1.920   7.440  14.169
   11BGLC    C222719   2.015   7.297  14.337
   11BGLC    H222720   2.114   7.344  14.317
   11BGLC    O222721   2.041   7.163  14.381
   11BGLC   HO222722   1.970   7.107  14.348
   11BGLC    C322723   1.945   7.375  14.444
   11BGLC    H322724   1.848   7.327  14.468
   11BGLC    O322725   2.028   7.388  14.561
   11BGLC    C422726   1.923   7.516  14.397
   11BGLC    H422727   2.021   7.565  14.378
   11BGLC    O422728   1.856   7.588  14.500
   11BGLC   HO422729   1.878   7.541  14.581
   11BGLC    C622730   1.821   7.655  14.209
   11BGLC   H6122731   1.806   7.728  14.292
   11BGLC   H6222732   1.908   7.690  14.150
   11BGLC    O622733   1.703   7.660  14.127
   11BGLC   HO622734   1.725   7.636  14.037
   12BGLCN   C122735   1.983   7.327  14.679
   12BGLCN   H122736   1.986   7.217  14.668
   12BGLCN   C522737   1.806   7.319  14.838
   12BGLCN   H522738   1.806   7.208  14.832
   12BGLCN   O522739   1.852   7.373  14.713
   12BGLCN   C222740   2.081   7.376  14.785
   12BGLCN   H222741   2.065   7.486  14.792
   12BGLCN    N22742   2.218   7.354  14.743
   12BGLCN   HN22743   2.237   7.269  14.694
   12BGLCN    C22744   2.316   7.446  14.753
   12BGLCN    O22745   2.304   7.551  14.814
   12BGLCN   CT22746   2.445   7.411  14.683
   12BGLCN  HT122747   2.522   7.385  14.758
   12BGLCN  HT222748   2.479   7.499  14.625
   12BGLCN  HT322749   2.430   7.326  14.613
   12BGLCN   C322750   2.043   7.317  14.921
   12BGLCN   H322751   2.050   7.206  14.915
   12BGLCN   O322752   2.135   7.366  15.021
   12BGLCN   C422753   1.901   7.362  14.950
   12BGLCN   H422754   1.900   7.473  14.955
   12BGLCN   O422755   1.854   7.315  15.076
   12BGLCN  HO422756   1.829   7.222  15.074
   12BGLCN   C622757   1.663   7.369  14.854
   12BGLCN  H6122758   1.646   7.400  14.959
   12BGLCN  H6222759   1.645   7.459  14.792
   12BGLCN   O622760   1.566   7.268  14.823
   12BGLCN  HO622761   1.562   7.249  14.729
   13AGAL    C122762   2.165   7.279  15.129
   13AGAL    H122763   2.076   7.222  15.161
   13AGAL    C522764   2.394   7.256  15.059
   13AGAL    H522765   2.369   7.323  14.974
   13AGAL    O522766   2.272   7.188  15.097
   13AGAL    C222767   2.215   7.363  15.247
   13AGAL    H222768   2.249   7.291  15.324
   13AGAL    O222769   2.110   7.443  15.304
   13AGAL    C322770   2.337   7.444  15.206
   13AGAL    H322771   2.310   7.500  15.114
   13AGAL    O322772   2.377   7.542  15.302
   13AGAL   HO322773   2.347   7.628  15.271
   13AGAL    C422774   2.448   7.346  15.170
   13AGAL    H422775   2.535   7.403  15.131
   13AGAL    O422776   2.492   7.269  15.282
   13AGAL   HO422777   2.524   7.187  15.245
   13AGAL    C622778   2.495   7.156  15.002
   13AGAL   H6122779   2.445   7.093  14.926
   13AGAL   H6222780   2.577   7.212  14.952
   13AGAL    O622781   2.554   7.071  15.101
   13AGAL   HO622782   2.621   7.014  15.063
   14ARHM    C122783   2.066   7.402  15.431
   14ARHM    H122784   2.070   7.291  15.438
   14ARHM    C522785   1.905   7.575  15.450
   14ARHM    H522786   1.933   7.616  15.350
   14ARHM    O522787   1.928   7.434  15.453
   14ARHM    C222788   2.156   7.464  15.537
   14ARHM    H222789   2.261   7.442  15.510
   14ARHM    O222790   2.137   7.423  15.673
   14ARHM    C322791   2.135   7.614  15.535
   14ARHM    H322792   2.163   7.653  15.435
   14ARHM    O322793   2.219   7.677  15.632
   14ARHM   HO322794   2.236   7.609  15.698
   14ARHM    C422795   1.988   7.643  15.558
   14ARHM    H422796   1.957   7.598  15.655
   14ARHM    O422797   1.960   7.783  15.566
   14ARHM   HO422798   1.979   7.812  15.655
   14ARHM    C622799   1.752   7.591  15.466
   14ARHM   H6122800   1.701   7.542  15.381
   14ARHM   H6222801   1.720   7.540  15.559
   14ARHM   H6322802   1.724   7.698  15.469
   15ARHM    C122803   2.138   7.285  15.698
   15ARHM    H122804   2.206   7.233  15.627
   15ARHM    C522805   1.912   7.290  15.776
   15ARHM    H522806   1.907   7.399  15.755
   15ARHM    O522807   2.006   7.229  15.687
   15ARHM    C222808   2.188   7.264  15.839
   15ARHM    H222809   2.288   7.310  15.850
   15ARHM    O222810   2.200   7.121  15.854
   15ARHM    C322811   2.093   7.330  15.937
   15ARHM    H322812   2.085   7.437  15.907
   15ARHM    O322813   2.144   7.326  16.071
   15ARHM    C422814   1.957   7.267  15.921
   15ARHM    H422815   1.965   7.157  15.936
   15ARHM    O422816   1.862   7.316  16.015
   15ARHM   HO422817   1.774   7.298  15.982
   15ARHM    C622818   1.774   7.230  15.743
   15ARHM   H6122819   1.694   7.280  15.802
   15ARHM   H6222820   1.753   7.245  15.635
   15ARHM   H6322821   1.775   7.121  15.763
   16BMANN   C122822   2.235   7.066  15.977
   16BMANN   H122823   2.156   7.093  16.049
   16BMANN   C522824   2.381   7.067  16.164
   16BMANN   H522825   2.301   7.109  16.228
   16BMANN   O522826   2.361   7.112  16.028
   16BMANN   C222827   2.237   6.914  15.968
   16BMANN   H222828   2.138   6.883  15.928
   16BMANN    N22829   2.337   6.852  15.880
   16BMANN   HN22830   2.389   6.779  15.923
   16BMANN    C22831   2.357   6.872  15.749
   16BMANN    O22832   2.297   6.953  15.680
   16BMANN   CT22833   2.463   6.787  15.685
   16BMANN  HT122834   2.445   6.679  15.708
   16BMANN  HT222835   2.564   6.817  15.722
   16BMANN  HT322836   2.459   6.800  15.575
   16BMANN   C322837   2.250   6.863  16.110
   16BMANN   H322838   2.165   6.902  16.170
   16BMANN   O322839   2.242   6.721  16.112
   16BMANN  HO322840   2.200   6.695  16.195
   16BMANN   C422841   2.380   6.915  16.170
   16BMANN   H422842   2.466   6.876  16.112
   16BMANN   O422843   2.394   6.874  16.307
   16BMANN  HO422844   2.449   6.795  16.312
   16BMANN   C622845   2.514   7.125  16.209
   16BMANN  H6122846   2.528   7.106  16.318
   16BMANN  H6222847   2.595   7.073  16.155
   16BMANN   O622848   2.525   7.265  16.185
   16BMANN  HO622849   2.492   7.283  16.096
   17BGLCN   C122850   2.121   7.443  16.145
   17BGLCN   H122851   2.024   7.489  16.117
   17BGLCN   C522852   2.205   7.656  16.203
   17BGLCN   H522853   2.107   7.699  16.174
   17BGLCN   O522854   2.227   7.536  16.128
   17BGLCN   C222855   2.116   7.399  16.290
   17BGLCN   H222856   2.215   7.358  16.317
   17BGLCN    N22857   2.019   7.291  16.300
   17BGLCN   HN22858   1.949   7.292  16.228
   17BGLCN    C22859   2.024   7.185  16.382
   17BGLCN    O22860   2.108   7.171  16.470
   17BGLCN   CT22861   1.917   7.082  16.362
   17BGLCN  HT122862   1.964   6.983  16.342
   17BGLCN  HT222863   1.851   7.109  16.277
   17BGLCN  HT322864   1.855   7.073  16.455
   17BGLCN   C322865   2.089   7.521  16.378
   17BGLCN   H322866   1.993   7.566  16.344
   17BGLCN   O322867   2.076   7.483  16.517
   17BGLCN   C422868   2.201   7.622  16.352
   17BGLCN   H422869   2.297   7.574  16.380
   17BGLCN   O422870   2.189   7.742  16.429
   17BGLCN  HO422871   2.276   7.771  16.458
   17BGLCN   C622872   2.312   7.757  16.164
   17BGLCN  H6122873   2.286   7.856  16.207
   17BGLCN  H6222874   2.410   7.725  16.205
   17BGLCN   O622875   2.324   7.771  16.022
   17BGLCN  HO622876   2.361   7.689  15.989
   18AGAL    C122877   1.988   7.562  16.597
   18AGAL    H122878   2.025   7.667  16.601
   18AGAL    C522879   1.795   7.430  16.544
   18AGAL    H522880   1.863   7.365  16.484
   18AGAL    O522881   1.854   7.562  16.544
   18AGAL    C222882   1.980   7.510  16.740
   18AGAL    H222883   1.901   7.574  16.785
   18AGAL    O222884   2.098   7.531  16.819
   18AGAL    C322885   1.929   7.366  16.740
   18AGAL    H322886   1.994   7.307  16.671
   18AGAL    O322887   1.938   7.301  16.867
   18AGAL   HO322888   1.866   7.237  16.877
   18AGAL    C422889   1.788   7.368  16.683
   18AGAL    H422890   1.752   7.263  16.673
   18AGAL    O422891   1.696   7.437  16.767
   18AGAL   HO422892   1.625   7.467  16.709
   18AGAL    C622893   1.663   7.430  16.467
   18AGAL   H6122894   1.679   7.473  16.366
   18AGAL   H6222895   1.630   7.325  16.453
   18AGAL    O622896   1.558   7.501  16.533
   18AGAL   HO622897   1.557   7.591  16.499
   19ARHM    C122898   2.066   7.558  16.955
   19ARHM    H122899   1.966   7.516  16.980
   19ARHM    C522900   2.185   7.765  16.964
   19ARHM    H522901   2.217   7.751  16.858
   19ARHM    O522902   2.060   7.698  16.985
   19ARHM    C222903   2.170   7.491  17.043
   19ARHM    H222904   2.182   7.388  17.005
   19ARHM    O222905   2.132   7.484  17.182
   19ARHM    C322906   2.304   7.558  17.027
   19ARHM    H322907   2.336   7.547  16.921
   19ARHM    O322908   2.400   7.493  17.110
   19ARHM   HO322909   2.362   7.485  17.197
   19ARHM    C422910   2.291   7.706  17.057
   19ARHM    H422911   2.256   7.720  17.161
   19ARHM    O422912   2.416   7.775  17.044
   19ARHM   HO422913   2.472   7.725  16.984
   19ARHM    C622914   2.157   7.914  16.987
   19ARHM   H6122915   2.077   7.948  16.918
   19ARHM   H6222916   2.124   7.932  17.091
   19ARHM   H6322917   2.249   7.974  16.967
   20ARHM    C122918   2.027   7.393  17.206
   20ARHM    H122919   2.019   7.320  17.122
   20ARHM    C522920   1.892   7.547  17.329
   20ARHM    H522921   1.969   7.626  17.316
   20ARHM    O522922   1.899   7.456  17.218
   20ARHM    C222923   2.057   7.317  17.333
   20ARHM    H222924   2.161   7.277  17.327
   20ARHM    O222925   1.968   7.206  17.350
   20ARHM    C322926   2.052   7.408  17.453
   20ARHM    H322927   2.131   7.485  17.443
   20ARHM    O322928   2.076   7.327  17.569
   20ARHM    C422929   1.916   7.473  17.460
   20ARHM    H422930   1.839   7.394  17.470
   20ARHM    O422931   1.903   7.560  17.573
   20ARHM   HO422932   1.886   7.650  17.544
   20ARHM    C622933   1.754   7.612  17.319
   20ARHM   H6122934   1.675   7.534  17.326
   20ARHM   H6222935   1.737   7.686  17.401
   20ARHM   H6322936   1.742   7.664  17.221
   21BMANN   C122937   1.993   7.097  17.265
   21BMANN   H122938   2.082   7.115  17.201
   21BMANN   C522939   1.900   6.960  17.093
   21BMANN   H522940   1.992   6.977  17.033
   21BMANN   O522941   1.879   7.071  17.182
   21BMANN   C222942   2.018   6.978  17.355
   21BMANN   H222943   2.115   7.000  17.405
   21BMANN    N22944   1.919   6.964  17.461
   21BMANN   HN22945   1.832   7.009  17.446
   21BMANN    C22946   1.945   6.904  17.578
   21BMANN    O22947   2.053   6.849  17.599
   21BMANN   CT22948   1.837   6.906  17.682
   21BMANN  HT122949   1.756   6.835  17.654
   21BMANN  HT222950   1.794   7.008  17.690
   21BMANN  HT322951   1.880   6.877  17.780
   21BMANN   C322952   2.040   6.856  17.268
   21BMANN   H322953   2.128   6.874  17.204
   21BMANN   O322954   2.069   6.740  17.346
   21BMANN  HO322955   2.066   6.763  17.439
   21BMANN   C422956   1.920   6.834  17.177
   21BMANN   H422957   1.829   6.817  17.239
   21BMANN   O422958   1.939   6.719  17.095
   21BMANN  HO422959   1.993   6.658  17.145
   21BMANN   C622960   1.783   6.951  16.997
   21BMANN  H6122961   1.792   6.860  16.933
   21BMANN  H6222962   1.690   6.942  17.056
   21BMANN   O622963   1.774   7.065  16.911
   21BMANN  HO622964   1.681   7.078  16.890
   22BGLCN   C122965   2.149   7.388  17.672
   22BGLCN   H122966   2.137   7.499  17.670
   22BGLCN   C522967   2.365   7.405  17.772
   22BGLCN   H522968   2.356   7.515  17.773
   22BGLCN   O522969   2.287   7.351  17.663
   22BGLCN   C222970   2.090   7.330  17.799
   22BGLCN   H222971   2.107   7.220  17.797
   22BGLCN    N22972   1.946   7.352  17.802
   22BGLCN   HN22973   1.913   7.425  17.742
   22BGLCN    C22974   1.856   7.274  17.864
   22BGLCN    O22975   1.885   7.175  17.930
   22BGLCN   CT22976   1.712   7.315  17.850
   22BGLCN  HT122977   1.655   7.230  17.806
   22BGLCN  HT222978   1.703   7.403  17.783
   22BGLCN  HT322979   1.670   7.339  17.949
   22BGLCN   C322980   2.165   7.387  17.918
   22BGLCN   H322981   2.155   7.498  17.915
   22BGLCN   O322982   2.102   7.338  18.039
   22BGLCN   C422983   2.312   7.351  17.904
   22BGLCN   H422984   2.320   7.240  17.904
   22BGLCN   O422985   2.391   7.402  18.010
   22BGLCN  HO422986   2.446   7.332  18.047
   22BGLCN   C622987   2.510   7.368  17.745
   22BGLCN  H6122988   2.567   7.362  17.840
   22BGLCN  H6222989   2.515   7.268  17.698
   22BGLCN   O622990   2.575   7.464  17.662
   22BGLCN  HO622991   2.616   7.418  17.589
   23AGAL    C122992   2.125   7.409  18.158
   23AGAL    H122993   2.232   7.401  18.188
   23AGAL    C522994   1.952   7.570  18.120
   23AGAL    H522995   1.926   7.516  18.026
   23AGAL    O522996   2.092   7.549  18.147
   23AGAL    C222997   2.043   7.346  18.269
   23AGAL    H222998   2.068   7.399  18.364
   23AGAL    O222999   2.076   7.207  18.283
   23AGAL    C323000   1.895   7.365  18.243
   23AGAL    H323001   1.871   7.317  18.146
   23AGAL    O323002   1.813   7.301  18.341
   23AGAL   HO323003   1.833   7.338  18.427
   23AGAL    C423004   1.865   7.514  18.231
   23AGAL    H423005   1.758   7.527  18.203
   23AGAL    O423006   1.887   7.585  18.353
   23AGAL   HO423007   1.916   7.672  18.325
   23AGAL    C623008   1.931   7.718  18.090
   23AGAL   H6123009   1.995   7.746  18.004
   23AGAL   H6223010   1.825   7.735  18.059
   23AGAL    O623011   1.960   7.804  18.201
   23AGAL   HO623012   1.946   7.895  18.174
   24ARHM    C123013   2.180   7.176  18.371
   24ARHM    H123014   2.250   7.262  18.377
   24ARHM    C523015   2.179   6.945  18.314
   24ARHM    H523016   2.100   6.962  18.239
   24ARHM    O523017   2.259   7.064  18.328
   24ARHM    C223018   2.119   7.149  18.507
   24ARHM    H223019   2.054   7.235  18.536
   24ARHM    O223020   2.222   7.132  18.606
   24ARHM    C323021   2.032   7.026  18.498
   24ARHM    H323022   1.951   7.045  18.424
   24ARHM    O323023   1.971   6.998  18.624
   24ARHM   HO323024   1.923   6.916  18.612
   24ARHM    C423025   2.115   6.910  18.449
   24ARHM    H423026   2.197   6.891  18.521
   24ARHM    O423027   2.037   6.790  18.438
   24ARHM   HO423028   2.080   6.722  18.491
   24ARHM    C623029   2.274   6.836  18.261
   24ARHM   H6123030   2.218   6.743  18.239
   24ARHM   H6223031   2.322   6.871  18.167
   24ARHM   H6323032   2.354   6.814  18.335
   25ARHM    C123033   2.271   7.251  18.660
   25ARHM    H123034   2.255   7.335  18.588
   25ARHM    C523035   2.448   7.146  18.778
   25ARHM    H523036   2.413   7.047  18.742
   25ARHM    O523037   2.413   7.246  18.681
   25ARHM    C223038   2.196   7.283  18.787
   25ARHM    H223039   2.087   7.274  18.768
   25ARHM    O223040   2.228   7.414  18.836
   25ARHM    C323041   2.230   7.180  18.891
   25ARHM    H323042   2.195   7.081  18.855
   25ARHM    O323043   2.159   7.215  19.011
   25ARHM    C423044   2.380   7.176  18.912
   25ARHM    H423045   2.415   7.276  18.947
   25ARHM    O423046   2.415   7.080  19.011
   25ARHM   HO423047   2.507   7.054  19.005
   25ARHM    C623048   2.602   7.143  18.784
   25ARHM   H6123049   2.643   7.121  18.683
   25ARHM   H6223050   2.641   7.241  18.817
   25ARHM   H6323051   2.638   7.064  18.853
   26BMANN   C123052   2.150   7.516  18.779
   26BMANN   H123053   2.048   7.480  18.753
   26BMANN   C523054   2.138   7.682  18.608
   26BMANN   H523055   2.039   7.644  18.576
   26BMANN   O523056   2.215   7.574  18.664
   26BMANN   C223057   2.141   7.623  18.886
   26BMANN   H223058   2.090   7.575  18.972
   26BMANN    N23059   2.273   7.666  18.929
   26BMANN   HN23060   2.344   7.665  18.859
   26BMANN    C23061   2.303   7.706  19.053
   26BMANN    O23062   2.219   7.716  19.142
   26BMANN   CT23063   2.447   7.740  19.079
   26BMANN  HT123064   2.513   7.669  19.024
   26BMANN  HT223065   2.468   7.732  19.188
   26BMANN  HT323066   2.469   7.843  19.044
   26BMANN   C323067   2.052   7.734  18.834
   26BMANN   H323068   1.954   7.692  18.807
   26BMANN   O323069   2.030   7.832  18.936
   26BMANN  HO323070   2.048   7.794  19.022
   26BMANN   C423071   2.117   7.793  18.711
   26BMANN   H423072   2.215   7.839  18.737
   26BMANN   O423073   2.034   7.894  18.654
   26BMANN  HO423074   2.032   7.969  18.713
   26BMANN   C623075   2.210   7.731  18.482
   26BMANN  H6123076   2.209   7.651  18.406
   26BMANN  H6223077   2.156   7.818  18.439
   26BMANN   O623078   2.347   7.767  18.505
   26BMANN  HO623079   2.360   7.811  18.589
   27BGLCN   C123080   2.117   7.106  19.089
   27BGLCN   H123081   2.186   7.019  19.078
   27BGLCN   C523082   1.937   6.957  19.136
   27BGLCN   H523083   2.005   6.871  19.121
   27BGLCN   O523084   1.983   7.068  19.056
   27BGLCN   C223085   2.119   7.157  19.232
   27BGLCN   H223086   2.043   7.237  19.238
   27BGLCN    N23087   2.249   7.213  19.266
   27BGLCN   HN23088   2.328   7.169  19.225
   27BGLCN    C23089   2.267   7.322  19.343
   27BGLCN    O23090   2.174   7.387  19.389
   27BGLCN   CT23091   2.410   7.362  19.367
   27BGLCN  HT123092   2.479   7.291  19.319
   27BGLCN  HT223093   2.430   7.363   0.004
   27BGLCN  HT323094   2.427   7.464  19.326
   27BGLCN   C323095   2.077   7.045  19.325
   27BGLCN   H323096   2.149   6.961  19.312
   27BGLCN   O323097   2.088   7.098  19.459
   27BGLCN   C423098   1.938   6.999  19.283
   27BGLCN   H423099   1.867   7.083  19.297
   27BGLCN   O423100   1.892   6.889  19.362
   27BGLCN  HO423101   1.945   6.811  19.346
   27BGLCN   C623102   1.799   6.919  19.086
   27BGLCN  H6123103   1.754   6.842  19.153
   27BGLCN  H6223104   1.733   7.008  19.090
   27BGLCN   O623105   1.800   6.867  18.953
   27BGLCN  HO623106   1.710   6.865  18.920
   28AGAL    C123107   2.078   7.008   0.094
   28AGAL    H123108   1.972   6.977   0.106
   28AGAL    C523109   2.301   6.922   0.071
   28AGAL    H523110   2.319   6.998  19.465
   28AGAL    O523111   2.160   6.891   0.073
   28AGAL    C223112   2.119   7.071   0.227
   28AGAL    H223113   2.109   6.987   0.298
   28AGAL    O223114   2.033   7.178   0.273
   28AGAL    C323115   2.266   7.111   0.224
   28AGAL    H323116   2.280   7.178   0.137
   28AGAL    O323117   2.307   7.185   0.339
   28AGAL   HO323118   2.373   7.250   0.315
   28AGAL    C423119   2.349   6.985   0.203
   28AGAL    H423120   2.455   7.015   0.192
   28AGAL    O423121   2.339   6.895   0.314
   28AGAL   HO423122   2.417   6.839   0.317
   28AGAL    C623123   2.380   6.799   0.024
   28AGAL   H6123124   2.344   6.771  19.395
   28AGAL   H6223125   2.487   6.826   0.015
   28AGAL    O623126   2.368   6.686   0.110
   28AGAL   HO623127   2.276   6.659   0.114
   29ARHM    C123128   2.005   7.166   0.411
   29ARHM    H123129   2.086   7.106   0.460
   29ARHM    C523130   1.768   7.177   0.381
   29ARHM    H523131   1.782   7.187   0.271
   29ARHM    O523132   1.878   7.102   0.435
   29ARHM    C223133   2.003   7.300   0.481
   29ARHM    H223134   2.102   7.349   0.465
   29ARHM    O223135   1.977   7.283   0.622
   29ARHM    C323136   1.895   7.387   0.422
   29ARHM    H323137   1.912   7.396   0.312
   29ARHM    O323138   1.897   7.519   0.477
   29ARHM   HO323139   1.835   7.570   0.425
   29ARHM    C423140   1.763   7.316   0.444
   29ARHM    H423141   1.749   7.302   0.554
   29ARHM    O423142   1.650   7.392   0.398
   29ARHM   HO423143   1.638   7.377   0.304
   29ARHM    C623144   1.643   7.093   0.406
   29ARHM   H6123145   1.654   6.993   0.359
   29ARHM   H6223146   1.626   7.078   0.515
   29ARHM   H6323147   1.553   7.141   0.363
   30ARHM    C123148   2.091   7.283   0.705
   30ARHM    H123149   2.149   7.375   0.683
   30ARHM    C523150   2.113   7.045   0.711
   30ARHM    H523151   2.023   7.034   0.647
   30ARHM    O523152   2.177   7.170   0.683
   30ARHM    C223153   2.047   7.284   0.850
   30ARHM    H223154   1.971   7.364   0.864
   30ARHM    O223155   2.158   7.310   0.936
   30ARHM    C323156   1.978   7.152   0.885
   30ARHM    H323157   1.890   7.143   0.818
   30ARHM    O323158   1.926   7.156   1.020
   30ARHM    C423159   2.070   7.036   0.856
   30ARHM    H423160   2.161   7.038   0.920
   30ARHM    O423161   2.003   6.911   0.876
   30ARHM   HO423162   1.934   6.900   0.809
   30ARHM    C623163   2.214   6.936   0.669
   30ARHM   H6123164   2.171   6.835   0.682
   30ARHM   H6223165   2.243   6.949   0.562
   30ARHM   H6323166   2.306   6.944   0.731
   31BMANN   C123167   2.195   7.444   0.954
   31BMANN   H123168   2.106   7.509   0.971
   31BMANN   C523169   2.323   7.625   0.864
   31BMANN   H523170   2.237   7.692   0.884
   31BMANN   O523171   2.274   7.491   0.845
   31BMANN   C223172   2.286   7.440   1.074
   31BMANN   H223173   2.224   7.407   1.161
   31BMANN    N23174   2.390   7.340   1.057
   31BMANN   HN23175   2.402   7.307   0.963
   31BMANN    C23176   2.461   7.285   1.155
   31BMANN    O23177   2.448   7.321   1.271
   31BMANN   CT23178   2.554   7.174   1.116
   31BMANN  HT123179   2.642   7.216   1.062
   31BMANN  HT223180   2.503   7.101   1.050
   31BMANN  HT323181   2.590   7.121   1.207
   31BMANN   C323182   2.334   7.581   1.103
   31BMANN   H323183   2.245   7.647   1.112
   31BMANN   O323184   2.401   7.589   1.228
   31BMANN  HO323185   2.438   7.503   1.249
   31BMANN   C423186   2.415   7.632   0.985
   31BMANN   H423187   2.504   7.568   0.969
   31BMANN   O423188   2.458   7.766   1.004
   31BMANN  HO423189   2.480   7.784   1.096
   31BMANN   C623190   2.387   7.667   0.733
   31BMANN  H6123191   2.457   7.752   0.749
   31BMANN  H6223192   2.446   7.583   0.691
   31BMANN   O623193   2.288   7.709   0.639
   31BMANN  HO623194   2.261   7.798   0.664
   32BGLCN   C123195   2.017   7.129   1.125
   32BGLCN   H123196   2.119   7.166   1.100
   32BGLCN   C523197   2.129   6.962   1.254
   32BGLCN   H523198   2.225   7.003   1.217
   32BGLCN   O523199   2.028   6.990   1.156
   32BGLCN   C223200   1.970   7.198   1.252
   32BGLCN   H223201   1.881   7.141   1.287
   32BGLCN    N23202   1.928   7.335   1.227
   32BGLCN   HN23203   1.990   7.391   1.171
   32BGLCN    C23204   1.808   7.384   1.261
   32BGLCN    O23205   1.727   7.321   1.328
   32BGLCN   CT23206   1.774   7.522   1.212
   32BGLCN  HT123207   1.795   7.528   1.103
   32BGLCN  HT223208   1.833   7.598   1.267
   32BGLCN  HT323209   1.666   7.540   1.228
   32BGLCN   C323210   2.078   7.181   1.358
   32BGLCN   H323211   2.173   7.218   1.314
   32BGLCN   O323212   2.053   7.253   1.480
   32BGLCN   C423213   2.093   7.032   1.385
   32BGLCN   H423214   1.995   6.993   1.419
   32BGLCN   O423215   2.187   7.006   1.488
   32BGLCN  HO423216   2.162   7.060   1.563
   32BGLCN   C623217   2.147   6.812   1.268
   32BGLCN  H6123218   2.244   6.791   1.319
   32BGLCN  H6223219   2.065   6.770   1.330
   32BGLCN   O623220   2.148   6.744   1.142
   32BGLCN  HO623221   2.219   6.779   1.088
   33AGAL    C123222   2.166   7.323   1.529
   33AGAL    H123223   2.258   7.262   1.515
   33AGAL    C523224   2.075   7.537   1.476
   33AGAL    H523225   1.981   7.485   1.448
   33AGAL    O523226   2.184   7.446   1.457
   33AGAL    C223227   2.152   7.355   1.677
   33AGAL    H223228   2.246   7.406   1.707
   33AGAL    O223229   2.142   7.230   1.750
   33AGAL    C323230   2.036   7.451   1.702
   33AGAL    H323231   1.943   7.402   1.666
   33AGAL    O323232   2.016   7.482   1.839
   33AGAL   HO323233   2.088   7.539   1.866
   33AGAL    C423234   2.059   7.577   1.622
   33AGAL    H423235   1.970   7.642   1.631
   33AGAL    O423236   2.172   7.651   1.669
   33AGAL   HO423237   2.211   7.693   1.591
   33AGAL    C623238   2.090   7.653   1.379
   33AGAL   H6123239   2.095   7.613   1.275
   33AGAL   H6223240   1.999   7.717   1.385
   33AGAL    O623241   2.205   7.734   1.403
   33AGAL   HO623242   2.283   7.695   1.362
   34ARHM    C123243   2.210   7.230   1.874
   34ARHM    H123244   2.178   7.319   1.933
   34ARHM    C523245   2.406   7.124   1.789
   34ARHM    H523246   2.364   7.119   1.686
   34ARHM    O523247   2.352   7.237   1.858
   34ARHM    C223248   2.171   7.104   1.950
   34ARHM    H223249   2.060   7.099   1.953
   34ARHM    O223250   2.219   7.098   2.087
   34ARHM    C323251   2.223   6.983   1.876
   34ARHM    H323252   2.178   6.982   1.774
   34ARHM    O323253   2.184   6.860   1.939
   34ARHM   HO323254   2.215   6.788   1.884
   34ARHM    C423255   2.373   6.994   1.862
   34ARHM    H423256   2.419   6.999   1.963
   34ARHM    O423257   2.430   6.883   1.793
   34ARHM   HO423258   2.451   6.815   1.858
   34ARHM    C623259   2.557   7.151   1.777
   34ARHM   H6123260   2.604   7.156   1.878
   34ARHM   H6223261   2.607   7.071   1.718
   34ARHM   H6323262   2.575   7.248   1.726
   35ARHM    C123263   2.188   7.205   2.173
   35ARHM    H123264   2.083   7.238   2.156
   35ARHM    C523265   2.415   7.278   2.166
   35ARHM    H523266   2.439   7.198   2.094
   35ARHM    O523267   2.277   7.316   2.153
   35ARHM    C223268   2.206   7.155   2.315
   35ARHM    H223269   2.141   7.066   2.329
   35ARHM    O223270   2.173   7.253   2.416
   35ARHM    C323271   2.349   7.110   2.335
   35ARHM    H323272   2.372   7.029   2.263
   35ARHM    O323273   2.370   7.056   2.466
   35ARHM   HO323274   2.294   7.072   2.523
   35ARHM    C423275   2.441   7.227   2.307
   35ARHM    H423276   2.419   7.309   2.378
   35ARHM    O423277   2.579   7.191   2.322
   35ARHM   HO423278   2.599   7.191   2.416
   35ARHM    C623279   2.497   7.402   2.127
   35ARHM   H6123280   2.472   7.433   2.024
   35ARHM   H6223281   2.474   7.486   2.196
   35ARHM   H6323282   2.606   7.379   2.132
   36BMANN   C123283   2.036   7.285   2.426
   36BMANN   H123284   1.974   7.196   2.403
   36BMANN   C523285   1.864   7.427   2.342
   36BMANN   H523286   1.805   7.337   2.314
   36BMANN   O523287   2.004   7.394   2.338
   36BMANN   C223288   2.008   7.331   2.568
   36BMANN   H223289   2.030   7.244   2.633
   36BMANN    N23290   2.091   7.444   2.612
   36BMANN   HN23291   2.094   7.522   2.550
   36BMANN    C23292   2.147   7.453   2.733
   36BMANN    O23293   2.155   7.358   2.810
   36BMANN   CT23294   2.201   7.588   2.772
   36BMANN  HT123295   2.144   7.668   2.722
   36BMANN  HT223296   2.309   7.595   2.745
   36BMANN  HT323297   2.192   7.600   2.882
   36BMANN   C323298   1.859   7.360   2.580
   36BMANN   H323299   1.802   7.268   2.554
   36BMANN   O323300   1.825   7.395   2.714
   36BMANN  HO323301   1.833   7.319   2.771
   36BMANN   C423302   1.822   7.470   2.482
   36BMANN   H423303   1.875   7.563   2.510
   36BMANN   O423304   1.682   7.496   2.481
   36BMANN  HO423305   1.662   7.570   2.539
   36BMANN   C623306   1.839   7.534   2.237
   36BMANN  H6123307   1.882   7.501   2.140
   36BMANN  H6223308   1.729   7.546   2.222
   36BMANN   O623309   1.895   7.660   2.273
   36BMANN  HO623310   1.824   7.720   2.300
    1ECLIP HB6S23311   4.151   0.459  11.837
    1ECLIP  OB623312   4.185   0.291  11.953
    1ECLIP  CB623313   4.235   0.391  11.863
    1ECLIP HB6R23314   4.315   0.452  11.909
    1ECLIP  CB523315   4.291   0.336  11.735
    1ECLIP  OB523316   4.188   0.254  11.681
    1ECLIP  HB523317   4.379   0.273  11.760
    1ECLIP  CB123318   4.231   0.182  11.567
    1ECLIP  HB123319   4.321   0.123  11.595
    1ECLIP  OA623320   4.133   0.091  11.530
    1ECLIP  CA623321   3.998   0.141  11.542
    1ECLIP HA6R23322   3.994   0.250  11.521
    1ECLIP HA6S23323   3.962   0.126  11.646
    1ECLIP  CB423324   4.332   0.442  11.632
    1ECLIP  HB423325   4.246   0.507  11.607
    1ECLIP  OB423326   4.441   0.516  11.688
    1ECLIP   PB23327   4.442   0.676  11.733
    1ECLIP OPB423328   4.527   0.685  11.859
    1ECLIP OPB323329   4.300   0.719  11.768
    1ECLIP OPB223330   4.499   0.760  11.621
    1ECLIP  CB323331   4.376   0.367  11.508
    1ECLIP  OB323332   4.406   0.465  11.409
    1ECLIP  HB323333   4.465   0.306  11.537
    1ECLIP  C7123334   4.506   0.439  11.329
    1ECLIP  O7123335   4.574   0.338  11.330
    1ECLIP  C7223336   4.483   0.514  11.200
    1ECLIP H72R23337   4.443   0.442  11.127
    1ECLIP H72S23338   4.583   0.550  11.166
    1ECLIP  CB223339   4.268   0.274  11.452
    1ECLIP  HB223340   4.180   0.336  11.427
    1ECLIP  NB223341   4.310   0.199  11.330
    1ECLIP HNB223342   4.393   0.144  11.341
    1ECLIP  CA423343   3.986   8.096  11.377
    1ECLIP  HA423344   4.077   0.000  11.336
    1ECLIP  OA423345   4.023   8.002  11.478
    1ECLIP HOA423346   4.066   8.055  11.545
    1ECLIP  CA523347   3.910   0.064  11.444
    1ECLIP  HA523348   3.819   0.027  11.497
    1ECLIP  OA523349   3.874   0.160  11.344
    1ECLIP  CA123350   3.795   0.104  11.238
    1ECLIP  HA123351   3.761   0.184  11.170
    1ECLIP  OA123352   3.689   0.030  11.291
    1ECLIP OPA223353   3.500   8.122  11.441
    1ECLIP OPA323354   3.528   0.218  11.364
    1ECLIP OPA423355   3.456   0.025  11.210
    1ECLIP   PA23356   3.541   0.072  11.328
    1ECLIP  CA323357   3.913   8.030  11.262
    1ECLIP  HA323358   3.819   7.986  11.303
    1ECLIP  OA323359   3.982   7.914  11.210
    1ECLIP  C3123360   4.113   7.923  11.193
    1ECLIP  O3123361   4.173   8.026  11.168
    1ECLIP  C3223362   4.180   7.814  11.278
    1ECLIP H32R23363   4.161   7.713  11.236
    1ECLIP H32S23364   4.133   7.814  11.379
    1ECLIP  CA223365   3.878   8.144  11.163
    1ECLIP  HA223366   3.974   0.048  11.136
    1ECLIP  NA223367   3.810   8.109  11.039
    1ECLIP HNA223368   3.734   8.044  11.048
    1ECLIP  C7323369   4.390   0.635  11.210
    1ECLIP H73R23370   4.410   0.691  11.304
    1ECLIP  O7323371   4.257   0.583  11.204
    1ECLIP  C8123372   4.163   0.664  11.250
    1ECLIP  O8123373   4.181   0.780  11.286
    1ECLIP  C8223374   4.029   0.614  11.197
    1ECLIP H82R23375   3.952   0.688  11.229
    1ECLIP H82S23376   4.007   0.516  11.244
    1ECLIP  C8323377   4.029   0.600  11.044
    1ECLIP H83R23378   4.091   0.512  11.016
    1ECLIP H83S23379   4.077   0.690  10.998
    1ECLIP  C8423380   3.889   0.585  10.984
    1ECLIP H84R23381   3.831   0.678  11.001
    1ECLIP H84S23382   3.837   0.501  11.035
    1ECLIP  C8523383   3.896   0.554  10.834
    1ECLIP H85R23384   3.945   0.455  10.822
    1ECLIP H85S23385   3.960   0.630  10.784
    1ECLIP  C8623386   3.759   0.550  10.765
    1ECLIP H86R23387   3.722   0.654  10.753
    1ECLIP H86S23388   3.688   0.496  10.830
    1ECLIP  C8723389   3.762   0.480  10.628
    1ECLIP H87R23390   3.662   0.487  10.580
    1ECLIP H87S23391   3.782   0.372  10.647
    1ECLIP  C8823392   3.870   0.533  10.533
    1ECLIP H88R23393   3.969   0.523  10.583
    1ECLIP H88S23394   3.853   0.641  10.513
    1ECLIP  C8923395   3.880   0.456  10.400
    1ECLIP H89R23396   3.880   0.346  10.421
    1ECLIP H89S23397   3.978   0.481  10.356
    1ECLIP C81023398   3.768   0.489  10.300
    1ECLIPH810R23399   3.735   0.594  10.317
    1ECLIPH810S23400   3.680   0.425  10.321
    1ECLIP C81123401   3.810   0.474  10.153
    1ECLIPH811R23402   3.722   0.498  10.089
    1ECLIPH811S23403   3.838   0.369  10.133
    1ECLIP C81223404   3.927   0.565  10.108
    1ECLIPH812R23405   3.938   0.558   9.998
    1ECLIPH812S23406   4.022   0.526  10.152
    1ECLIP C81323407   3.910   0.712  10.149
    1ECLIPH813R23408   3.813   0.749  10.110
    1ECLIPH813S23409   3.905   0.718  10.260
    1ECLIP C81423410   4.024   0.803  10.102
    1ECLIPH814R23411   4.025   0.808   9.991
    1ECLIPH814S23412   4.121   0.764  10.138
    1ECLIPH814T23413   4.010   0.905  10.142
    1ECLIP  C7423414   4.414   0.730  11.089
    1ECLIP H74R23415   4.515   0.776  11.099
    1ECLIP H74S23416   4.340   0.812  11.096
    1ECLIP  C7523417   4.402   0.665  10.949
    1ECLIP H75R23418   4.380   0.747  10.876
    1ECLIP H75S23419   4.316   0.595  10.947
    1ECLIP  C7623420   4.529   0.593  10.899
    1ECLIP H76R23421   4.552   0.504  10.960
    1ECLIP H76S23422   4.616   0.662  10.905
    1ECLIP  C7723423   4.515   0.542  10.755
    1ECLIP H77R23424   4.509   0.631  10.689
    1ECLIP H77S23425   4.420   0.486  10.745
    1ECLIP  C7823426   4.632   0.451  10.715
    1ECLIP H78R23427   4.726   0.510  10.726
    1ECLIP H78S23428   4.638   0.365  10.786
    1ECLIP  C7923429   4.621   0.397  10.572
    1ECLIP H79R23430   4.552   0.310  10.570
    1ECLIP H79S23431   4.721   0.361  10.539
    1ECLIP C71023432   4.568   0.502  10.475
    1ECLIPH710R23433   4.463   0.525  10.502
    1ECLIPH710S23434   4.627   0.596  10.485
    1ECLIP C71123435   4.569   0.459  10.329
    1ECLIPH711R23436   4.673   0.458  10.289
    1ECLIPH711S23437   4.529   0.355  10.322
    1ECLIP C71223438   4.480   0.552  10.246
    1ECLIPH712R23439   4.529   0.651  10.235
    1ECLIPH712S23440   4.384   0.568  10.301
    1ECLIP C71323441   4.446   0.494  10.109
    1ECLIPH713R23442   4.394   0.397  10.123
    1ECLIPH713S23443   4.374   0.563  10.060
    1ECLIP C71423444   4.568   0.473  10.020
    1ECLIPH714R23445   4.622   0.569  10.012
    1ECLIPH714S23446   4.637   0.399  10.065
    1ECLIPH714T23447   4.539   0.437   9.919
    1ECLIP  C5123448   4.260   0.211  11.204
    1ECLIP  O5123449   4.162   0.280  11.180
    1ECLIP  C5223450   4.335   0.137  11.091
    1ECLIP H52R23451   4.433   0.185  11.076
    1ECLIP H52S23452   4.352   0.032  11.125
    1ECLIP  C5323453   4.259   0.131  10.954
    1ECLIP H53R23454   4.151   0.110  10.973
    1ECLIP  O5323455   4.322   0.032  10.871
    1ECLIP  C6123456   4.247   8.075  10.828
    1ECLIP  O6123457   4.134   8.049  10.864
    1ECLIP  C6223458   4.317   8.003  10.712
    1ECLIP H62R23459   4.385   7.927  10.756
    1ECLIP H62S23460   4.377   8.078  10.656
    1ECLIP  C6323461   4.215   7.933  10.617
    1ECLIP H63R23462   4.140   8.007  10.582
    1ECLIP H63S23463   4.160   7.856  10.675
    1ECLIP  C6423464   4.277   7.865  10.493
    1ECLIP H64R23465   4.200   7.800  10.446
    1ECLIP H64S23466   4.362   7.801  10.525
    1ECLIP  C6523467   4.324   7.966  10.386
    1ECLIP H65R23468   4.393   8.038  10.436
    1ECLIP H65S23469   4.237   8.024  10.349
    1ECLIP  C6623470   4.400   7.903  10.267
    1ECLIP H66R23471   4.475   7.831  10.306
    1ECLIP H66S23472   4.456   7.984  10.216
    1ECLIP  C6723473   4.313   7.834  10.161
    1ECLIP H67R23474   4.263   7.745  10.205
    1ECLIP H67S23475   4.380   7.797  10.080
    1ECLIP  C6823476   4.206   7.925  10.099
    1ECLIP H68R23477   4.252   8.022  10.071
    1ECLIP H68S23478   4.128   7.945  10.175
    1ECLIP  C6923479   4.139   7.864   9.975
    1ECLIP H69R23480   4.108   7.760   9.998
    1ECLIP H69S23481   4.214   7.860   9.893
    1ECLIP C61023482   4.016   7.944   9.930
    1ECLIPH610R23483   4.044   8.050   9.913
    1ECLIPH610S23484   3.942   7.943  10.013
    1ECLIP C61123485   3.948   7.888   9.805
    1ECLIPH611R23486   3.928   7.780   9.822
    1ECLIPH611S23487   3.850   7.938   9.793
    1ECLIP C61223488   4.029   7.904   9.675
    1ECLIPH612R23489   4.049   8.012   9.657
    1ECLIPH612S23490   4.125   7.850   9.681
    1ECLIPH612T23491   3.971   7.864   9.589
    1ECLIP  C5423492   4.272   0.266  10.878
    1ECLIP H54R23493   4.379   0.286  10.859
    1ECLIP H54S23494   4.235   0.345  10.946
    1ECLIP  C5523495   4.193   0.281  10.745
    1ECLIP H55R23496   4.188   0.390  10.724
    1ECLIP H55S23497   4.088   0.247  10.760
    1ECLIP  C5623498   4.253   0.213  10.620
    1ECLIP H56R23499   4.228   0.105  10.622
    1ECLIP H56S23500   4.364   0.224  10.622
    1ECLIP  C5723501   4.200   0.273  10.488
    1ECLIP H57R23502   4.224   0.381  10.484
    1ECLIP H57S23503   4.089   0.264  10.490
    1ECLIP  C5823504   4.252   0.206  10.360
    1ECLIP H58R23505   4.362   0.223  10.351
    1ECLIP H58S23506   4.237   0.096  10.367
    1ECLIP  C5923507   4.182   0.258  10.233
    1ECLIP H59R23508   4.201   0.367  10.226
    1ECLIP H59S23509   4.072   0.246  10.245
    1ECLIP C51023510   4.225   0.190  10.101
    1ECLIPH510R23511   4.193   0.084  10.101
    1ECLIPH510S23512   4.336   0.192  10.096
    1ECLIP C51123513   4.167   0.262   9.977
    1ECLIPH511R23514   4.059   0.239   9.967
    1ECLIPH511S23515   4.175   0.371   9.997
    1ECLIP C51223516   4.242   0.235   9.845
    1ECLIPH512R23517   4.224   0.321   9.777
    1ECLIPH512S23518   4.351   0.230   9.864
    1ECLIP C51323519   4.196   0.109   9.770
    1ECLIPH513R23520   4.087   0.119   9.749
    1ECLIPH513S23521   4.208   0.021   9.837
    1ECLIP C51423522   4.271   0.085   9.639
    1ECLIPH514R23523   4.380   0.077   9.658
    1ECLIPH514S23524   4.238   8.134   9.592
    1ECLIPH514T23525   4.253   0.168   9.568
    1ECLIP  C3323526   4.332   7.836  11.294
    1ECLIP H33R23527   4.376   7.753  11.354
    1ECLIP  O3323528   4.349   7.956  11.368
    1ECLIP HO3323529   4.299   8.028  11.328
    1ECLIP  C3423530   4.407   7.844  11.159
    1ECLIP H34R23531   4.341   7.885  11.080
    1ECLIP H34S23532   4.433   7.741  11.126
    1ECLIP  C3523533   4.534   7.932  11.158
    1ECLIP H35R23534   4.616   7.883  11.214
    1ECLIP H35S23535   4.513   8.029  11.209
    1ECLIP  C3623536   4.577   7.970  11.015
    1ECLIP H36R23537   4.488   8.016  10.966
    1ECLIP H36S23538   4.605   7.881  10.956
    1ECLIP  C3723539   4.689   8.075  11.014
    1ECLIP H37R23540   4.788   8.025  11.026
    1ECLIP H37S23541   4.676   8.143  11.100
    1ECLIP  C3823542   4.690   0.017  10.887
    1ECLIP H38R23543   4.598   0.078  10.884
    1ECLIP H38S23544   4.776   0.087  10.893
    1ECLIP  C3923545   4.700   8.082  10.756
    1ECLIP H39R23546   4.605   8.027  10.739
    1ECLIP H39S23547   4.782   8.007  10.762
    1ECLIP C31023548   4.726   0.032  10.638
    1ECLIPH310R23549   4.831   0.069  10.644
    1ECLIPH310S23550   4.660   0.120  10.649
    1ECLIP C31123551   4.700   8.114  10.500
    1ECLIPH311R23552   4.758   8.019  10.489
    1ECLIPH311S23553   4.592   8.089  10.493
    1ECLIP C31223554   4.738   0.067  10.389
    1ECLIPH312R23555   4.700   0.168  10.415
    1ECLIPH312S23556   4.849   0.075  10.382
    1ECLIP C31323557   4.681   0.031  10.252
    1ECLIPH313R23558   4.713   8.073  10.223
    1ECLIPH313S23559   4.570   0.031  10.259
    1ECLIP C31423560   4.724   0.131  10.145
    1ECLIPH314R23561   4.834   0.126  10.129
    1ECLIPH314S23562   4.673   0.112  10.048
    1ECLIPH314T23563   4.699   0.234  10.178
    1ECLIP  C1123564   3.820   0.041  10.928
    1ECLIP  O1123565   3.910   0.122  10.910
    1ECLIP  C1223566   3.709   0.031  10.826
    1ECLIP H12R23567   3.630   0.104  10.854
    1ECLIP H12S23568   3.664   8.073  10.828
    1ECLIP  C1323569   3.759   0.064  10.684
    1ECLIP H13R23570   3.799   0.168  10.681
    1ECLIP  O1323571   3.647   0.056  10.598
    1ECLIP HO1323572   3.665   0.083  10.508
    1ECLIP  C1423573   3.870   8.112  10.634
    1ECLIP H14R23574   3.855   8.017  10.691
    1ECLIP H14S23575   3.969   0.007  10.665
    1ECLIP  C1523576   3.872   8.075  10.484
    1ECLIP H15R23577   3.769   8.046  10.452
    1ECLIP H15S23578   3.935   7.985  10.471
    1ECLIP  C1623579   3.926   0.039  10.391
    1ECLIP H16R23580   4.037   0.033  10.395
    1ECLIP H16S23581   3.897   0.139  10.428
    1ECLIP  C1723582   3.879   0.022  10.245
    1ECLIP H17R23583   3.875   8.058  10.220
    1ECLIP H17S23584   3.954   0.070  10.178
    1ECLIP  C1823585   3.743   0.089  10.222
    1ECLIP H18R23586   3.671   0.049  10.296
    1ECLIP H18S23587   3.752   0.198  10.240
    1ECLIP  C1923588   3.684   0.065  10.082
    1ECLIP H19R23589   3.586   0.117  10.075
    1ECLIP H19S23590   3.665   8.101  10.071
    1ECLIP C11023591   3.771   0.111   9.964
    1ECLIPH110R23592   3.785   0.221   9.965
    1ECLIPH110S23593   3.872   0.064   9.971
    1ECLIP C11123594   3.706   0.066   9.833
    1ECLIPH111R23595   3.682   8.103   9.846
    1ECLIPH111S23596   3.610   0.121   9.817
    1ECLIP C11223597   3.793   0.077   9.707
    1ECLIPH112R23598   3.803   0.183   9.676
    1ECLIPH112S23599   3.894   0.037   9.729
    1ECLIP C11323600   3.731   8.134   9.596
    1ECLIPH113R23601   3.728   8.031   9.637
    1ECLIPH113S23602   3.626   0.022   9.580
    1ECLIP C11423603   3.804   8.131   9.462
    1ECLIPH114R23604   3.765   0.067   9.396
    1ECLIPH114S23605   3.914   8.143   9.475
    1ECLIPH114T23606   3.785   8.035   9.409
    2AKDO    C123607   4.394   0.178  12.021
    2AKDO   O1123608   4.496   0.193  12.093
    2AKDO   O1223609   4.369   0.078  11.947
    2AKDO    C223610   4.269   0.264  12.064
    2AKDO    C623611   4.197   0.467  12.172
    2AKDO    H623612   4.130   0.484  12.085
    2AKDO    O623613   4.309   0.385  12.131
    2AKDO    C323614   4.184   0.189  12.166
    2AKDO   H3123615   4.253   0.170  12.251
    2AKDO   H3223616   4.151   0.093  12.120
    2AKDO    C423617   4.065   0.264  12.216
    2AKDO    H423618   3.992   0.282  12.134
    2AKDO    O423619   4.006   0.192  12.324
    2AKDO    C523620   4.110   0.396  12.279
    2AKDO    H523621   4.017   0.456  12.290
    2AKDO    O523622   4.167   0.378  12.412
    2AKDO    C723623   4.261   0.601  12.203
    2AKDO    H723624   4.335   0.583  12.284
    2AKDO    O723625   4.164   0.700  12.242
    2AKDO   HO723626   4.114   0.714  12.162
    2AKDO    C823627   4.337   0.651  12.082
    2AKDO   H8123628   4.408   0.573  12.048
    2AKDO   H8223629   4.266   0.668  11.998
    2AKDO    O823630   4.418   0.768  12.100
    2AKDO   HO823631   4.472   0.760  12.021
    3AKDO    C123632   3.801   0.090  12.225
    3AKDO   O1123633   3.818   0.066  12.102
    3AKDO   O1223634   3.691   0.085  12.288
    3AKDO    C223635   3.928   0.075  12.315
    3AKDO    C623636   4.117   8.069  12.349
    3AKDO    H623637   4.193   0.004  12.339
    3AKDO    O623638   3.997   8.098  12.275
    3AKDO    C323639   3.895   0.066  12.465
    3AKDO   H3123640   3.822   8.128  12.481
    3AKDO   H3223641   3.846   0.160  12.496
    3AKDO    C423642   4.020   0.044  12.546
    3AKDO    H423643   4.092   0.127  12.529
    3AKDO    O423644   3.987   0.043  12.684
    3AKDO   HO423645   3.919   0.110  12.697
    3AKDO    C523646   4.084   8.059  12.498
    3AKDO    H523647   4.178   8.044  12.555
    3AKDO    O523648   3.999   7.949  12.524
    3AKDO   HO523649   3.919   7.971  12.476
    3AKDO    C723650   4.175   7.941  12.288
    3AKDO    H723651   4.094   7.866  12.280
    3AKDO    O723652   4.281   7.890  12.370
    3AKDO   HO723653   4.327   7.828  12.312
    3AKDO    C823654   4.228   7.965  12.147
    3AKDO   H8123655   4.150   8.014  12.085
    3AKDO   H8223656   4.316   8.032  12.149
    3AKDO    O823657   4.263   7.840  12.086
    3AKDO   HO823658   4.184   7.786  12.090
    4AHEP    C123659   4.154   0.489  12.499
    4AHEP    H123660   4.209   0.572  12.451
    4AHEP    C523661   3.939   0.458  12.603
    4AHEP    H523662   3.941   0.357  12.557
    4AHEP    O523663   4.022   0.542  12.519
    4AHEP    C223664   4.222   0.471  12.635
    4AHEP    H223665   4.315   0.414  12.614
    4AHEP    O223666   4.264   0.596  12.692
    4AHEP   HO223667   4.314   0.643  12.625
    4AHEP    C323668   4.138   0.386  12.730
    4AHEP    H323669   4.126   0.286  12.683
    4AHEP    O323670   4.200   0.376  12.860
    4AHEP    C423671   4.000   0.447  12.745
    4AHEP    H423672   4.011   0.550  12.787
    4AHEP    O423673   3.920   0.364  12.831
    4AHEP    P423674   3.839   0.416  12.966
    4AHEP  OP4223675   3.782   0.293  13.035
    4AHEP  OP4323676   3.726   0.507  12.920
    4AHEP  OP4423677   3.934   0.489  13.060
    4AHEP    C623678   3.792   0.502  12.597
    4AHEP    H623679   3.732   0.418  12.638
    4AHEP    O623680   3.771   0.616  12.682
    4AHEP   HO623681   3.767   0.575  12.768
    4AHEP    C723682   3.737   0.530  12.456
    4AHEP   H7123683   3.627   0.537  12.461
    4AHEP   H7223684   3.761   0.441  12.392
    4AHEP    O723685   3.788   0.648  12.389
    4AHEP   HO723686   3.775   0.633  12.295
    5AHEP    C123687   4.245   0.248  12.899
    5AHEP    H123688   4.195   0.170  12.837
    5AHEP    C523689   4.461   0.326  12.967
    5AHEP    H523690   4.421   0.428  12.947
    5AHEP    O523691   4.387   0.235  12.883
    5AHEP    C223692   4.207   0.221  13.044
    5AHEP    H223693   4.099   0.245  13.055
    5AHEP    O223694   4.224   0.082  13.080
    5AHEP   HO223695   4.179   0.028  13.015
    5AHEP    C323696   4.285   0.314  13.135
    5AHEP    H323697   4.261   0.419  13.106
    5AHEP    O323698   4.258   0.294  13.274
    5AHEP    C423699   4.433   0.293  13.113
    5AHEP    H423700   4.457   0.185  13.129
    5AHEP    O423701   4.512   0.380  13.195
    5AHEP    P423702   4.587   0.321  13.329
    5AHEP  OP4223703   4.682   0.431  13.370
    5AHEP  OP4323704   4.666   0.199  13.283
    5AHEP  OP4423705   4.483   0.286  13.433
    5AHEP    C623706   4.608   0.334  12.926
    5AHEP    H623707   4.652   0.424  12.975
    5AHEP    O623708   4.681   0.218  12.968
    5AHEP   HO623709   4.663   0.161  12.893
    5AHEP    C723710   4.616   0.348  12.775
    5AHEP   H7123711   4.700   0.417  12.751
    5AHEP   H7223712   4.525   0.397  12.733
    5AHEP    O723713   4.646   0.223  12.713
    6AHEP    C123714   4.539   0.167  12.640
    6AHEP    H123715   4.445   0.225  12.651
    6AHEP    C523716   4.691   0.086  12.474
    6AHEP    H523717   4.772   0.136  12.531
    6AHEP    O523718   4.568   0.156  12.501
    6AHEP    C223719   4.518   0.028  12.695
    6AHEP    H223720   4.501   0.039  12.805
    6AHEP    O223721   4.400   8.110  12.643
    6AHEP   HO223722   4.376   0.011  12.562
    6AHEP    C323723   4.644   8.090  12.675
    6AHEP    H323724   4.728   8.139  12.727
    6AHEP    O323725   4.630   7.960  12.734
    6AHEP   HO323726   4.614   7.898  12.663
    6AHEP    C423727   4.678   8.087  12.526
    6AHEP    H423728   4.596   8.035  12.471
    6AHEP    O423729   4.800   8.016  12.506
    6AHEP   HO423730   4.799   7.978  12.418
    6AHEP    C623731   4.730   0.098  12.327
    6AHEP    H623732   4.831   0.052  12.314
    6AHEP    O623733   4.639   0.025  12.244
    6AHEP   HO623734   4.579   0.091  12.209
    6AHEP    C723735   4.740   0.243  12.278
    6AHEP   H7123736   4.770   0.245  12.171
    6AHEP   H7223737   4.820   0.295  12.335
    6AHEP    O723738   4.620   0.320  12.293
    6AHEP   HO723739   4.564   0.299  12.217
    7AGLC    C123740   4.162   0.380  13.325
    7AGLC    H123741   4.167   0.481  13.278
    7AGLC    C523742   4.019   0.195  13.362
    7AGLC    H523743   4.100   0.129  13.325
    7AGLC    O523744   4.032   0.325  13.303
    7AGLC    C223745   4.179   0.397  13.476
    7AGLC    H223746   4.097   0.463  13.510
    7AGLC    O223747   4.300   0.464  13.506
    7AGLC   HO223748   4.372   0.405  13.479
    7AGLC    C323749   4.167   0.265  13.550
    7AGLC    H323750   4.248   0.197  13.515
    7AGLC    O323751   4.176   0.286  13.694
    7AGLC    C423752   4.032   0.208  13.512
    7AGLC    H423753   3.955   0.282  13.544
    7AGLC    O423754   4.001   0.085  13.577
    7AGLC   HO423755   3.906   0.078  13.582
    7AGLC    C623756   3.889   0.135  13.313
    7AGLC   H6123757   3.881   0.150  13.203
    7AGLC   H6223758   3.895   0.026  13.330
    7AGLC    O623759   3.772   0.188  13.377
    7AGLC   HO623760   3.722   0.234  13.309
    8AGLC    C123761   4.281   0.214  13.757
    8AGLC    H123762   4.288   0.112  13.715
    8AGLC    C523763   4.415   0.412  13.794
    8AGLC    H523764   4.335   0.473  13.746
    8AGLC    O523765   4.409   0.278  13.743
    8AGLC    C223766   4.256   0.206  13.908
    8AGLC    H223767   4.338   0.145  13.951
    8AGLC    O223768   4.132   0.146  13.945
    8AGLC    C323769   4.257   0.344  13.971
    8AGLC    H323770   4.178   0.403  13.920
    8AGLC    O323771   4.221   0.335  14.110
    8AGLC    C423772   4.390   0.410  13.944
    8AGLC    H423773   4.472   0.350  13.990
    8AGLC    O423774   4.393   0.542  14.000
    8AGLC   HO423775   4.317   0.591  13.968
    8AGLC    C623776   4.550   0.470  13.751
    8AGLC   H6123777   4.591   0.411  13.666
    8AGLC   H6223778   4.535   0.573  13.711
    8AGLC    O623779   4.646   0.475  13.857
    8AGLC   HO623780   4.614   0.537  13.924
    9AGAL    C123781   4.101   0.019  13.896
    9AGAL    H123782   4.107   0.017  13.785
    9AGAL    C523783   4.187   8.055  14.090
    9AGAL    H523784   4.209   0.013  14.130
    9AGAL    O523785   4.190   8.062  13.947
    9AGAL    C223786   3.958   8.135  13.937
    9AGAL    H223787   3.926   8.038  13.893
    9AGAL    O223788   3.884   0.097  13.873
    9AGAL    C323789   3.950   8.126  14.089
    9AGAL    H323790   3.984   0.079  14.131
    9AGAL    O323791   3.818   8.104  14.139
    9AGAL   HO323792   3.789   8.018  14.107
    9AGAL    C423793   4.047   8.018  14.136
    9AGAL    H423794   4.045   8.018  14.247
    9AGAL    O423795   4.009   7.886  14.095
    9AGAL   HO423796   4.053   7.864  14.013
    9AGAL    C623797   4.303   7.969  14.139
    9AGAL   H6123798   4.398   8.015  14.106
    9AGAL   H6223799   4.303   7.967  14.250
    9AGAL    O623800   4.301   7.834  14.091
    9AGAL   HO623801   4.303   7.838  13.995
   10AGAL    C123802   3.756   0.142  13.910
   10AGAL    H123803   3.688   0.056  13.927
   10AGAL    C523804   3.851   0.339  14.009
   10AGAL    H523805   3.951   0.298  13.982
   10AGAL    O523806   3.759   0.229  14.025
   10AGAL    C223807   3.707   0.226  13.792
   10AGAL    H223808   3.608   0.267  13.818
   10AGAL    O223809   3.690   0.143  13.676
   10AGAL   HO223810   3.609   0.165  13.629
   10AGAL    C323811   3.804   0.341  13.766
   10AGAL    H323812   3.906   0.299  13.753
   10AGAL    O323813   3.774   0.412  13.645
   10AGAL   HO323814   3.761   0.342  13.580
   10AGAL    C423815   3.810   0.429  13.891
   10AGAL    H423816   3.890   0.504  13.876
   10AGAL    O423817   3.689   0.501  13.916
   10AGAL   HO423818   3.624   0.443  13.956
   10AGAL    C623819   3.872   0.403  14.145
   10AGAL   H6123820   3.919   0.328  14.211
   10AGAL   H6223821   3.942   0.489  14.137
   10AGAL    O623822   3.751   0.447  14.207
   10AGAL   HO623823   3.687   0.376  14.198
   11BGLC    C123824   4.321   0.318  14.208
   11BGLC    H123825   4.375   0.414  14.225
   11BGLC    C523826   4.516   0.195  14.274
   11BGLC    H523827   4.563   0.292  14.299
   11BGLC    O523828   4.416   0.215  14.172
   11BGLC    C223829   4.248   0.276  14.335
   11BGLC    H223830   4.193   0.182  14.313
   11BGLC    O223831   4.152   0.376  14.373
   11BGLC   HO223832   4.108   0.402  14.292
   11BGLC    C323833   4.346   0.249  14.446
   11BGLC    H323834   4.399   0.343  14.473
   11BGLC    O323835   4.279   0.195  14.560
   11BGLC    C423836   4.444   0.145  14.399
   11BGLC    H423837   4.389   0.052  14.372
   11BGLC    O423838   4.537   0.111  14.501
   11BGLC   HO423839   4.516   0.163  14.579
   11BGLC    C623840   4.624   0.104  14.219
   11BGLC   H6123841   4.685   0.063  14.303
   11BGLC   H6223842   4.580   0.018  14.165
   11BGLC    O623843   4.714   0.177  14.134
   11BGLC   HO623844   4.676   0.186  14.046
   12BGLCN   C123845   4.304   0.254  14.684
   12BGLCN   H123846   4.259   0.356  14.685
   12BGLCN   C523847   4.471   0.319  14.840
   12BGLCN   H523848   4.432   0.423  14.842
   12BGLCN   O523849   4.444   0.260  14.712
   12BGLCN   C223850   4.237   0.163  14.785
   12BGLCN   H223851   4.295   0.069  14.783
   12BGLCN    N23852   4.100   0.133  14.745
   12BGLCN   HN23853   4.050   0.205  14.698
   12BGLCN    C23854   4.048   0.010  14.748
   12BGLCN    O23855   4.102   8.061  14.807
   12BGLCN   CT23856   3.917   8.135  14.678
   12BGLCN  HT123857   3.837   8.115  14.752
   12BGLCN  HT223858   3.925   8.047  14.610
   12BGLCN  HT323859   3.892   0.081  14.618
   12BGLCN   C323860   4.253   0.223  14.924
   12BGLCN   H323861   4.204   0.323  14.924
   12BGLCN   O323862   4.192   0.139  15.024
   12BGLCN   C423863   4.402   0.236  14.949
   12BGLCN   H423864   4.446   0.134  14.947
   12BGLCN   O423865   4.430   0.291  15.077
   12BGLCN  HO423866   4.387   0.376  15.088
   12BGLCN   C623867   4.622   0.322  14.856
   12BGLCN  H6123868   4.649   0.362  14.956
   12BGLCN  H6223869   4.662   0.219  14.849
   12BGLCN   O623870   4.686   0.402  14.756
   12BGLCN  HO623871   4.685   0.494  14.783
   13AGAL    C123872   4.120   0.208  15.125
   13AGAL    H123873   4.166   0.307  15.146
   13AGAL    C523874   3.915   0.100  15.064
   13AGAL    H523875   3.972   0.045  14.986
   13AGAL    O523876   3.982   0.226  15.087
   13AGAL    C223877   4.118   0.126  15.254
   13AGAL    H223878   4.051   0.181  15.323
   13AGAL    O223879   4.249   0.120  15.316
   13AGAL    C323880   4.057   8.133  15.228
   13AGAL    H323881   4.113   8.084  15.146
   13AGAL    O323882   4.064   8.047  15.342
   13AGAL   HO323883   4.120   7.973  15.320
   13AGAL    C423884   3.913   0.010  15.186
   13AGAL    H423885   3.871   8.055  15.156
   13AGAL    O423886   3.835   0.059  15.295
   13AGAL   HO423887   3.875   0.016  15.371
   13AGAL    C623888   3.776   0.126  15.006
   13AGAL   H6123889   3.785   0.181  14.910
   13AGAL   H6223890   3.726   0.029  14.985
   13AGAL    O623891   3.695   0.202  15.095
   13AGAL   HO623892   3.727   0.182  15.183
   14ARHM    C123893   4.262   0.176  15.445
   14ARHM    H123894   4.187   0.256  15.461
   14ARHM    C523895   4.497   0.150  15.441
   14ARHM    H523896   4.495   0.112  15.336
   14ARHM    O523897   4.389   0.241  15.462
   14ARHM    C223898   4.246   0.067  15.549
   14ARHM    H223899   4.147   0.019  15.535
   14ARHM    O223900   4.253   0.109  15.686
   14ARHM    C323901   4.354   8.108  15.526
   14ARHM    H323902   4.344   8.069  15.423
   14ARHM    O323903   4.340   7.998  15.615
   14ARHM   HO323904   4.300   8.027  15.697
   14ARHM    C423905   4.489   0.033  15.539
   14ARHM    H423906   4.499   0.075  15.642
   14ARHM    O423907   4.597   8.085  15.518
   14ARHM   HO423908   4.566   8.018  15.457
   14ARHM    C623909   4.623   0.237  15.459
   14ARHM   H6123910   4.621   0.321  15.386
   14ARHM   H6223911   4.624   0.280  15.562
   14ARHM   H6323912   4.715   0.178  15.444
   15ARHM    C123913   4.158   0.206  15.723
   15ARHM    H123914   4.071   0.203  15.654
   15ARHM    C523915   4.328   0.349  15.812
   15ARHM    H523916   4.406   0.275  15.784
   15ARHM    O523917   4.216   0.338  15.722
   15ARHM    C223918   4.109   0.177  15.863
   15ARHM    H223919   4.062   0.076  15.865
   15ARHM    O223920   4.009   0.277  15.888
   15ARHM    C323921   4.225   0.182  15.960
   15ARHM    H323922   4.303   0.113  15.922
   15ARHM    O323923   4.183   0.136  16.089
   15ARHM    C423924   4.282   0.322  15.956
   15ARHM    H423925   4.202   0.396  15.980
   15ARHM    O423926   4.386   0.342  16.052
   15ARHM   HO423927   4.398   0.437  16.062
   15ARHM    C623928   4.387   0.490  15.789
   15ARHM   H6123929   4.478   0.505  15.851
   15ARHM   H6223930   4.415   0.501  15.682
   15ARHM   H6323931   4.312   0.568  15.813
   16BMANN   C123932   3.948   0.286  16.013
   16BMANN   H123933   4.019   0.323  16.090
   16BMANN   C523934   3.813   0.177  16.177
   16BMANN   H523935   3.880   0.215  16.256
   16BMANN   O523936   3.887   0.163  16.054
   16BMANN   C223937   3.839   0.387  15.986
   16BMANN   H223938   3.890   0.482  15.961
   16BMANN    N23939   3.759   0.345  15.870
   16BMANN   HN23940   3.753   0.247  15.855
   16BMANN    C23941   3.708   0.429  15.780
   16BMANN    O23942   3.717   0.551  15.793
   16BMANN   CT23943   3.641   0.366  15.662
   16BMANN  HT123944   3.579   0.442  15.609
   16BMANN  HT223945   3.576   0.282  15.695
   16BMANN  HT323946   3.717   0.327  15.591
   16BMANN   C323947   3.758   0.409  16.111
   16BMANN   H323948   3.825   0.446  16.191
   16BMANN   O323949   3.660   0.509  16.088
   16BMANN  HO323950   3.660   0.532  15.995
   16BMANN   C423951   3.698   0.276  16.157
   16BMANN   H423952   3.631   0.237  16.078
   16BMANN   O423953   3.622   0.289  16.277
   16BMANN  HO423954   3.534   0.320  16.252
   16BMANN   C623955   3.771   0.037  16.214
   16BMANN  H6123956   3.717   0.036  16.312
   16BMANN  H6223957   3.702   8.140  16.137
   16BMANN   O623958   3.886   8.096  16.224
   16BMANN  HO623959   3.946   8.126  16.156
   17BGLCN   C123960   4.281   0.062  16.157
   17BGLCN   H123961   4.383   0.094  16.126
   17BGLCN   C523962   4.365   7.989  16.208
   17BGLCN   H523963   4.466   8.016  16.170
   17BGLCN   O523964   4.265   8.064  16.138
   17BGLCN   C223965   4.262   0.092  16.304
   17BGLCN   H223966   4.165   0.046  16.334
   17BGLCN    N23967   4.250   0.235  16.325
   17BGLCN   HN23968   4.295   0.292  16.256
   17BGLCN    C23969   4.176   0.291  16.420
   17BGLCN    O23970   4.112   0.226  16.502
   17BGLCN   CT23971   4.176   0.442  16.424
   17BGLCN  HT123972   4.128   0.480  16.331
   17BGLCN  HT223973   4.280   0.480  16.430
   17BGLCN  HT323974   4.118   0.476  16.512
   17BGLCN   C323975   4.372   0.022  16.383
   17BGLCN   H323976   4.470   0.058  16.342
   17BGLCN   O323977   4.363   0.056  16.523
   17BGLCN   C423978   4.359   8.018  16.357
   17BGLCN   H423979   4.263   7.982  16.398
   17BGLCN   O423980   4.466   7.946  16.418
   17BGLCN  HO423981   4.432   7.901  16.495
   17BGLCN   C623982   4.339   7.841  16.179
   17BGLCN  H6123983   4.394   7.778  16.252
   17BGLCN  H6223984   4.231   7.819  16.192
   17BGLCN   O623985   4.381   7.803  16.049
   17BGLCN  HO623986   4.307   7.774  15.995
   18AGAL    C123987   4.485   0.058  16.596
   18AGAL    H123988   4.527   8.100  16.601
   18AGAL    C523989   4.542   0.282  16.530
   18AGAL    H523990   4.445   0.289  16.477
   18AGAL    O523991   4.582   0.143  16.533
   18AGAL    C223992   4.464   0.106  16.740
   18AGAL    H223993   4.567   0.108  16.782
   18AGAL    O223994   4.387   0.015  16.821
   18AGAL    C323995   4.412   0.250  16.736
   18AGAL    H323996   4.321   0.250  16.672
   18AGAL    O323997   4.371   0.302  16.863
   18AGAL   HO323998   4.295   0.358  16.849
   18AGAL    C423999   4.518   0.338  16.670
   18AGAL    H424000   4.477   0.441  16.659
   18AGAL    O424001   4.638   0.346  16.746
   18AGAL   HO424002   4.625   0.399  16.825
   18AGAL    C624003   4.641   0.361  16.445
   18AGAL   H6124004   4.614   0.349  16.338
   18AGAL   H6224005   4.637   0.469  16.470
   18AGAL    O624006   4.775   0.313  16.460
   18AGAL   HO624007   4.767   0.217  16.468
   19ARHM    C124008   4.420   0.019  16.959
   19ARHM    H124009   4.482   0.109  16.980
   19ARHM    C524010   4.423   7.927  16.997
   19ARHM    H524011   4.382   7.918  16.894
   19ARHM    O524012   4.498   8.050  17.003
   19ARHM    C224013   4.294   0.031  17.043
   19ARHM    H224014   4.230   0.108  16.996
   19ARHM    O224015   4.322   0.066  17.179
   19ARHM    C324016   4.214   8.047  17.040
   19ARHM    H324017   4.186   8.024  16.935
   19ARHM    O324018   4.092   8.062  17.114
   19ARHM   HO324019   4.026   8.089  17.050
   19ARHM    C424020   4.304   7.935  17.092
   19ARHM    H424021   4.342   7.965  17.192
   19ARHM    O424022   4.241   7.808  17.112
   19ARHM   HO424023   4.228   7.763  17.028
   19ARHM    C624024   4.514   7.806  17.017
   19ARHM   H6124025   4.605   7.814  16.953
   19ARHM   H6224026   4.544   7.793  17.123
   19ARHM   H6324027   4.461   7.713  16.986
   20ARHM    C124028   4.329   0.203  17.205
   20ARHM    H124029   4.279   0.262  17.125
   20ARHM    C524030   4.534   0.183  17.323
   20ARHM    H524031   4.535   0.074  17.304
   20ARHM    O524032   4.464   0.250  17.218
   20ARHM    C224033   4.254   0.226  17.335
   20ARHM    H224034   4.154   0.178  17.326
   20ARHM    O224035   4.233   0.365  17.362
   20ARHM    C324036   4.324   0.159  17.450
   20ARHM    H324037   4.323   0.049  17.435
   20ARHM    O324038   4.252   0.194  17.568
   20ARHM    C424039   4.466   0.210  17.457
   20ARHM    H424040   4.464   0.319  17.476
   20ARHM    O424041   4.540   0.148  17.563
   20ARHM   HO424042   4.623   0.195  17.571
   20ARHM    C624043   4.679   0.234  17.317
   20ARHM   H6124044   4.684   0.343  17.338
   20ARHM   H6224045   4.743   0.180  17.390
   20ARHM   H6324046   4.722   0.216  17.216
   21BMANN   C124047   4.136   0.428  17.282
   21BMANN   H124048   4.078   0.355  17.222
   21BMANN   C524049   4.108   0.593  17.111
   21BMANN   H524050   4.049   0.520  17.052
   21BMANN   O524051   4.201   0.522  17.195
   21BMANN   C224052   4.045   0.502  17.377
   21BMANN   H224053   3.990   0.424  17.433
   21BMANN    N24054   4.120   0.580  17.474
   21BMANN   HN24055   4.215   0.598  17.449
   21BMANN    C24056   4.075   0.614  17.595
   21BMANN    O24057   3.959   0.595  17.630
   21BMANN   CT24058   4.175   0.678  17.688
   21BMANN  HT124059   4.157   0.788  17.693
   21BMANN  HT224060   4.279   0.660  17.652
   21BMANN  HT324061   4.164   0.635  17.790
   21BMANN   C324062   3.943   0.579  17.295
   21BMANN   H324063   3.885   0.507  17.233
   21BMANN   O324064   3.848   0.645  17.379
   21BMANN  HO324065   3.888   0.654  17.466
   21BMANN   C424066   4.013   0.674  17.199
   21BMANN   H424067   4.074   0.746  17.258
   21BMANN   O424068   3.922   0.748  17.119
   21BMANN  HO424069   3.893   0.824  17.169
   21BMANN   C624070   4.186   0.679  17.014
   21BMANN  H6124071   4.120   0.714  16.932
   21BMANN  H6224072   4.224   0.769  17.068
   21BMANN   O624073   4.298   0.608  16.958
   21BMANN  HO624074   4.340   0.560  17.030
   22BGLCN   C124075   4.233   0.095  17.666
   22BGLCN   H124076   4.312   0.018  17.662
   22BGLCN   C524077   4.071   8.091  17.760
   22BGLCN   H524078   4.147   8.009  17.761
   22BGLCN   O524079   4.102   0.038  17.654
   22BGLCN   C224080   4.240   0.175  17.795
   22BGLCN   H224081   4.159   0.251  17.792
   22BGLCN    N24082   4.367   0.246  17.804
   22BGLCN   HN24083   4.443   0.206  17.753
   22BGLCN    C24084   4.386   0.364  17.864
   22BGLCN    O24085   4.296   0.427  17.918
   22BGLCN   CT24086   4.526   0.418  17.860
   22BGLCN  HT124087   4.541   0.477  17.767
   22BGLCN  HT224088   4.600   0.335  17.863
   22BGLCN  HT324089   4.542   0.484  17.948
   22BGLCN   C324090   4.213   0.083  17.913
   22BGLCN   H324091   4.290   0.002  17.912
   22BGLCN   O324092   4.227   0.160  18.033
   22BGLCN   C424093   4.076   0.020  17.893
   22BGLCN   H424094   4.001   0.102  17.892
   22BGLCN   O424095   4.041   8.073  17.997
   22BGLCN  HO424096   3.953   8.094  18.028
   22BGLCN   C624097   3.935   8.031  17.733
   22BGLCN  H6124098   3.902   7.967  17.818
   22BGLCN  H6224099   3.859   8.112  17.724
   22BGLCN   O624100   3.934   7.950  17.616
   22BGLCN  HO624101   3.970   8.000  17.543
   23AGAL    C124102   4.243   0.091  18.154
   23AGAL    H124103   4.151   0.035  18.179
   23AGAL    C524104   4.481   0.066  18.132
   23AGAL    H524105   4.478   0.124  18.037
   23AGAL    O524106   4.354   8.144  18.150
   23AGAL    C224107   4.264   0.191  18.267
   23AGAL    H224108   4.270   0.132  18.361
   23AGAL    O224109   4.154   0.283  18.274
   23AGAL    C324110   4.394   0.265  18.251
   23AGAL    H324111   4.390   0.322  18.155
   23AGAL    O324112   4.414   0.359  18.356
   23AGAL   HO324113   4.457   0.312  18.428
   23AGAL    C424114   4.507   0.165  18.246
   23AGAL    H424115   4.602   0.219  18.224
   23AGAL    O424116   4.524   0.096  18.369
   23AGAL   HO424117   4.555   0.008  18.346
   23AGAL    C624118   4.589   8.105  18.119
   23AGAL   H6124119   4.576   8.053  18.021
   23AGAL   H6224120   4.690   0.008  18.118
   23AGAL    O624121   4.582   8.005  18.222
   23AGAL   HO624122   4.511   7.947  18.195
   24ARHM    C124123   4.055   0.252  18.368
   24ARHM    H124124   4.041   0.142  18.371
   24ARHM    C524125   3.929   0.450  18.328
   24ARHM    H524126   4.003   0.484  18.252
   24ARHM    O524127   3.928   0.307  18.331
   24ARHM    C224128   4.100   0.301  18.503
   24ARHM    H224129   4.202   0.263  18.525
   24ARHM    O224130   4.011   0.259  18.607
   24ARHM    C324131   4.106   0.451  18.503
   24ARHM    H324132   4.178   0.485  18.425
   24ARHM    O324133   4.154   0.498  18.629
   24ARHM   HO324134   4.080   0.536  18.677
   24ARHM    C424135   3.968   0.504  18.466
   24ARHM    H424136   3.894   0.463  18.538
   24ARHM    O424137   3.958   0.646  18.474
   24ARHM   HO424138   3.980   0.688  18.390
   24ARHM    C624139   3.790   0.493  18.281
   24ARHM   H6124140   3.783   0.604  18.272
   24ARHM   H6224141   3.768   0.449  18.181
   24ARHM   H6324142   3.712   0.459  18.353
   25ARHM    C124143   4.033   0.131  18.659
   25ARHM    H124144   4.096   0.072  18.590
   25ARHM    C524145   3.817   0.131  18.756
   25ARHM    H524146   3.800   0.233  18.715
   25ARHM    O524147   3.909   0.060  18.673
   25ARHM    C224148   4.101   0.147  18.793
   25ARHM    H224149   4.185   0.218  18.780
   25ARHM    O224150   4.155   0.023  18.845
   25ARHM    C324151   4.007   0.217  18.888
   25ARHM    H324152   3.988   0.320  18.850
   25ARHM    O324153   4.074   0.225  19.014
   25ARHM    C424154   3.875   0.142  18.897
   25ARHM    H424155   3.893   0.039  18.935
   25ARHM    O424156   3.783   0.206  18.985
   25ARHM   HO424157   3.693   0.187  18.957
   25ARHM    C624158   3.682   0.057  18.748
   25ARHM   H6124159   3.656   0.037  18.642
   25ARHM   H6224160   3.687   8.103  18.802
   25ARHM   H6324161   3.600   0.118  18.792
   26BMANN   C124162   4.276   8.128  18.782
   26BMANN   H124163   4.326   0.073  18.737
   26BMANN   C524164   4.372   7.998  18.607
   26BMANN   H524165   4.411   8.093  18.563
   26BMANN   O524166   4.252   8.030  18.680
   26BMANN   C224167   4.373   8.068  18.884
   26BMANN   H224168   4.391   0.002  18.961
   26BMANN    N24169   4.319   7.950  18.952
   26BMANN   HN24170   4.257   7.893  18.899
   26BMANN    C24171   4.350   7.911  19.077
   26BMANN    O24172   4.419   7.976  19.155
   26BMANN   CT24173   4.295   7.778  19.119
   26BMANN  HT124174   4.219   7.743  19.047
   26BMANN  HT224175   4.248   7.787  19.220
   26BMANN  HT324176   4.377   7.704  19.124
   26BMANN   C324177   4.504   8.040  18.812
   26BMANN   H324178   4.542   8.134  18.767
   26BMANN   O324179   4.604   7.994  18.903
   26BMANN  HO324180   4.646   8.068  18.947
   26BMANN   C424181   4.478   7.941  18.700
   26BMANN   H424182   4.438   7.847  18.744
   26BMANN   O424183   4.595   7.908  18.626
   26BMANN  HO424184   4.602   7.812  18.621
   26BMANN   C624185   4.336   7.908  18.489
   26BMANN  H6124186   4.243   7.945  18.441
   26BMANN  H6224187   4.417   7.913  18.413
   26BMANN   O624188   4.318   7.770  18.525
   26BMANN  HO624189   4.404   7.731  18.543
   27BGLCN   C124190   4.051   0.342  19.088
   27BGLCN   H124191   3.945   0.375  19.079
   27BGLCN   C524192   4.121   0.564  19.132
   27BGLCN   H524193   4.015   0.595  19.129
   27BGLCN   O524194   4.139   0.447  19.050
   27BGLCN   C224195   4.083   0.300  19.230
   27BGLCN   H224196   4.190   0.272  19.232
   27BGLCN    N24197   4.005   0.183  19.267
   27BGLCN   HN24198   3.922   0.167  19.213
   27BGLCN    C24199   4.045   0.091  19.356
   27BGLCN    O24200   4.152   0.099  19.415
   27BGLCN   CT24201   3.952   8.120  19.380
   27BGLCN  HT124202   3.874   8.116  19.301
   27BGLCN  HT224203   3.904   8.129   0.007
   27BGLCN  HT324204   4.010   8.025  19.376
   27BGLCN   C324205   4.064   0.418  19.324
   27BGLCN   H324206   3.959   0.452  19.314
   27BGLCN   O324207   4.086   0.373  19.460
   27BGLCN   C424208   4.156   0.530  19.277
   27BGLCN   H424209   4.261   0.493  19.279
   27BGLCN   O424210   4.149   0.646  19.359
   27BGLCN  HO424211   4.058   0.664  19.381
   27BGLCN   C624212   4.205   0.674  19.069
   27BGLCN  H6124213   4.236   0.748  19.147
   27BGLCN  H6224214   4.298   0.632  19.025
   27BGLCN   O624215   4.132   0.747  18.971
   27BGLCN  HO624216   4.101   0.689  18.901
   28AGAL    C124217   4.031   0.449   0.092
   28AGAL    H124218   4.089   0.543   0.105
   28AGAL    C524219   3.806   0.368   0.067
   28AGAL    H524220   3.841   0.302  19.458
   28AGAL    O524221   3.892   0.484   0.070
   28AGAL    C224222   4.040   0.374   0.225
   28AGAL    H224223   3.993   0.445   0.297
   28AGAL    O224224   4.175   0.348   0.269
   28AGAL    C324225   3.956   0.248   0.221
   28AGAL    H324226   3.992   0.187   0.135
   28AGAL    O324227   3.971   0.167   0.338
   28AGAL   HO324228   3.969   0.074   0.316
   28AGAL    C424229   3.813   0.288   0.197
   28AGAL    H424230   3.752   0.196   0.184
   28AGAL    O424231   3.759   0.360   0.309
   28AGAL   HO424232   3.739   0.297   0.379
   28AGAL    C624233   3.665   0.411   0.027
   28AGAL   H6124234   3.670   0.474  19.408
   28AGAL   H6224235   3.604   0.321   0.004
   28AGAL    O624236   3.596   0.485   0.128
   28AGAL   HO624237   3.657   0.494   0.202
   29ARHM    C124238   4.189   0.370   0.408
   29ARHM    H124239   4.090   0.364   0.457
   29ARHM    C524240   4.378   0.510   0.373
   29ARHM    H524241   4.369   0.497   0.263
   29ARHM    O524242   4.249   0.499   0.434
   29ARHM    C224243   4.277   0.264   0.470
   29ARHM    H224244   4.231   0.165   0.451
   29ARHM    O224245   4.289   0.288   0.612
   29ARHM    C324246   4.413   0.267   0.405
   29ARHM    H324247   4.402   0.251   0.296
   29ARHM    O324248   4.495   0.161   0.457
   29ARHM   HO324249   4.587   0.186   0.447
   29ARHM    C424250   4.474   0.404   0.428
   29ARHM    H424251   4.486   0.421   0.537
   29ARHM    O424252   4.601   0.418   0.366
   29ARHM   HO424253   4.665   0.356   0.403
   29ARHM    C624254   4.424   0.655   0.400
   29ARHM   H6124255   4.350   0.726   0.357
   29ARHM   H6224256   4.434   0.673   0.509
   29ARHM   H6324257   4.522   0.673   0.352
   30ARHM    C124258   4.205   0.208   0.692
   30ARHM    H124259   4.221   0.101   0.667
   30ARHM    C524260   4.031   0.373   0.709
   30ARHM    H524261   4.089   0.447   0.649
   30ARHM    O524262   4.066   0.239   0.672
   30ARHM    C224263   4.238   0.230   0.839
   30ARHM    H224264   4.346   0.211   0.855
   30ARHM    O224265   4.159   0.143   0.918
   30ARHM    C324266   4.206   0.373   0.881
   30ARHM    H324267   4.266   0.438   0.814
   30ARHM    O324268   4.254   0.401   1.015
   30ARHM    C424269   4.059   0.400   0.855
   30ARHM    H424270   3.995   0.333   0.916
   30ARHM    O424271   4.025   0.535   0.886
   30ARHM   HO424272   4.088   0.594   0.844
   30ARHM    C624273   3.882   0.386   0.671
   30ARHM   H6124274   3.845   0.489   0.692
   30ARHM   H6224275   3.868   0.365   0.563
   30ARHM   H6324276   3.821   0.313   0.728
   31BMANN   C124277   4.211   0.016   0.947
   31BMANN   H124278   4.320   0.021   0.968
   31BMANN   C524279   4.220   7.930   0.878
   31BMANN   H524280   4.330   7.932   0.898
   31BMANN   O524281   4.179   8.065   0.844
   31BMANN   C224282   4.131   8.123   1.070
   31BMANN   H224283   4.159   0.051   1.150
   31BMANN    N24284   3.988   8.134   1.044
   31BMANN   HN24285   3.961   8.116   0.950
   31BMANN    C24286   3.896   0.033   1.131
   31BMANN    O24287   3.922   0.064   1.247
   31BMANN   CT24288   3.755   0.041   1.079
   31BMANN  HT124289   3.734   8.100   1.011
   31BMANN  HT224290   3.742   0.136   1.023
   31BMANN  HT324291   3.683   0.039   1.163
   31BMANN   C324292   4.177   7.986   1.114
   31BMANN   H324293   4.288   7.991   1.127
   31BMANN   O324294   4.127   7.952   1.243
   31BMANN  HO324295   4.032   7.938   1.238
   31BMANN   C424296   4.147   7.886   1.005
   31BMANN   H424297   4.039   7.888   0.982
   31BMANN   O424298   4.180   7.752   1.040
   31BMANN  HO424299   4.263   7.750   1.087
   31BMANN   C624300   4.200   7.834   0.763
   31BMANN  H6124301   4.259   7.742   0.779
   31BMANN  H6224302   4.093   7.804   0.757
   31BMANN   O624303   4.236   7.891   0.636
   31BMANN  HO624304   4.324   7.929   0.640
   32BGLCN   C124305   4.169   0.367   1.123
   32BGLCN   H124306   4.113   0.274   1.101
   32BGLCN   C524307   3.982   0.436   1.254
   32BGLCN   H524308   3.928   0.344   1.224
   32BGLCN   O524309   4.076   0.472   1.152
   32BGLCN   C224310   4.252   0.346   1.249
   32BGLCN   H224311   4.291   0.446   1.280
   32BGLCN    N24312   4.364   0.256   1.230
   32BGLCN   HN24313   4.345   0.159   1.231
   32BGLCN    C24314   4.492   0.297   1.222
   32BGLCN    O24315   4.525   0.416   1.221
   32BGLCN   CT24316   4.596   0.189   1.211
   32BGLCN  HT124317   4.565   0.113   1.136
   32BGLCN  HT224318   4.611   0.141   1.310
   32BGLCN  HT324319   4.693   0.234   1.179
   32BGLCN   C324320   4.157   0.300   1.359
   32BGLCN   H324321   4.105   0.210   1.319
   32BGLCN   O324322   4.223   0.264   1.481
   32BGLCN   C424323   4.056   0.408   1.384
   32BGLCN   H424324   4.108   0.501   1.416
   32BGLCN   O424325   3.964   0.370   1.486
   32BGLCN  HO424326   4.012   0.373   1.570
   32BGLCN   C624327   3.881   0.549   1.265
   32BGLCN  H6124328   3.815   0.532   1.353
   32BGLCN  H6224329   3.933   0.646   1.279
   32BGLCN   O624330   3.798   0.556   1.148
   32BGLCN  HO624331   3.855   0.570   1.072
   33AGAL    C124332   4.173   0.143   1.535
   33AGAL    H124333   4.063   0.135   1.519
   33AGAL    C524334   4.377   0.025   1.493
   33AGAL    H524335   4.424   0.118   1.455
   33AGAL    O524336   4.235   0.031   1.470
   33AGAL    C224337   4.199   0.135   1.684
   33AGAL    H224338   4.158   0.038   1.717
   33AGAL    O224339   4.127   0.240   1.753
   33AGAL    C324340   4.349   0.135   1.711
   33AGAL    H324341   4.391   0.229   1.668
   33AGAL    O324342   4.380   0.135   1.851
   33AGAL   HO324343   4.344   0.054   1.886
   33AGAL    C424344   4.410   0.016   1.641
   33AGAL    H424345   4.520   0.019   1.652
   33AGAL    O424346   4.365   8.037   1.696
   33AGAL   HO424347   4.354   7.975   1.624
   33AGAL    C624348   4.431   8.052   1.410
   33AGAL   H6124349   4.427   8.078   1.303
   33AGAL   H6224350   4.538   8.036   1.436
   33AGAL    O624351   4.359   7.930   1.430
   33AGAL   HO624352   4.272   7.939   1.390
   34ARHM    C124353   4.074   0.202   1.879
   34ARHM    H124354   4.156   0.159   1.941
   34ARHM    C524355   3.861   0.153   1.787
   34ARHM    H524356   3.897   0.172   1.684
   34ARHM    O524357   3.969   0.105   1.868
   34ARHM    C224358   4.020   0.326   1.947
   34ARHM    H224359   4.102   0.401   1.952
   34ARHM    O224360   3.975   0.301   2.083
   34ARHM    C324361   3.909   0.384   1.861
   34ARHM    H324362   3.950   0.409   1.761
   34ARHM    O324363   3.859   0.505   1.917
   34ARHM   HO324364   3.782   0.533   1.867
   34ARHM    C424365   3.800   0.280   1.846
   34ARHM    H424366   3.755   0.256   1.944
   34ARHM    O424367   3.699   0.326   1.756
   34ARHM   HO424368   3.634   0.380   1.802
   34ARHM    C624369   3.761   0.036   1.783
   34ARHM   H6124370   3.721   0.015   1.885
   34ARHM   H6224371   3.675   0.061   1.717
   34ARHM   H6324372   3.810   8.088   1.745
   35ARHM    C124373   4.068   0.239   2.169
   35ARHM    H124374   4.171   0.273   2.145
   35ARHM    C524375   3.931   0.043   2.187
   35ARHM    H524376   3.856   0.090   2.120
   35ARHM    O524377   4.062   0.095   2.158
   35ARHM    C224378   4.035   0.278   2.312
   35ARHM    H224379   4.031   0.389   2.317
   35ARHM    O224380   4.131   0.231   2.409
   35ARHM    C324381   3.898   0.226   2.349
   35ARHM    H324382   3.823   0.271   2.281
   35ARHM    O324383   3.860   0.262   2.482
   35ARHM   HO324384   3.928   0.316   2.523
   35ARHM    C424385   3.895   0.076   2.332
   35ARHM    H424386   3.972   0.030   2.398
   35ARHM    O424387   3.768   0.024   2.370
   35ARHM   HO424388   3.740   0.084   2.439
   35ARHM    C624389   3.934   8.036   2.156
   35ARHM   H6124390   3.959   8.020   2.049
   35ARHM   H6224391   4.008   7.983   2.219
   35ARHM   H6324392   3.833   7.993   2.174
   36BMANN   C124393   4.260   0.288   2.404
   36BMANN   H124394   4.256   0.390   2.361
   36BMANN   C524395   4.483   0.257   2.324
   36BMANN   H524396   4.477   0.358   2.280
   36BMANN   O524397   4.349   0.203   2.330
   36BMANN   C224398   4.310   0.294   2.547
   36BMANN   H224399   4.244   0.369   2.598
   36BMANN    N24400   4.299   0.167   2.618
   36BMANN   HN24401   4.343   0.088   2.576
   36BMANN    C24402   4.237   0.151   2.736
   36BMANN    O24403   4.180   0.242   2.796
   36BMANN   CT24404   4.237   0.011   2.792
   36BMANN  HT124405   4.308   8.090   2.737
   36BMANN  HT224406   4.135   8.112   2.785
   36BMANN  HT324407   4.266   0.014   2.899
   36BMANN   C324408   4.449   0.355   2.547
   36BMANN   H324409   4.444   0.456   2.501
   36BMANN   O324410   4.496   0.371   2.681
   36BMANN  HO324411   4.579   0.419   2.681
   36BMANN   C424412   4.543   0.269   2.464
   36BMANN   H424413   4.552   0.169   2.511
   36BMANN   O424414   4.673   0.327   2.454
   36BMANN  HO424415   4.708   0.342   2.542
   36BMANN   C624416   4.564   0.171   2.228
   36BMANN  H6124417   4.512   0.165   2.130
   36BMANN  H6224418   4.662   0.221   2.210
   36BMANN   O624419   4.588   0.039   2.276
   36BMANN  HO624420   4.669   0.005   2.237
    1ECLIP HB6S24421   7.316   2.515  11.832
    1ECLIP  OB624422   7.453   2.616  11.953
    1ECLIP  CB624423   7.342   2.619  11.860
    1ECLIP HB6R24424   7.252   2.666  11.906
    1ECLIP  CB524425   7.367   2.695  11.731
    1ECLIP  OB524426   7.492   2.652  11.677
    1ECLIP  HB524427   7.373   2.802  11.758
    1ECLIP  CB124428   7.529   2.731  11.564
    1ECLIP  HB124429   7.538   2.838  11.595
    1ECLIP  OA624430   7.653   2.690  11.513
    1ECLIP  CA624431   7.682   2.552  11.534
    1ECLIP HA6R24432   7.590   2.491  11.549
    1ECLIP HA6S24433   7.745   2.543  11.625
    1ECLIP  CB424434   7.259   2.674  11.624
    1ECLIP  HB424435   7.263   2.569  11.589
    1ECLIP  OB424436   7.131   2.704  11.682
    1ECLIP   PB24437   7.014   2.586  11.701
    1ECLIP OPB424438   6.928   2.627  11.820
    1ECLIP OPB324439   7.087   2.455  11.731
    1ECLIP OPB224440   6.934   2.583  11.572
    1ECLIP  CB324441   7.295   2.764  11.507
    1ECLIP  OB324442   7.197   2.759  11.403
    1ECLIP  HB324443   7.305   2.866  11.549
    1ECLIP  C7124444   7.182   2.871  11.333
    1ECLIP  O7124445   7.252   2.970  11.345
    1ECLIP  C7224446   7.114   2.842  11.201
    1ECLIP H72R24447   7.192   2.844  11.122
    1ECLIP H72S24448   7.042   2.925  11.183
    1ECLIP  CB224449   7.430   2.717  11.451
    1ECLIP  HB224450   7.419   2.609  11.428
    1ECLIP  NB224451   7.473   2.786  11.329
    1ECLIP HNB224452   7.485   2.884  11.339
    1ECLIP  CA424453   7.833   2.612  11.342
    1ECLIP  HA424454   7.766   2.696  11.315
    1ECLIP  OA424455   7.938   2.659  11.427
    1ECLIP HOA424456   7.926   2.753  11.440
    1ECLIP  CA524457   7.755   2.502  11.412
    1ECLIP  HA524458   7.824   2.421  11.443
    1ECLIP  OA524459   7.655   2.448  11.325
    1ECLIP  CA124460   7.708   2.395  11.204
    1ECLIP  HA124461   7.615   2.378  11.146
    1ECLIP  OA124462   7.781   2.275  11.230
    1ECLIP OPA224463   7.787   2.024  11.281
    1ECLIP OPA324464   7.569   2.137  11.208
    1ECLIP OPA424465   7.744   2.100  11.053
    1ECLIP   PA24466   7.718   2.131  11.199
    1ECLIP  CA324467   7.891   2.556  11.216
    1ECLIP  HA324468   7.951   2.469  11.251
    1ECLIP  OA324469   7.977   2.647  11.150
    1ECLIP  C3124470   7.933   2.760  11.097
    1ECLIP  O3124471   7.901   2.765  10.979
    1ECLIP  C3224472   8.017   2.871  11.160
    1ECLIP H32R24473   8.095   2.902  11.087
    1ECLIP H32S24474   8.069   2.833  11.251
    1ECLIP  CA224475   7.785   2.500  11.126
    1ECLIP  HA224476   7.715   2.583  11.102
    1ECLIP  NA224477   7.843   2.455  11.001
    1ECLIP HNA224478   7.939   2.481  10.990
    1ECLIP  C7324479   7.039   2.708  11.199
    1ECLIP H73R24480   6.974   2.702  11.288
    1ECLIP  O7324481   7.135   2.602  11.198
    1ECLIP  C8124482   7.087   2.485  11.241
    1ECLIP  O8124483   6.970   2.453  11.235
    1ECLIP  C8224484   7.196   2.382  11.207
    1ECLIP H82R24485   7.158   2.285  11.244
    1ECLIP H82S24486   7.288   2.409  11.264
    1ECLIP  C8324487   7.222   2.378  11.055
    1ECLIP H83R24488   7.296   2.457  11.030
    1ECLIP H83S24489   7.129   2.404  11.000
    1ECLIP  C8424490   7.265   2.240  11.003
    1ECLIP H84R24491   7.175   2.176  10.998
    1ECLIP H84S24492   7.331   2.192  11.078
    1ECLIP  C8524493   7.323   2.254  10.861
    1ECLIP H85R24494   7.402   2.332  10.857
    1ECLIP H85S24495   7.241   2.297  10.800
    1ECLIP  C8624496   7.366   2.124  10.792
    1ECLIP H86R24497   7.274   2.069  10.766
    1ECLIP H86S24498   7.425   2.056  10.857
    1ECLIP  C8724499   7.443   2.150  10.661
    1ECLIP H87R24500   7.452   2.055  10.605
    1ECLIP H87S24501   7.546   2.187  10.681
    1ECLIP  C8824502   7.373   2.254  10.571
    1ECLIP H88R24503   7.373   2.353  10.622
    1ECLIP H88S24504   7.267   2.225  10.555
    1ECLIP  C8924505   7.440   2.274  10.435
    1ECLIP H89R24506   7.550   2.283  10.447
    1ECLIP H89S24507   7.404   2.371  10.394
    1ECLIP C81024508   7.409   2.165  10.332
    1ECLIPH810R24509   7.310   2.119  10.354
    1ECLIPH810S24510   7.484   2.084  10.341
    1ECLIP C81124511   7.408   2.218  10.187
    1ECLIPH811R24512   7.412   2.132  10.117
    1ECLIPH811S24513   7.501   2.278  10.172
    1ECLIP C81224514   7.287   2.306  10.150
    1ECLIPH812R24515   7.300   2.338  10.044
    1ECLIPH812S24516   7.286   2.398  10.211
    1ECLIP C81324517   7.153   2.234  10.164
    1ECLIPH813R24518   7.161   2.133  10.117
    1ECLIPH813S24519   7.131   2.219  10.272
    1ECLIP C81424520   7.036   2.310  10.100
    1ECLIPH814R24521   7.058   2.332   9.993
    1ECLIPH814S24522   7.020   2.407  10.152
    1ECLIPH814T24523   6.943   2.251  10.105
    1ECLIP  C7424524   6.951   2.701  11.072
    1ECLIP H74R24525   6.879   2.785  11.077
    1ECLIP H74S24526   6.892   2.606  11.078
    1ECLIP  C7524527   7.019   2.703  10.935
    1ECLIP H75R24528   6.955   2.643  10.867
    1ECLIP H75S24529   7.118   2.651  10.939
    1ECLIP  C7624530   7.032   2.843  10.873
    1ECLIP H76R24531   7.118   2.897  10.917
    1ECLIP H76S24532   6.940   2.902  10.894
    1ECLIP  C7724533   7.047   2.832  10.721
    1ECLIP H77R24534   6.957   2.782  10.681
    1ECLIP H77S24535   7.134   2.766  10.700
    1ECLIP  C7824536   7.065   2.966  10.650
    1ECLIP H78R24537   6.969   3.022  10.658
    1ECLIP H78S24538   7.142   3.027  10.702
    1ECLIP  C7924539   7.103   2.952  10.502
    1ECLIP H79R24540   7.212   2.931  10.494
    1ECLIP H79S24541   7.085   3.049  10.451
    1ECLIP C71024542   7.027   2.840  10.430
    1ECLIPH710R24543   7.048   2.743  10.479
    1ECLIPH710S24544   6.918   2.859  10.438
    1ECLIP C71124545   7.066   2.825  10.283
    1ECLIPH711R24546   7.045   2.921  10.230
    1ECLIPH711S24547   7.175   2.806  10.276
    1ECLIP C71224548   6.990   2.710  10.216
    1ECLIPH712R24549   6.882   2.735  10.213
    1ECLIPH712S24550   7.001   2.618  10.279
    1ECLIP C71324551   7.038   2.678  10.074
    1ECLIPH713R24552   7.140   2.633  10.082
    1ECLIPH713S24553   6.971   2.601  10.030
    1ECLIP C71424554   7.044   2.799   9.982
    1ECLIPH714R24555   6.944   2.847   9.974
    1ECLIPH714S24556   7.116   2.875  10.020
    1ECLIPH714T24557   7.077   2.768   9.881
    1ECLIP  C5124558   7.485   2.733  11.205
    1ECLIP  O5124559   7.467   2.614  11.179
    1ECLIP  C5224560   7.526   2.830  11.095
    1ECLIP H52R24561   7.454   2.915  11.092
    1ECLIP H52S24562   7.626   2.870  11.122
    1ECLIP  C5324563   7.533   2.762  10.957
    1ECLIP H53R24564   7.582   2.663  10.968
    1ECLIP  O5324565   7.610   2.849  10.873
    1ECLIP  C6124566   7.698   2.791  10.792
    1ECLIP  O6124567   7.703   2.671  10.769
    1ECLIP  C6224568   7.761   2.900  10.705
    1ECLIP H62R24569   7.814   2.971  10.772
    1ECLIP H62S24570   7.677   2.954  10.655
    1ECLIP  C6324571   7.859   2.845  10.599
    1ECLIP H63R24572   7.808   2.769  10.537
    1ECLIP H63S24573   7.945   2.796  10.651
    1ECLIP  C6424574   7.916   2.954  10.506
    1ECLIP H64R24575   7.985   2.904  10.435
    1ECLIP H64S24576   7.976   3.026  10.564
    1ECLIP  C6524577   7.806   3.028  10.429
    1ECLIP H65R24578   7.755   3.097  10.500
    1ECLIP H65S24579   7.731   2.955  10.394
    1ECLIP  C6624580   7.855   3.111  10.309
    1ECLIP H66R24581   7.920   3.193  10.345
    1ECLIP H66S24582   7.766   3.158  10.261
    1ECLIP  C6724583   7.931   3.031  10.201
    1ECLIP H67R24584   8.033   3.009  10.239
    1ECLIP H67S24585   7.943   3.097  10.112
    1ECLIP  C6824586   7.862   2.900  10.161
    1ECLIP H68R24587   7.752   2.911  10.171
    1ECLIP H68S24588   7.895   2.821  10.232
    1ECLIP  C6924589   7.893   2.856  10.017
    1ECLIP H69R24590   7.998   2.882   9.993
    1ECLIP H69S24591   7.829   2.914   9.947
    1ECLIP C61024592   7.873   2.705   9.996
    1ECLIPH610R24593   7.768   2.678  10.016
    1ECLIPH610S24594   7.937   2.653  10.071
    1ECLIP C61124595   7.915   2.657   9.857
    1ECLIPH611R24596   8.017   2.695   9.836
    1ECLIPH611S24597   7.919   2.546   9.858
    1ECLIP C61224598   7.823   2.702   9.743
    1ECLIPH612R24599   7.717   2.689   9.773
    1ECLIPH612S24600   7.839   2.809   9.718
    1ECLIPH612T24601   7.842   2.642   9.651
    1ECLIP  C5424602   7.393   2.740  10.895
    1ECLIP H54R24603   7.346   2.838  10.875
    1ECLIP H54S24604   7.331   2.689  10.973
    1ECLIP  C5524605   7.388   2.652  10.768
    1ECLIP H55R24606   7.289   2.602  10.762
    1ECLIP H55S24607   7.466   2.573  10.775
    1ECLIP  C5624608   7.408   2.733  10.639
    1ECLIP H56R24609   7.497   2.800  10.648
    1ECLIP H56S24610   7.322   2.802  10.624
    1ECLIP  C5724611   7.428   2.647  10.514
    1ECLIP H57R24612   7.333   2.593  10.493
    1ECLIP H57S24613   7.508   2.572  10.531
    1ECLIP  C5824614   7.465   2.736  10.395
    1ECLIP H58R24615   7.399   2.826  10.397
    1ECLIP H58S24616   7.570   2.772  10.407
    1ECLIP  C5924617   7.448   2.668  10.260
    1ECLIP H59R24618   7.347   2.621  10.256
    1ECLIP H59S24619   7.523   2.587  10.247
    1ECLIP C51024620   7.458   2.770  10.147
    1ECLIPH510R24621   7.559   2.818  10.149
    1ECLIPH510S24622   7.383   2.850  10.164
    1ECLIP C51124623   7.434   2.709  10.009
    1ECLIPH511R24624   7.520   2.644   9.982
    1ECLIPH511S24625   7.344   2.644  10.013
    1ECLIP C51224626   7.413   2.816   9.902
    1ECLIPH512R24627   7.381   2.767   9.807
    1ECLIPH512S24628   7.330   2.884   9.933
    1ECLIP C51324629   7.538   2.900   9.875
    1ECLIPH513R24630   7.627   2.838   9.900
    1ECLIPH513S24631   7.540   2.987   9.945
    1ECLIP C51424632   7.550   2.947   9.731
    1ECLIPH514R24633   7.461   3.007   9.700
    1ECLIPH514S24634   7.641   3.010   9.718
    1ECLIPH514T24635   7.561   2.861   9.662
    1ECLIP  C3324636   7.930   2.991  11.198
    1ECLIP H33R24637   7.995   3.067  11.248
    1ECLIP  O3324638   7.831   2.947  11.290
    1ECLIP HO3324639   7.798   3.017  11.347
    1ECLIP  C3424640   7.864   3.056  11.075
    1ECLIP H34R24641   7.810   2.977  11.019
    1ECLIP H34S24642   7.944   3.095  11.008
    1ECLIP  C3524643   7.760   3.167  11.099
    1ECLIP H35R24644   7.809   3.260  11.135
    1ECLIP H35S24645   7.687   3.133  11.176
    1ECLIP  C3624646   7.684   3.192  10.968
    1ECLIP H36R24647   7.661   3.093  10.924
    1ECLIP H36S24648   7.750   3.245  10.895
    1ECLIP  C3724649   7.550   3.266  10.982
    1ECLIP H37R24650   7.568   3.375  10.983
    1ECLIP H37S24651   7.503   3.239  11.079
    1ECLIP  C3824652   7.452   3.229  10.869
    1ECLIP H38R24653   7.418   3.124  10.885
    1ECLIP H38S24654   7.362   3.294  10.877
    1ECLIP  C3924655   7.511   3.239  10.728
    1ECLIP H39R24656   7.596   3.167  10.719
    1ECLIP H39S24657   7.553   3.341  10.713
    1ECLIP C31024658   7.410   3.208  10.617
    1ECLIPH310R24659   7.336   3.291  10.613
    1ECLIPH310S24660   7.355   3.115  10.642
    1ECLIP C31124661   7.477   3.191  10.480
    1ECLIPH311R24662   7.549   3.274  10.464
    1ECLIPH311S24663   7.535   3.096  10.481
    1ECLIP C31224664   7.378   3.187  10.363
    1ECLIPH312R24665   7.304   3.106  10.381
    1ECLIPH312S24666   7.323   3.284  10.360
    1ECLIP C31324667   7.446   3.163  10.228
    1ECLIPH313R24668   7.522   3.244  10.212
    1ECLIPH313S24669   7.501   3.067  10.232
    1ECLIP C31424670   7.348   3.162  10.111
    1ECLIPH314R24671   7.293   3.258  10.106
    1ECLIPH314S24672   7.401   3.147  10.014
    1ECLIPH314T24673   7.274   3.080  10.123
    1ECLIP  C1124674   7.785   2.386  10.903
    1ECLIP  O1124675   7.666   2.351  10.906
    1ECLIP  C1224676   7.876   2.339  10.792
    1ECLIP H12R24677   7.892   2.229  10.805
    1ECLIP H12S24678   7.975   2.387  10.804
    1ECLIP  C1324679   7.820   2.370  10.652
    1ECLIP H13R24680   7.715   2.407  10.655
    1ECLIP  O1324681   7.822   2.250  10.577
    1ECLIP HO1324682   7.816   2.267  10.482
    1ECLIP  C1424683   7.908   2.475  10.580
    1ECLIP H14R24684   8.013   2.456  10.609
    1ECLIP H14S24685   7.880   2.575  10.621
    1ECLIP  C1524686   7.907   2.480  10.426
    1ECLIP H15R24687   7.971   2.397  10.390
    1ECLIP H15S24688   7.958   2.573  10.394
    1ECLIP  C1624689   7.771   2.477  10.355
    1ECLIP H16R24690   7.742   2.582  10.332
    1ECLIP H16S24691   7.692   2.435  10.420
    1ECLIP  C1724692   7.779   2.397  10.224
    1ECLIP H17R24693   7.866   2.434  10.165
    1ECLIP H17S24694   7.688   2.415  10.164
    1ECLIP  C1824695   7.796   2.245  10.247
    1ECLIP H18R24696   7.876   2.226  10.321
    1ECLIP H18S24697   7.701   2.204  10.287
    1ECLIP  C1924698   7.836   2.168  10.121
    1ECLIP H19R24699   7.841   2.060  10.144
    1ECLIP H19S24700   7.937   2.201  10.090
    1ECLIP C11024701   7.741   2.190  10.004
    1ECLIPH110R24702   7.636   2.180  10.038
    1ECLIPH110S24703   7.753   2.294   9.965
    1ECLIP C11124704   7.763   2.091   9.890
    1ECLIPH111R24705   7.868   2.096   9.855
    1ECLIPH111S24706   7.743   1.988   9.925
    1ECLIP C11224707   7.670   2.126   9.774
    1ECLIPH112R24708   7.564   2.113   9.806
    1ECLIPH112S24709   7.683   2.233   9.749
    1ECLIP C11324710   7.696   2.044   9.649
    1ECLIPH113R24711   7.803   2.048   9.621
    1ECLIPH113S24712   7.672   1.937   9.670
    1ECLIP C11424713   7.610   2.095   9.535
    1ECLIPH114R24714   7.508   2.116   9.574
    1ECLIPH114S24715   7.648   2.191   9.494
    1ECLIPH114T24716   7.604   2.021   9.452
    2AKDO    C124717   7.448   2.850  12.029
    2AKDO   O1124718   7.386   2.929  12.105
    2AKDO   O1224719   7.549   2.878  11.958
    2AKDO    C224720   7.433   2.698  12.068
    2AKDO    C624721   7.291   2.534  12.168
    2AKDO    H624722   7.321   2.474  12.080
    2AKDO    O624723   7.305   2.672  12.130
    2AKDO    C324724   7.540   2.658  12.170
    2AKDO   H3124725   7.527   2.726  12.257
    2AKDO   H3224726   7.640   2.676  12.126
    2AKDO    C424727   7.529   2.515  12.216
    2AKDO    H424728   7.545   2.447  12.130
    2AKDO    O424729   7.618   2.485  12.322
    2AKDO    C524730   7.392   2.493  12.277
    2AKDO    H524731   7.383   2.383  12.290
    2AKDO    O524732   7.380   2.556  12.408
    2AKDO    C724733   7.144   2.499  12.184
    2AKDO    H724734   7.100   2.548  12.274
    2AKDO    O724735   7.132   2.356  12.189
    2AKDO   HO724736   7.128   2.335  12.096
    2AKDO    C824737   7.068   2.550  12.064
    2AKDO   H8124738   7.075   2.660  12.058
    2AKDO   H8224739   7.115   2.510  11.971
    2AKDO    O824740   6.929   2.515  12.060
    2AKDO   HO824741   6.908   2.551  11.974
    3AKDO    C124742   7.788   2.333  12.214
    3AKDO   O1124743   7.910   2.316  12.188
    3AKDO   O1224744   7.699   2.243  12.204
    3AKDO    C224745   7.755   2.453  12.310
    3AKDO    C624746   7.812   2.680  12.372
    3AKDO    H624747   7.705   2.709  12.362
    3AKDO    O624748   7.841   2.568  12.285
    3AKDO    C324749   7.774   2.410  12.456
    3AKDO   H3124750   7.877   2.372  12.471
    3AKDO   H3224751   7.707   2.324  12.477
    3AKDO    C424752   7.745   2.522  12.551
    3AKDO    H424753   7.640   2.556  12.540
    3AKDO    O424754   7.762   2.471  12.684
    3AKDO   HO424755   7.683   2.425  12.713
    3AKDO    C524756   7.833   2.642  12.519
    3AKDO    H524757   7.796   2.727  12.581
    3AKDO    O524758   7.970   2.625  12.554
    3AKDO   HO524759   8.005   2.544  12.517
    3AKDO    C724760   7.894   2.803  12.329
    3AKDO    H724761   8.000   2.787  12.356
    3AKDO    O724762   7.846   2.922  12.393
    3AKDO   HO724763   7.847   2.985  12.320
    3AKDO    C824764   7.886   2.828  12.179
    3AKDO   H8124765   7.908   2.735  12.122
    3AKDO   H8224766   7.784   2.861  12.150
    3AKDO    O824767   7.980   2.930  12.142
    3AKDO   HO824768   8.053   2.886  12.098
    4AHEP    C124769   7.285   2.500  12.497
    4AHEP    H124770   7.186   2.523  12.453
    4AHEP    C524771   7.409   2.316  12.586
    4AHEP    H524772   7.497   2.365  12.539
    4AHEP    O524773   7.293   2.357  12.510
    4AHEP    C224774   7.278   2.564  12.637
    4AHEP    H224775   7.288   2.674  12.622
    4AHEP    O224776   7.151   2.543  12.701
    4AHEP   HO224777   7.082   2.582  12.646
    4AHEP    C324778   7.395   2.521  12.724
    4AHEP    H324779   7.488   2.561  12.677
    4AHEP    O324780   7.381   2.572  12.858
    4AHEP    C424781   7.400   2.369  12.731
    4AHEP    H424782   7.304   2.335  12.775
    4AHEP    O424783   7.514   2.329  12.811
    4AHEP    P424784   7.497   2.214  12.931
    4AHEP  OP4224785   7.617   2.214  13.023
    4AHEP  OP4324786   7.486   2.081  12.859
    4AHEP  OP4424787   7.369   2.245  13.008
    4AHEP    C624788   7.433   2.166  12.572
    4AHEP    H624789   7.534   2.144  12.614
    4AHEP    O624790   7.336   2.091  12.646
    4AHEP   HO624791   7.380   2.082  12.731
    4AHEP    C724792   7.434   2.118  12.427
    4AHEP   H7124793   7.465   2.011  12.423
    4AHEP   H7224794   7.510   2.176  12.370
    4AHEP    O724795   7.307   2.132  12.362
    4AHEP   HO724796   7.276   2.216  12.396
    5AHEP    C124797   7.488   2.648  12.909
    5AHEP    H124798   7.582   2.627  12.852
    5AHEP    C524799   7.342   2.826  12.976
    5AHEP    H524800   7.257   2.767  12.934
    5AHEP    O524801   7.461   2.790  12.903
    5AHEP    C224802   7.512   2.610  13.054
    5AHEP    H224803   7.521   2.499  13.057
    5AHEP    O224804   7.635   2.663  13.104
    5AHEP   HO224805   7.704   2.602  13.076
    5AHEP    C324806   7.389   2.645  13.137
    5AHEP    H324807   7.304   2.586  13.098
    5AHEP    O324808   7.411   2.617  13.276
    5AHEP    C424809   7.357   2.793  13.124
    5AHEP    H424810   7.435   2.856  13.171
    5AHEP    O424811   7.227   2.823  13.177
    5AHEP    P424812   7.182   2.842  13.333
    5AHEP  OP4224813   7.067   2.742  13.350
    5AHEP  OP4324814   7.136   2.984  13.356
    5AHEP  OP4424815   7.298   2.807  13.425
    5AHEP    C624816   7.311   2.973  12.946
    5AHEP    H624817   7.215   3.000  12.993
    5AHEP    O624818   7.413   3.060  12.999
    5AHEP   HO624819   7.458   3.083  12.917
    5AHEP    C724820   7.302   2.995  12.794
    5AHEP   H7124821   7.208   3.051  12.774
    5AHEP   H7224822   7.293   2.899  12.739
    5AHEP    O724823   7.411   3.075  12.744
    6AHEP    C124824   7.505   3.002  12.667
    6AHEP    H124825   7.504   2.894  12.692
    6AHEP    C524826   7.476   3.156  12.485
    6AHEP    H524827   7.398   3.208  12.544
    6AHEP    O524828   7.482   3.018  12.527
    6AHEP    C224829   7.640   3.061  12.703
    6AHEP    H224830   7.648   3.057  12.814
    6AHEP    O224831   7.751   2.985  12.655
    6AHEP   HO224832   7.749   2.973  12.560
    6AHEP    C324833   7.642   3.208  12.664
    6AHEP    H324834   7.562   3.260  12.719
    6AHEP    O324835   7.766   3.272  12.699
    6AHEP   HO324836   7.802   3.308  12.618
    6AHEP    C424837   7.611   3.221  12.516
    6AHEP    H424838   7.689   3.169  12.456
    6AHEP    O424839   7.609   3.359  12.479
    6AHEP   HO424840   7.646   3.368  12.391
    6AHEP    C624841   7.433   3.173  12.338
    6AHEP    H624842   7.435   3.281  12.312
    6AHEP    O624843   7.527   3.107  12.251
    6AHEP   HO624844   7.479   3.037  12.208
    6AHEP    C724845   7.291   3.124  12.311
    6AHEP   H7124846   7.265   3.144  12.205
    6AHEP   H7224847   7.221   3.184  12.373
    6AHEP    O724848   7.269   2.986  12.339
    6AHEP   HO724849   7.301   2.941  12.260
    7AGLC    C124850   7.385   2.488  13.322
    7AGLC    H124851   7.297   2.444  13.270
    7AGLC    C524852   7.616   2.449  13.366
    7AGLC    H524853   7.638   2.553  13.334
    7AGLC    O524854   7.497   2.402  13.302
    7AGLC    C224855   7.360   2.493  13.472
    7AGLC    H224856   7.344   2.388  13.506
    7AGLC    O224857   7.240   2.562  13.504
    7AGLC   HO224858   7.253   2.652  13.473
    7AGLC    C324859   7.479   2.549  13.548
    7AGLC    H324860   7.503   2.647  13.503
    7AGLC    O324861   7.450   2.569  13.690
    7AGLC    C424862   7.594   2.452  13.518
    7AGLC    H424863   7.562   2.350  13.549
    7AGLC    O424864   7.715   2.480  13.588
    7AGLC   HO424865   7.738   2.402  13.638
    7AGLC    C624866   7.731   2.362  13.315
    7AGLC   H6124867   7.757   2.397  13.213
    7AGLC   H6224868   7.821   2.373  13.379
    7AGLC    O624869   7.698   2.224  13.302
    7AGLC   HO624870   7.666   2.213  13.212
    8AGLC    C124871   7.470   2.703  13.737
    8AGLC    H124872   7.560   2.747  13.689
    8AGLC    C524873   7.235   2.756  13.773
    8AGLC    H524874   7.209   2.655  13.736
    8AGLC    O524875   7.360   2.793  13.712
    8AGLC    C224876   7.484   2.705  13.888
    8AGLC    H224877   7.505   2.810  13.918
    8AGLC    O224878   7.591   2.624  13.935
    8AGLC    C324879   7.359   2.658  13.960
    8AGLC    H324880   7.334   2.558  13.918
    8AGLC    O324881   7.385   2.639  14.101
    8AGLC    C424882   7.248   2.753  13.924
    8AGLC    H424883   7.277   2.855  13.959
    8AGLC    O424884   7.124   2.718  13.987
    8AGLC   HO424885   7.074   2.661  13.928
    8AGLC    C624886   7.130   2.854  13.722
    8AGLC   H6124887   7.152   2.881  13.617
    8AGLC   H6224888   7.031   2.804  13.721
    8AGLC    O624889   7.121   2.973  13.801
    8AGLC   HO624890   7.061   2.956  13.874
    9AGAL    C124891   7.719   2.647  13.884
    9AGAL    H124892   7.722   2.637  13.773
    9AGAL    C524893   7.767   2.799  14.061
    9AGAL    H524894   7.662   2.789  14.097
    9AGAL    O524895   7.769   2.776  13.919
    9AGAL    C224896   7.801   2.536  13.946
    9AGAL    H224897   7.905   2.542  13.909
    9AGAL    O224898   7.737   2.419  13.890
    9AGAL    C324899   7.799   2.555  14.097
    9AGAL    H324900   7.694   2.546  14.133
    9AGAL    O324901   7.874   2.455  14.166
    9AGAL   HO324902   7.967   2.472  14.147
    9AGAL    C424903   7.851   2.694  14.132
    9AGAL    H424904   7.841   2.709  14.242
    9AGAL    O424905   7.988   2.710  14.099
    9AGAL   HO424906   7.997   2.800  14.068
    9AGAL    C624907   7.807   2.944  14.085
    9AGAL   H6124908   7.737   3.011  14.031
    9AGAL   H6224909   7.798   2.967  14.193
    9AGAL    O624910   7.941   2.975  14.044
    9AGAL   HO624911   7.944   2.992  13.950
   10AGAL    C124912   7.759   2.290  13.939
   10AGAL    H124913   7.867   2.273  13.955
   10AGAL    C524914   7.544   2.285  14.046
   10AGAL    H524915   7.528   2.386  14.002
   10AGAL    O524916   7.686   2.266  14.061
   10AGAL    C224917   7.707   2.191  13.834
   10AGAL    H224918   7.730   2.089  13.870
   10AGAL    O224919   7.775   2.210  13.709
   10AGAL   HO224920   7.809   2.125  13.681
   10AGAL    C324921   7.556   2.204  13.814
   10AGAL    H324922   7.533   2.306  13.775
   10AGAL    O324923   7.506   2.107  13.720
   10AGAL   HO324924   7.508   2.140  13.630
   10AGAL    C424925   7.486   2.184  13.947
   10AGAL    H424926   7.379   2.208  13.933
   10AGAL    O424927   7.496   2.048  13.990
   10AGAL   HO424928   7.497   2.000  13.907
   10AGAL    C624929   7.480   2.291  14.184
   10AGAL   H6124930   7.527   2.374  14.240
   10AGAL   H6224931   7.372   2.315  14.173
   10AGAL    O624932   7.494   2.171  14.261
   10AGAL   HO624933   7.586   2.144  14.256
   11BGLC    C124934   7.365   2.746  14.191
   11BGLC    H124935   7.257   2.764  14.204
   11BGLC    C524936   7.412   2.975  14.239
   11BGLC    H524937   7.303   2.992  14.253
   11BGLC    O524938   7.431   2.865  14.148
   11BGLC    C224939   7.427   2.702  14.323
   11BGLC    H224940   7.535   2.683  14.305
   11BGLC    O224941   7.368   2.580  14.370
   11BGLC   HO224942   7.381   2.515  14.301
   11BGLC    C324943   7.414   2.811  14.426
   11BGLC    H324944   7.307   2.827  14.452
   11BGLC    O324945   7.492   2.780  14.543
   11BGLC    C424946   7.475   2.937  14.372
   11BGLC    H424947   7.584   2.921  14.356
   11BGLC    O424948   7.460   3.043  14.466
   11BGLC   HO424949   7.473   3.007  14.554
   11BGLC    C624950   7.471   3.103  14.182
   11BGLC   H6124951   7.438   3.191  14.241
   11BGLC   H6224952   7.582   3.099  14.190
   11BGLC    O624953   7.439   3.124  14.044
   11BGLC   HO624954   7.346   3.140  14.031
   12BGLCN   C124955   7.425   2.753  14.663
   12BGLCN   H124956   7.376   2.654  14.657
   12BGLCN   C524957   7.265   2.834  14.819
   12BGLCN   H524958   7.217   2.733  14.820
   12BGLCN   O524959   7.330   2.855  14.693
   12BGLCN   C224960   7.535   2.755  14.768
   12BGLCN   H224961   7.576   2.858  14.768
   12BGLCN    N24962   7.643   2.665  14.728
   12BGLCN   HN24963   7.618   2.588  14.671
   12BGLCN    C24964   7.773   2.692  14.746
   12BGLCN    O24965   7.813   2.785  14.815
   12BGLCN   CT24966   7.871   2.599  14.679
   12BGLCN  HT124967   7.952   2.573  14.751
   12BGLCN  HT224968   7.917   2.650  14.592
   12BGLCN  HT324969   7.820   2.506  14.644
   12BGLCN   C324970   7.476   2.732  14.907
   12BGLCN   H324971   7.427   2.632  14.908
   12BGLCN   O324972   7.574   2.738  15.013
   12BGLCN   C424973   7.371   2.840  14.928
   12BGLCN   H424974   7.422   2.938  14.916
   12BGLCN   O424975   7.314   2.839  15.059
   12BGLCN  HO424976   7.347   2.917  15.104
   12BGLCN   C624977   7.154   2.938  14.831
   12BGLCN  H6124978   7.103   2.925  14.929
   12BGLCN  H6224979   7.199   3.039  14.827
   12BGLCN   O624980   7.057   2.925  14.726
   12BGLCN  HO624981   6.981   2.980  14.742
   13AGAL    C124982   7.555   2.644  15.118
   13AGAL    H124983   7.447   2.636  15.142
   13AGAL    C524984   7.744   2.515  15.050
   13AGAL    H524985   7.764   2.596  14.977
   13AGAL    O524986   7.602   2.514  15.078
   13AGAL    C224987   7.631   2.681  15.246
   13AGAL    H224988   7.616   2.595  15.315
   13AGAL    O224989   7.579   2.800  15.309
   13AGAL    C324990   7.780   2.688  15.217
   13AGAL    H324991   7.795   2.761  15.135
   13AGAL    O324992   7.857   2.733  15.328
   13AGAL   HO324993   7.918   2.801  15.300
   13AGAL    C424994   7.827   2.551  15.171
   13AGAL    H424995   7.933   2.560  15.140
   13AGAL    O424996   7.819   2.451  15.273
   13AGAL   HO424997   7.868   2.485  15.348
   13AGAL    C624998   7.789   2.386  14.984
   13AGAL   H6124999   7.761   2.391  14.876
   13AGAL   H6225000   7.900   2.380  14.987
   13AGAL    O625001   7.733   2.270  15.044
   13AGAL   HO625002   7.760   2.272  15.136
   14ARHM    C125003   7.523   2.786  15.439
   14ARHM    H125004   7.480   2.684  15.449
   14ARHM    C525005   7.451   3.012  15.455
   14ARHM    H525006   7.495   3.034  15.355
   14ARHM    O525007   7.412   2.874  15.459
   14ARHM    C225008   7.630   2.807  15.546
   14ARHM    H225009   7.715   2.740  15.523
   14ARHM    O225010   7.592   2.779  15.682
   14ARHM    C325011   7.676   2.950  15.542
   14ARHM    H325012   7.720   2.972  15.442
   14ARHM    O325013   7.778   2.971  15.640
   14ARHM   HO325014   7.759   2.910  15.712
   14ARHM    C425015   7.556   3.042  15.562
   14ARHM    H425016   7.511   3.020  15.661
   14ARHM    O425017   7.590   3.180  15.560
   14ARHM   HO425018   7.511   3.231  15.577
   14ARHM    C625019   7.322   3.093  15.471
   14ARHM   H6125020   7.249   3.063  15.392
   14ARHM   H6225021   7.276   3.074  15.570
   14ARHM   H6325022   7.341   3.202  15.460
   15ARHM    C125023   7.538   2.652  15.709
   15ARHM    H125024   7.577   2.577  15.637
   15ARHM    C525025   7.338   2.750  15.798
   15ARHM    H525026   7.377   2.852  15.777
   15ARHM    O525027   7.395   2.656  15.705
   15ARHM    C225028   7.580   2.612  15.850
   15ARHM    H225029   7.691   2.612  15.855
   15ARHM    O225030   7.532   2.479  15.871
   15ARHM    C325031   7.527   2.712  15.948
   15ARHM    H325032   7.561   2.813  15.917
   15ARHM    O325033   7.580   2.686  16.078
   15ARHM    C425034   7.375   2.710  15.940
   15ARHM    H425035   7.338   2.607  15.957
   15ARHM    O425036   7.315   2.793  16.040
   15ARHM   HO425037   7.220   2.785  16.034
   15ARHM    C625038   7.187   2.752  15.770
   15ARHM   H6125039   7.137   2.831  15.830
   15ARHM   H6225040   7.169   2.773  15.663
   15ARHM   H6325041   7.143   2.653  15.795
   16BMANN   C125042   7.543   2.419  15.998
   16BMANN   H125043   7.475   2.468  16.070
   16BMANN   C525044   7.687   2.352  16.175
   16BMANN   H525045   7.615   2.398  16.245
   16BMANN   O525046   7.678   2.419  16.048
   16BMANN   C225047   7.499   2.276  15.973
   16BMANN   H225048   7.392   2.282  15.943
   16BMANN    N25049   7.574   2.219  15.862
   16BMANN   HN25050   7.665   2.257  15.846
   16BMANN    C25051   7.524   2.130  15.776
   16BMANN    O25052   7.412   2.083  15.789
   16BMANN   CT25053   7.612   2.092  15.661
   16BMANN  HT125054   7.564   2.010  15.603
   16BMANN  HT225055   7.711   2.057  15.698
   16BMANN  HT325056   7.626   2.179  15.594
   16BMANN   C325057   7.507   2.198  16.103
   16BMANN   H325058   7.440   2.246  16.178
   16BMANN   O325059   7.460   2.064  16.086
   16BMANN  HO325060   7.368   2.066  16.060
   16BMANN   C425061   7.649   2.205  16.156
   16BMANN   H425062   7.715   2.162  16.078
   16BMANN   O425063   7.671   2.129  16.274
   16BMANN  HO425064   7.749   2.075  16.258
   16BMANN   C625065   7.825   2.372  16.234
   16BMANN  H6125066   7.828   2.331  16.336
   16BMANN  H6225067   7.901   2.318  16.173
   16BMANN   O625068   7.861   2.510  16.239
   16BMANN  HO625069   7.841   2.549  16.153
   17BGLCN   C125070   7.610   2.800  16.153
   17BGLCN   H125071   7.539   2.882  16.129
   17BGLCN   C525072   7.778   2.957  16.213
   17BGLCN   H525073   7.707   3.039  16.189
   17BGLCN   O525074   7.745   2.842  16.133
   17BGLCN   C225075   7.592   2.757  16.296
   17BGLCN   H225076   7.670   2.681  16.319
   17BGLCN    N25077   7.463   2.693  16.310
   17BGLCN   HN25078   7.395   2.720  16.242
   17BGLCN    C25079   7.433   2.595  16.396
   17BGLCN    O25080   7.513   2.548  16.476
   17BGLCN   CT25081   7.292   2.544  16.390
   17BGLCN  HT125082   7.293   2.433  16.388
   17BGLCN  HT225083   7.240   2.582  16.299
   17BGLCN  HT325084   7.237   2.577  16.481
   17BGLCN   C325085   7.618   2.879  16.385
   17BGLCN   H325086   7.552   2.960  16.347
   17BGLCN   O325087   7.583   2.854  16.522
   17BGLCN   C425088   7.762   2.922  16.361
   17BGLCN   H425089   7.829   2.837  16.386
   17BGLCN   O425090   7.800   3.033  16.441
   17BGLCN  HO425091   7.881   3.014  16.488
   17BGLCN   C625092   7.916   3.003  16.173
   17BGLCN  H6125093   7.946   3.091  16.234
   17BGLCN  H6225094   7.991   2.923  16.190
   17BGLCN   O625095   7.919   3.043  16.035
   17BGLCN  HO625096   7.917   2.964  15.981
   18AGAL    C125097   7.532   2.966  16.593
   18AGAL    H125098   7.609   3.045  16.601
   18AGAL    C525099   7.307   2.928  16.521
   18AGAL    H525100   7.349   2.838  16.472
   18AGAL    O525101   7.415   3.023  16.530
   18AGAL    C225102   7.490   2.926  16.734
   18AGAL    H225103   7.447   3.018  16.778
   18AGAL    O225104   7.602   2.887  16.816
   18AGAL    C325105   7.382   2.819  16.728
   18AGAL    H325106   7.421   2.734  16.669
   18AGAL    O325107   7.348   2.768  16.858
   18AGAL   HO325108   7.289   2.692  16.851
   18AGAL    C425109   7.261   2.879  16.659
   18AGAL    H425110   7.187   2.798  16.643
   18AGAL    O425111   7.200   2.981  16.737
   18AGAL   HO425112   7.164   2.941  16.817
   18AGAL    C625113   7.202   2.977  16.423
   18AGAL   H6125114   7.252   3.025  16.336
   18AGAL   H6225115   7.146   2.890  16.383
   18AGAL    O625116   7.107   3.068  16.479
   18AGAL   HO625117   7.154   3.146  16.508
   19ARHM    C125118   7.586   2.929  16.950
   19ARHM    H125119   7.479   2.946  16.975
   19ARHM    C525120   7.797   3.041  16.954
   19ARHM    H525121   7.815   3.011  16.849
   19ARHM    O525122   7.656   3.051  16.977
   19ARHM    C225123   7.639   2.819  17.039
   19ARHM    H225124   7.596   2.724  17.002
   19ARHM    O225125   7.602   2.837  17.177
   19ARHM    C325126   7.788   2.804  17.020
   19ARHM    H325127   7.806   2.777  16.914
   19ARHM    O325128   7.839   2.698  17.100
   19ARHM   HO325129   7.844   2.728  17.191
   19ARHM    C425130   7.857   2.936  17.047
   19ARHM    H425131   7.839   2.967  17.152
   19ARHM    O425132   7.997   2.926  17.024
   19ARHM   HO425133   8.032   2.852  17.075
   19ARHM    C625134   7.854   3.182  16.972
   19ARHM   H6125135   7.813   3.250  16.894
   19ARHM   H6225136   7.825   3.223  17.072
   19ARHM   H6325137   7.965   3.181  16.963
   20ARHM    C125138   7.469   2.800  17.204
   20ARHM    H125139   7.430   2.734  17.123
   20ARHM    C525140   7.412   3.001  17.319
   20ARHM    H525141   7.516   3.037  17.305
   20ARHM    O525142   7.378   2.911  17.213
   20ARHM    C225143   7.467   2.722  17.334
   20ARHM    H225144   7.548   2.646  17.330
   20ARHM    O225145   7.342   2.655  17.354
   20ARHM    C325146   7.500   2.812  17.450
   20ARHM    H325147   7.603   2.850  17.438
   20ARHM    O325148   7.488   2.735  17.569
   20ARHM    C425149   7.402   2.927  17.452
   20ARHM    H425150   7.299   2.886  17.462
   20ARHM    O425151   7.424   3.015  17.563
   20ARHM   HO425152   7.354   3.081  17.563
   20ARHM    C625153   7.318   3.122  17.308
   20ARHM   H6125154   7.213   3.092  17.327
   20ARHM   H6225155   7.348   3.202  17.379
   20ARHM   H6325156   7.325   3.164  17.205
   21BMANN   C125157   7.324   2.541  17.274
   21BMANN   H125158   7.415   2.516  17.216
   21BMANN   C525159   7.191   2.449  17.099
   21BMANN   H525160   7.284   2.425  17.044
   21BMANN   O525161   7.215   2.563  17.184
   21BMANN   C225162   7.290   2.426  17.367
   21BMANN   H225163   7.382   2.409  17.427
   21BMANN    N25164   7.184   2.461  17.461
   21BMANN   HN25165   7.123   2.535  17.433
   21BMANN    C25166   7.169   2.405  17.582
   21BMANN    O25167   7.237   2.310  17.619
   21BMANN   CT25168   7.063   2.463  17.671
   21BMANN  HT125169   6.967   2.409  17.656
   21BMANN  HT225170   7.049   2.571  17.650
   21BMANN  HT325171   7.094   2.451  17.777
   21BMANN   C325172   7.265   2.301  17.284
   21BMANN   H325173   7.356   2.278  17.226
   21BMANN   O325174   7.239   2.189  17.369
   21BMANN  HO325175   7.224   2.223  17.457
   21BMANN   C425176   7.153   2.329  17.185
   21BMANN   H425177   7.060   2.355  17.241
   21BMANN   O425178   7.123   2.217  17.101
   21BMANN  HO425179   7.038   2.180  17.125
   21BMANN   C625180   7.085   2.486  16.997
   21BMANN  H6125181   7.066   2.400  16.929
   21BMANN  H6225182   6.990   2.510  17.048
   21BMANN   O625183   7.125   2.598  16.916
   21BMANN  HO625184   7.095   2.678  16.959
   22BGLCN   C125185   7.583   2.764  17.667
   22BGLCN   H125186   7.611   2.872  17.665
   22BGLCN   C525187   7.794   2.702  17.754
   22BGLCN   H525188   7.824   2.809  17.757
   22BGLCN   O525189   7.698   2.682  17.650
   22BGLCN   C225190   7.512   2.729  17.796
   22BGLCN   H225191   7.487   2.621  17.792
   22BGLCN    N25192   7.388   2.804  17.807
   22BGLCN   HN25193   7.381   2.886  17.750
   22BGLCN    C25194   7.279   2.763  17.873
   22BGLCN    O25195   7.273   2.657  17.935
   22BGLCN   CT25196   7.160   2.855  17.868
   22BGLCN  HT125197   7.097   2.829  17.780
   22BGLCN  HT225198   7.192   2.960  17.859
   22BGLCN  HT325199   7.100   2.842  17.960
   22BGLCN   C325200   7.609   2.751  17.911
   22BGLCN   H325201   7.640   2.857  17.908
   22BGLCN   O325202   7.539   2.727  18.035
   22BGLCN   C425203   7.731   2.663  17.887
   22BGLCN   H425204   7.697   2.558  17.880
   22BGLCN   O425205   7.828   2.672  17.991
   22BGLCN  HO425206   7.852   2.581  18.013
   22BGLCN   C625207   7.916   2.619  17.718
   22BGLCN  H6125208   7.983   2.612  17.806
   22BGLCN  H6225209   7.885   2.516  17.690
   22BGLCN   O625210   7.991   2.678  17.611
   22BGLCN  HO625211   8.018   2.608  17.550
   23AGAL    C125212   7.596   2.777  18.154
   23AGAL    H125213   7.687   2.719  18.179
   23AGAL    C525214   7.516   3.001  18.124
   23AGAL    H525215   7.464   2.967  18.032
   23AGAL    O525216   7.631   2.916  18.145
   23AGAL    C225217   7.498   2.757  18.268
   23AGAL    H225218   7.549   2.788  18.362
   23AGAL    O225219   7.459   2.619  18.278
   23AGAL    C325220   7.375   2.843  18.251
   23AGAL    H325221   7.323   2.811  18.158
   23AGAL    O325222   7.285   2.827  18.360
   23AGAL   HO325223   7.310   2.895  18.423
   23AGAL    C425224   7.417   2.988  18.240
   23AGAL    H425225   7.328   3.049  18.216
   23AGAL    O425226   7.473   3.036  18.362
   23AGAL   HO425227   7.523   3.115  18.339
   23AGAL    C625228   7.561   3.144  18.097
   23AGAL   H6125229   7.622   3.147  18.004
   23AGAL   H6225230   7.472   3.208  18.080
   23AGAL    O625231   7.637   3.201  18.204
   23AGAL   HO625232   7.730   3.182  18.188
   24ARHM    C125233   7.534   2.538  18.365
   24ARHM    H125234   7.636   2.580  18.376
   24ARHM    C525235   7.427   2.338  18.293
   24ARHM    H525236   7.364   2.396  18.222
   24ARHM    O525237   7.552   2.406  18.313
   24ARHM    C225238   7.463   2.536  18.499
   24ARHM    H225239   7.441   2.641  18.529
   24ARHM    O225240   7.542   2.474  18.602
   24ARHM    C325241   7.331   2.466  18.483
   24ARHM    H325242   7.268   2.522  18.410
   24ARHM    O325243   7.259   2.459  18.606
   24ARHM   HO325244   7.222   2.371  18.611
   24ARHM    C425245   7.356   2.327  18.428
   24ARHM    H425246   7.425   2.274  18.497
   24ARHM    O425247   7.236   2.250  18.419
   24ARHM   HO425248   7.256   2.159  18.395
   24ARHM    C625249   7.461   2.202  18.229
   24ARHM   H6125250   7.368   2.147  18.202
   24ARHM   H6225251   7.521   2.218  18.137
   24ARHM   H6325252   7.521   2.141  18.299
   25ARHM    C125253   7.640   2.558  18.659
   25ARHM    H125254   7.666   2.639  18.588
   25ARHM    C525255   7.746   2.384  18.780
   25ARHM    H525256   7.670   2.312  18.744
   25ARHM    O525257   7.762   2.488  18.684
   25ARHM    C225258   7.587   2.622  18.786
   25ARHM    H225259   7.487   2.664  18.765
   25ARHM    O225260   7.673   2.725  18.837
   25ARHM    C325261   7.568   2.515  18.891
   25ARHM    H325262   7.492   2.443  18.855
   25ARHM    O325263   7.522   2.578  19.012
   25ARHM    C425264   7.699   2.443  18.913
   25ARHM    H425265   7.775   2.517  18.947
   25ARHM    O425266   7.686   2.342  19.013
   25ARHM   HO425267   7.773   2.308  19.037
   25ARHM    C625268   7.881   2.310  18.787
   25ARHM   H6125269   7.909   2.276  18.685
   25ARHM   H6225270   7.961   2.378  18.823
   25ARHM   H6325271   7.874   2.221  18.852
   26BMANN   C125272   7.659   2.850  18.774
   26BMANN   H125273   7.554   2.865  18.741
   26BMANN   C525274   7.737   2.992  18.598
   26BMANN   H525275   7.631   3.001  18.567
   26BMANN   O525276   7.750   2.864  18.664
   26BMANN   C225277   7.696   2.955  18.877
   26BMANN   H225278   7.623   2.945  18.960
   26BMANN    N25279   7.830   2.935  18.931
   26BMANN   HN25280   7.900   2.915  18.862
   26BMANN    C25281   7.865   2.943  19.060
   26BMANN    O25282   7.785   2.961  19.151
   26BMANN   CT25283   8.011   2.927  19.090
   26BMANN  HT125284   8.060   2.863  19.014
   26BMANN  HT225285   8.023   2.880  19.190
   26BMANN  HT325286   8.060   3.027  19.091
   26BMANN   C325287   7.675   3.092  18.814
   26BMANN   H325288   7.571   3.095  18.775
   26BMANN   O325289   7.685   3.197  18.909
   26BMANN  HO325290   7.601   3.243  18.912
   26BMANN   C425291   7.768   3.106  18.695
   26BMANN   H425292   7.873   3.096  18.729
   26BMANN   O425293   7.759   3.231  18.628
   26BMANN  HO425294   7.675   3.275  18.646
   26BMANN   C625295   7.819   2.992  18.470
   26BMANN  H6125296   7.815   2.892  18.422
   26BMANN  H6225297   7.774   3.064  18.398
   26BMANN   O625298   7.956   3.029  18.489
   26BMANN  HO625299   7.959   3.123  18.510
   27BGLCN   C125300   7.437   2.499  19.090
   27BGLCN   H125301   7.457   2.390  19.077
   27BGLCN   C525302   7.210   2.451  19.137
   27BGLCN   H525303   7.234   2.343  19.127
   27BGLCN   O525304   7.301   2.527  19.056
   27BGLCN   C225305   7.463   2.541  19.233
   27BGLCN   H225306   7.435   2.648  19.241
   27BGLCN    N25307   7.605   2.530  19.265
   27BGLCN   HN25308   7.654   2.455  19.220
   27BGLCN    C25309   7.675   2.619  19.336
   27BGLCN    O25310   7.624   2.718  19.390
   27BGLCN   CT25311   7.823   2.596  19.346
   27BGLCN  HT125312   7.855   2.523  19.268
   27BGLCN  HT225313   7.848   2.556  19.446
   27BGLCN  HT325314   7.877   2.691  19.330
   27BGLCN   C325315   7.371   2.464  19.326
   27BGLCN   H325316   7.392   2.356  19.312
   27BGLCN   O325317   7.405   2.501  19.462
   27BGLCN   C425318   7.228   2.492  19.282
   27BGLCN   H425319   7.210   2.602  19.290
   27BGLCN   O425320   7.128   2.429  19.362
   27BGLCN  HO425321   7.153   2.339  19.384
   27BGLCN   C625322   7.072   2.472  19.079
   27BGLCN  H6125323   6.996   2.421  19.141
   27BGLCN  H6225324   7.047   2.581  19.076
   27BGLCN   O625325   7.064   2.418  18.947
   27BGLCN  HO625326   7.121   2.469  18.889
   28AGAL    C125327   7.358   2.418   0.094
   28AGAL    H125328   7.249   2.434   0.107
   28AGAL    C525329   7.524   2.246   0.065
   28AGAL    H525330   7.571   2.306  19.457
   28AGAL    O525331   7.383   2.278   0.069
   28AGAL    C225332   7.424   2.456   0.226
   28AGAL    H225333   7.381   2.383   0.298
   28AGAL    O225334   7.391   2.588   0.273
   28AGAL    C325335   7.574   2.432   0.219
   28AGAL    H325336   7.614   2.490   0.133
   28AGAL    O325337   7.642   2.477   0.335
   28AGAL   HO325338   7.691   2.557   0.316
   28AGAL    C425339   7.597   2.284   0.194
   28AGAL    H425340   7.706   2.268   0.179
   28AGAL    O425341   7.556   2.205   0.305
   28AGAL   HO425342   7.603   2.239   0.382
   28AGAL    C625343   7.545   2.100   0.026
   28AGAL   H6125344   7.536   2.089  19.389
   28AGAL   H6225345   7.648   2.069   0.054
   28AGAL    O625346   7.452   2.010   0.088
   28AGAL   HO625347   7.365   2.025   0.051
   29ARHM    C125348   7.361   2.590   0.411
   29ARHM    H125349   7.407   2.503   0.461
   29ARHM    C525350   7.153   2.704   0.379
   29ARHM    H525351   7.166   2.704   0.268
   29ARHM    O525352   7.219   2.588   0.434
   29ARHM    C225353   7.419   2.714   0.476
   29ARHM    H225354   7.528   2.714   0.458
   29ARHM    O225355   7.391   2.710   0.618
   29ARHM    C325356   7.360   2.838   0.413
   29ARHM    H325357   7.379   2.835   0.303
   29ARHM    O325358   7.422   2.956   0.463
   29ARHM   HO325359   7.439   3.015   0.389
   29ARHM    C425360   7.210   2.833   0.437
   29ARHM    H425361   7.194   2.830   0.547
   29ARHM    O425362   7.139   2.947   0.387
   29ARHM   HO425363   7.170   2.968   0.299
   29ARHM    C625364   7.004   2.686   0.411
   29ARHM   H6125365   6.966   2.591   0.368
   29ARHM   H6225366   6.987   2.684   0.521
   29ARHM   H6325367   6.944   2.769   0.367
   30ARHM    C125368   7.500   2.668   0.697
   30ARHM    H125369   7.588   2.729   0.670
   30ARHM    C525370   7.427   2.441   0.717
   30ARHM    H525371   7.334   2.464   0.661
   30ARHM    O525372   7.532   2.530   0.676
   30ARHM    C225373   7.469   2.690   0.844
   30ARHM    H225374   7.435   2.795   0.858
   30ARHM    O225375   7.585   2.665   0.923
   30ARHM    C325376   7.357   2.599   0.892
   30ARHM    H325377   7.268   2.622   0.829
   30ARHM    O325378   7.320   2.630   1.028
   30ARHM    C425379   7.397   2.455   0.865
   30ARHM    H425380   7.490   2.430   0.920
   30ARHM    O425381   7.296   2.363   0.904
   30ARHM   HO425382   7.211   2.400   0.881
   30ARHM    C625383   7.474   2.300   0.676
   30ARHM   H6125384   7.396   2.224   0.700
   30ARHM   H6225385   7.493   2.296   0.567
   30ARHM   H6325386   7.568   2.274   0.729
   31BMANN   C125387   7.674   2.771   0.939
   31BMANN   H125388   7.620   2.867   0.953
   31BMANN   C525389   7.865   2.881   0.847
   31BMANN   H525390   7.814   2.979   0.859
   31BMANN   O525391   7.766   2.778   0.830
   31BMANN   C225392   7.751   2.734   1.064
   31BMANN   H225393   7.678   2.734   1.148
   31BMANN    N25394   7.807   2.599   1.056
   31BMANN   HN25395   7.818   2.563   0.964
   31BMANN    C25396   7.840   2.521   1.160
   31BMANN    O25397   7.843   2.564   1.275
   31BMANN   CT25398   7.874   2.378   1.130
   31BMANN  HT125399   7.925   2.369   1.032
   31BMANN  HT225400   7.780   2.317   1.128
   31BMANN  HT325401   7.940   2.338   1.210
   31BMANN   C325402   7.851   2.844   1.091
   31BMANN   H325403   7.797   2.940   1.098
   31BMANN   O325404   7.914   2.824   1.217
   31BMANN  HO325405   7.904   2.732   1.242
   31BMANN   C425406   7.947   2.853   0.973
   31BMANN   H425407   8.000   2.756   0.960
   31BMANN   O425408   8.045   2.955   0.992
   31BMANN  HO425409   8.063   2.963   1.085
   31BMANN   C625410   7.948   2.889   0.719
   31BMANN  H6125411   8.025   2.968   0.729
   31BMANN  H6225412   8.002   2.792   0.706
   31BMANN   O625413   7.870   2.913   0.601
   31BMANN  HO625414   7.852   3.007   0.590
   32BGLCN   C125415   7.396   2.572   1.132
   32BGLCN   H125416   7.503   2.568   1.106
   32BGLCN   C525417   7.432   2.378   1.264
   32BGLCN   H525418   7.538   2.378   1.231
   32BGLCN   O525419   7.350   2.441   1.164
   32BGLCN   C225420   7.380   2.657   1.257
   32BGLCN   H225421   7.275   2.642   1.291
   32BGLCN    N25422   7.398   2.799   1.231
   32BGLCN   HN25423   7.465   2.826   1.161
   32BGLCN    C25424   7.320   2.894   1.284
   32BGLCN    O25425   7.232   2.868   1.365
   32BGLCN   CT25426   7.344   3.036   1.239
   32BGLCN  HT125427   7.402   3.038   1.144
   32BGLCN  HT225428   7.400   3.091   1.318
   32BGLCN  HT325429   7.247   3.086   1.223
   32BGLCN   C325430   7.471   2.599   1.364
   32BGLCN   H325431   7.573   2.594   1.321
   32BGLCN   O325432   7.478   2.675   1.486
   32BGLCN   C425433   7.422   2.458   1.392
   32BGLCN   H425434   7.316   2.462   1.424
   32BGLCN   O425435   7.495   2.396   1.497
   32BGLCN  HO425436   7.487   2.452   1.574
   32BGLCN   C625437   7.387   2.234   1.273
   32BGLCN  H6125438   7.442   2.182   1.354
   32BGLCN  H6225439   7.278   2.229   1.297
   32BGLCN   O625440   7.412   2.167   1.149
   32BGLCN  HO625441   7.366   2.215   1.080
   33AGAL    C125442   7.608   2.684   1.541
   33AGAL    H125443   7.666   2.590   1.525
   33AGAL    C525444   7.619   2.920   1.503
   33AGAL    H525445   7.517   2.916   1.458
   33AGAL    O525446   7.682   2.792   1.482
   33AGAL    C225447   7.597   2.710   1.690
   33AGAL    H225448   7.701   2.723   1.728
   33AGAL    O225449   7.542   2.595   1.754
   33AGAL    C325450   7.520   2.838   1.714
   33AGAL    H325451   7.420   2.830   1.666
   33AGAL    O325452   7.497   2.862   1.853
   33AGAL   HO325453   7.570   2.918   1.882
   33AGAL    C425454   7.598   2.952   1.651
   33AGAL    H425455   7.534   3.043   1.656
   33AGAL    O425456   7.717   2.983   1.723
   33AGAL   HO425457   7.791   2.930   1.692
   33AGAL    C625458   7.697   3.026   1.426
   33AGAL   H6125459   7.671   3.020   1.318
   33AGAL   H6225460   7.668   3.127   1.462
   33AGAL    O625461   7.839   3.012   1.437
   33AGAL   HO625462   7.870   2.945   1.375
   34ARHM    C125463   7.597   2.563   1.881
   34ARHM    H125464   7.618   2.656   1.939
   34ARHM    C525465   7.698   2.365   1.793
   34ARHM    H525466   7.668   2.392   1.689
   34ARHM    O525467   7.717   2.484   1.870
   34ARHM    C225468   7.487   2.483   1.949
   34ARHM    H225469   7.395   2.545   1.944
   34ARHM    O225470   7.509   2.449   2.087
   34ARHM    C325471   7.463   2.357   1.867
   34ARHM    H325472   7.435   2.386   1.763
   34ARHM    O325473   7.353   2.281   1.918
   34ARHM   HO325474   7.376   2.189   1.908
   34ARHM    C425475   7.591   2.277   1.856
   34ARHM    H425476   7.625   2.247   1.957
   34ARHM    O425477   7.571   2.160   1.776
   34ARHM   HO425478   7.578   2.080   1.830
   34ARHM    C625479   7.836   2.297   1.782
   34ARHM   H6125480   7.877   2.275   1.883
   34ARHM   H6225481   7.829   2.201   1.726
   34ARHM   H6325482   7.907   2.362   1.727
   35ARHM    C125483   7.520   2.557   2.178
   35ARHM    H125484   7.453   2.641   2.149
   35ARHM    C525485   7.748   2.502   2.219
   35ARHM    H525486   7.747   2.421   2.144
   35ARHM    O525487   7.655   2.605   2.183
   35ARHM    C225488   7.481   2.506   2.317
   35ARHM    H225489   7.377   2.467   2.310
   35ARHM    O225490   7.488   2.599   2.427
   35ARHM    C325491   7.572   2.392   2.355
   35ARHM    H325492   7.566   2.311   2.279
   35ARHM    O325493   7.532   2.335   2.480
   35ARHM   HO325494   7.534   2.407   2.544
   35ARHM    C425495   7.714   2.445   2.357
   35ARHM    H425496   7.718   2.531   2.427
   35ARHM    O425497   7.810   2.350   2.401
   35ARHM   HO425498   7.800   2.268   2.352
   35ARHM    C625499   7.886   2.570   2.214
   35ARHM   H6125500   7.908   2.604   2.111
   35ARHM   H6225501   7.888   2.659   2.281
   35ARHM   H6325502   7.965   2.500   2.248
   36BMANN   C125503   7.399   2.708   2.429
   36BMANN   H125504   7.298   2.673   2.398
   36BMANN   C525505   7.355   2.924   2.340
   36BMANN   H525506   7.256   2.888   2.304
   36BMANN   O525507   7.445   2.813   2.343
   36BMANN   C225508   7.394   2.763   2.572
   36BMANN   H225509   7.353   2.681   2.637
   36BMANN    N25510   7.526   2.797   2.626
   36BMANN   HN25511   7.600   2.803   2.560
   36BMANN    C25512   7.556   2.817   2.756
   36BMANN    O25513   7.476   2.807   2.849
   36BMANN   CT25514   7.699   2.853   2.785
   36BMANN  HT125515   7.727   2.946   2.730
   36BMANN  HT225516   7.767   2.771   2.753
   36BMANN  HT325517   7.713   2.870   2.894
   36BMANN   C325518   7.291   2.877   2.573
   36BMANN   H325519   7.196   2.836   2.533
   36BMANN   O325520   7.262   2.927   2.703
   36BMANN  HO325521   7.190   2.990   2.695
   36BMANN   C425522   7.338   2.985   2.478
   36BMANN   H425523   7.435   3.025   2.514
   36BMANN   O425524   7.243   3.092   2.472
   36BMANN  HO425525   7.274   3.168   2.522
   36BMANN   C625526   7.406   3.022   2.235
   36BMANN  H6125527   7.431   2.967   2.142
   36BMANN  H6225528   7.326   3.095   2.210
   36BMANN   O625529   7.522   3.095   2.278
   36BMANN  HO625530   7.495   3.172   2.328
    1ECLIP HB6S25531   0.597   2.637  11.813
    1ECLIP  OB625532   0.506   2.518  11.952
    1ECLIP  CB625533   0.606   2.533  11.851
    1ECLIP HB6R25534   0.708   2.524  11.895
    1ECLIP  CB525535   0.597   2.440  11.731
    1ECLIP  OB525536   0.461   2.447  11.689
    1ECLIP  HB525537   0.624   2.337  11.762
    1ECLIP  CB125538   0.437   2.367  11.573
    1ECLIP  HB125539   0.448   2.259  11.596
    1ECLIP  OA625540   0.304   2.394  11.539
    1ECLIP  CA625541   0.276   2.535  11.537
    1ECLIP HA6R25542   0.365   2.600  11.552
    1ECLIP HA6S25543   0.204   2.561  11.617
    1ECLIP  CB425544   0.686   2.483  11.615
    1ECLIP  HB425545   0.654   2.583  11.579
    1ECLIP  OB425546   0.817   2.484  11.668
    1ECLIP   PB25547   0.894   2.629  11.688
    1ECLIP OPB425548   0.995   2.600  11.799
    1ECLIP OPB325549   0.785   2.730  11.727
    1ECLIP OPB225550   0.949   2.663  11.552
    1ECLIP  CB325551   0.670   2.387  11.499
    1ECLIP  OB325552   0.757   2.421  11.391
    1ECLIP  HB325553   0.689   2.286  11.538
    1ECLIP  C7125554   0.806   2.318  11.321
    1ECLIP  O7125555   0.762   2.204  11.331
    1ECLIP  C7225556   0.860   2.365  11.187
    1ECLIP H72R25557   0.776   2.372  11.115
    1ECLIP H72S25558   0.931   2.288  11.150
    1ECLIP  CB225559   0.526   2.402  11.453
    1ECLIP  HB225560   0.514   2.510  11.430
    1ECLIP  NB225561   0.494   2.327  11.330
    1ECLIP HNB225562   0.487   2.228  11.337
    1ECLIP  CA425563   0.142   2.466  11.332
    1ECLIP  HA425564   0.217   2.390  11.301
    1ECLIP  OA425565   0.044   2.412  11.422
    1ECLIP HOA425566   8.123   2.481  11.435
    1ECLIP  CA525567   0.215   2.574  11.407
    1ECLIP  HA525568   0.142   2.653  11.433
    1ECLIP  OA525569   0.315   2.631  11.324
    1ECLIP  CA125570   0.258   2.701  11.212
    1ECLIP  HA125571   0.342   2.739  11.150
    1ECLIP  OA125572   0.182   2.811  11.257
    1ECLIP OPA225573   0.138   3.008  11.414
    1ECLIP OPA325574   0.322   2.849  11.475
    1ECLIP OPA425575   0.363   2.991  11.291
    1ECLIP   PA25576   0.249   2.921  11.361
    1ECLIP  CA325577   0.079   2.528  11.212
    1ECLIP  HA325578   0.018   2.610  11.255
    1ECLIP  OA325579   8.137   2.442  11.134
    1ECLIP  C3125580   0.014   2.315  11.092
    1ECLIP  O3125581   8.111   2.277  10.985
    1ECLIP  C3225582   8.117   2.214  11.201
    1ECLIP H32R25583   8.030   2.162  11.156
    1ECLIP H32S25584   8.075   2.263  11.292
    1ECLIP  CA225585   0.182   2.599  11.126
    1ECLIP  HA225586   0.254   2.523  11.090
    1ECLIP  NA225587   0.119   2.665  11.013
    1ECLIP HNA225588   0.024   2.691  11.026
    1ECLIP  C7325589   0.932   2.500  11.193
    1ECLIP H73R25590   0.997   2.505  11.283
    1ECLIP  O7325591   0.828   2.596  11.200
    1ECLIP  C8125592   0.862   2.719  11.235
    1ECLIP  O8125593   0.972   2.769  11.228
    1ECLIP  C8225594   0.735   2.803  11.208
    1ECLIP H82R25595   0.760   2.906  11.240
    1ECLIP H82S25596   0.652   2.758  11.267
    1ECLIP  C8325597   0.701   2.799  11.057
    1ECLIP H83R25598   0.653   2.702  11.033
    1ECLIP H83S25599   0.796   2.802  11.000
    1ECLIP  C8425600   0.615   2.914  11.006
    1ECLIP H84R25601   0.668   3.010  11.022
    1ECLIP H84S25602   0.517   2.918  11.059
    1ECLIP  C8525603   0.591   2.895  10.855
    1ECLIP H85R25604   0.522   2.809  10.842
    1ECLIP H85S25605   0.688   2.868  10.809
    1ECLIP  C8625606   0.535   3.018  10.782
    1ECLIP H86R25607   0.614   3.096  10.780
    1ECLIP H86S25608   0.449   3.059  10.838
    1ECLIP  C8725609   0.492   2.987  10.637
    1ECLIP H87R25610   0.475   3.082  10.583
    1ECLIP H87S25611   0.394   2.933  10.642
    1ECLIP  C8825612   0.592   2.899  10.560
    1ECLIP H88R25613   0.605   2.803  10.615
    1ECLIP H88S25614   0.691   2.949  10.557
    1ECLIP  C8925615   0.548   2.862  10.418
    1ECLIP H89R25616   0.443   2.827  10.420
    1ECLIP H89S25617   0.611   2.776  10.385
    1ECLIP C81025618   0.563   2.976  10.317
    1ECLIPH810R25619   0.663   3.023  10.328
    1ECLIPH810S25620   0.487   3.053  10.340
    1ECLIP C81125621   0.543   2.928  10.172
    1ECLIPH811R25622   0.526   3.016  10.107
    1ECLIPH811S25623   0.451   2.864  10.171
    1ECLIP C81225624   0.659   2.847  10.113
    1ECLIPH812R25625   0.626   2.803  10.016
    1ECLIPH812S25626   0.685   2.762  10.180
    1ECLIP C81325627   0.785   2.931  10.087
    1ECLIPH813R25628   0.758   3.016  10.020
    1ECLIPH813S25629   0.820   2.975  10.183
    1ECLIP C81425630   0.899   2.851  10.024
    1ECLIPH814R25631   0.867   2.804   9.929
    1ECLIPH814S25632   0.932   2.771  10.094
    1ECLIPH814T25633   0.986   2.917  10.005
    1ECLIP  C7425634   1.022   2.522  11.068
    1ECLIP H74R25635   1.102   2.445  11.066
    1ECLIP H74S25636   1.076   2.619  11.080
    1ECLIP  C7525637   0.955   2.523  10.929
    1ECLIP H75R25638   1.018   2.587  10.864
    1ECLIP H75S25639   0.855   2.571  10.934
    1ECLIP  C7625640   0.947   2.385  10.861
    1ECLIP H76R25641   0.869   2.323  10.910
    1ECLIP H76S25642   1.044   2.333  10.875
    1ECLIP  C7725643   0.920   2.395  10.710
    1ECLIP H77R25644   1.010   2.440  10.662
    1ECLIP H77S25645   0.835   2.464  10.692
    1ECLIP  C7825646   0.890   2.259  10.646
    1ECLIP H78R25647   0.981   2.197  10.658
    1ECLIP H78S25648   0.809   2.209  10.704
    1ECLIP  C7925649   0.847   2.265  10.498
    1ECLIP H79R25650   0.739   2.291  10.493
    1ECLIP H79S25651   0.859   2.163  10.455
    1ECLIP C71025652   0.923   2.366  10.410
    1ECLIPH710R25653   0.913   2.468  10.453
    1ECLIPH710S25654   1.031   2.340  10.410
    1ECLIP C71125655   0.870   2.369  10.266
    1ECLIPH711R25656   0.873   2.267  10.223
    1ECLIPH711S25657   0.763   2.400  10.268
    1ECLIP C71225658   0.948   2.467  10.176
    1ECLIPH712R25659   1.054   2.434  10.170
    1ECLIPH712S25660   0.947   2.566  10.225
    1ECLIP C71325661   0.891   2.482  10.034
    1ECLIPH713R25662   0.785   2.513  10.042
    1ECLIPH713S25663   0.947   2.564   9.983
    1ECLIP C71425664   0.902   2.356   9.946
    1ECLIPH714R25665   1.008   2.326   9.937
    1ECLIPH714S25666   0.845   2.272   9.991
    1ECLIPH714T25667   0.862   2.376   9.844
    1ECLIP  C5125668   0.499   2.382  11.206
    1ECLIP  O5125669   0.515   2.501  11.187
    1ECLIP  C5225670   0.481   2.287  11.089
    1ECLIP H52R25671   0.570   2.222  11.079
    1ECLIP H52S25672   0.392   2.224  11.111
    1ECLIP  C5325673   0.457   2.364  10.956
    1ECLIP H53R25674   0.398   2.457  10.974
    1ECLIP  O5325675   0.391   2.272  10.868
    1ECLIP  C6125676   0.269   2.307  10.829
    1ECLIP  O6125677   0.197   2.388  10.883
    1ECLIP  C6225678   0.219   2.197  10.737
    1ECLIP H62R25679   0.177   2.115  10.801
    1ECLIP H62S25680   0.309   2.159  10.684
    1ECLIP  C6325681   0.113   2.245  10.636
    1ECLIP H63R25682   0.155   2.327  10.575
    1ECLIP H63S25683   0.024   2.284  10.690
    1ECLIP  C6425684   0.069   2.132  10.541
    1ECLIP H64R25685   0.000   2.174  10.464
    1ECLIP H64S25686   0.013   2.055  10.598
    1ECLIP  C6525687   0.189   2.066  10.472
    1ECLIP H65R25688   0.255   2.021  10.550
    1ECLIP H65S25689   0.249   2.143  10.419
    1ECLIP  C6625690   0.155   1.949  10.380
    1ECLIP H66R25691   0.106   1.871  10.441
    1ECLIP H66S25692   0.251   1.908  10.341
    1ECLIP  C6725693   0.068   1.985  10.260
    1ECLIP H67R25694   8.106   2.000  10.292
    1ECLIP H67S25695   0.070   1.900  10.188
    1ECLIP  C6825696   0.116   2.111  10.187
    1ECLIP H68R25697   0.227   2.112  10.181
    1ECLIP H68S25698   0.085   2.200  10.246
    1ECLIP  C6925699   0.058   2.119  10.047
    1ECLIP H69R25700   8.101   2.074  10.045
    1ECLIP H69S25701   0.122   2.058   9.980
    1ECLIP C61025702   0.049   2.264   9.998
    1ECLIPH610R25703   0.152   2.306   9.996
    1ECLIPH610S25704   8.133   2.324  10.069
    1ECLIP C61125705   8.133   2.273   9.858
    1ECLIPH611R25706   8.027   2.238   9.861
    1ECLIPH611S25707   8.130   2.379   9.826
    1ECLIP C61225708   0.068   2.189   9.759
    1ECLIPH612R25709   0.055   2.226   9.654
    1ECLIPH612S25710   0.177   2.196   9.782
    1ECLIPH612T25711   0.037   2.083   9.763
    1ECLIP  C5425712   0.586   2.409  10.885
    1ECLIP H54R25713   0.648   2.321  10.861
    1ECLIP H54S25714   0.642   2.472  10.957
    1ECLIP  C5525715   0.562   2.493  10.757
    1ECLIP H55R25716   0.657   2.548  10.735
    1ECLIP H55S25717   0.487   2.572  10.777
    1ECLIP  C5625718   0.522   2.413  10.633
    1ECLIP H56R25719   0.415   2.381  10.640
    1ECLIP H56S25720   0.584   2.321  10.628
    1ECLIP  C5725721   0.536   2.493  10.503
    1ECLIP H57R25722   0.641   2.525  10.491
    1ECLIP H57S25723   0.473   2.584  10.510
    1ECLIP  C5825724   0.494   2.412  10.378
    1ECLIP H58R25725   0.559   2.323  10.370
    1ECLIP H58S25726   0.389   2.377  10.390
    1ECLIP  C5925727   0.507   2.496  10.251
    1ECLIP H59R25728   0.608   2.544  10.250
    1ECLIP H59S25729   0.434   2.580  10.254
    1ECLIP C51025730   0.489   2.416  10.122
    1ECLIPH510R25731   0.393   2.362  10.122
    1ECLIPH510S25732   0.571   2.341  10.116
    1ECLIP C51125733   0.497   2.509  10.000
    1ECLIPH511R25734   0.401   2.564   9.989
    1ECLIPH511S25735   0.575   2.585  10.021
    1ECLIP C51225736   0.535   2.439   9.870
    1ECLIPH512R25737   0.541   2.517   9.791
    1ECLIPH512S25738   0.636   2.395   9.880
    1ECLIP C51325739   0.439   2.331   9.823
    1ECLIPH513R25740   0.335   2.370   9.828
    1ECLIPH513S25741   0.444   2.243   9.890
    1ECLIP C51425742   0.470   2.290   9.679
    1ECLIPH514R25743   0.561   2.226   9.675
    1ECLIPH514S25744   0.385   2.235   9.633
    1ECLIPH514T25745   0.489   2.380   9.617
    1ECLIP  C3325746   0.079   2.106  11.228
    1ECLIP H33R25747   0.032   2.020  11.280
    1ECLIP  O3325748   0.176   2.159  11.315
    1ECLIP HO3325749   0.145   2.222  11.380
    1ECLIP  C3425750   0.148   2.057  11.099
    1ECLIP H34R25751   0.193   2.145  11.050
    1ECLIP H34S25752   0.073   2.015  11.028
    1ECLIP  C3525753   0.265   1.957  11.114
    1ECLIP H35R25754   0.230   1.857  11.149
    1ECLIP H35S25755   0.336   1.997  11.189
    1ECLIP  C3625756   0.338   1.946  10.979
    1ECLIP H36R25757   0.347   2.049  10.939
    1ECLIP H36S25758   0.277   1.888  10.906
    1ECLIP  C3725759   0.482   1.893  10.983
    1ECLIP H37R25760   0.483   1.782  10.985
    1ECLIP H37S25761   0.531   1.929  11.076
    1ECLIP  C3825762   0.564   1.945  10.864
    1ECLIP H38R25763   0.573   2.055  10.872
    1ECLIP H38S25764   0.668   1.904  10.871
    1ECLIP  C3925765   0.506   1.910  10.726
    1ECLIP H39R25766   0.407   1.959  10.715
    1ECLIP H39S25767   0.491   1.800  10.718
    1ECLIP C31025768   0.597   1.957  10.611
    1ECLIPH310R25769   0.689   1.894  10.609
    1ECLIPH310S25770   0.630   2.061  10.630
    1ECLIP C31125771   0.529   1.951  10.474
    1ECLIPH311R25772   0.472   1.856  10.463
    1ECLIPH311S25773   0.456   2.036  10.469
    1ECLIP C31225774   0.626   1.966  10.356
    1ECLIPH312R25775   0.693   2.052  10.375
    1ECLIPH312S25776   0.689   1.875  10.348
    1ECLIP C31325777   0.555   1.990  10.222
    1ECLIPH313R25778   0.486   1.905  10.201
    1ECLIPH313S25779   0.493   2.082  10.232
    1ECLIP C31425780   0.652   2.008  10.105
    1ECLIPH314R25781   0.712   1.916  10.090
    1ECLIPH314S25782   0.598   2.031  10.011
    1ECLIPH314T25783   0.722   2.091  10.126
    1ECLIP  C1125784   0.183   2.704  10.902
    1ECLIP  O1125785   0.298   2.671  10.878
    1ECLIP  C1225786   0.109   2.797  10.809
    1ECLIP H12R25787   0.137   2.901  10.836
    1ECLIP H12S25788   8.143   2.786  10.823
    1ECLIP  C1325789   0.147   2.772  10.662
    1ECLIP H13R25790   0.257   2.776  10.649
    1ECLIP  O1325791   0.089   2.878  10.587
    1ECLIP HO1325792   0.127   2.888  10.499
    1ECLIP  C1425793   0.093   2.639  10.606
    1ECLIP H14R25794   8.139   2.622  10.655
    1ECLIP H14S25795   0.162   2.557  10.638
    1ECLIP  C1525796   0.071   2.632  10.452
    1ECLIP H15R25797   8.140   2.709  10.425
    1ECLIP H15S25798   0.027   2.533  10.427
    1ECLIP  C1625799   0.197   2.650  10.366
    1ECLIP H16R25800   0.244   2.550  10.357
    1ECLIP H16S25801   0.270   2.716  10.417
    1ECLIP  C1725802   0.170   2.706  10.225
    1ECLIP H17R25803   0.083   2.653  10.180
    1ECLIP H17S25804   0.258   2.685  10.161
    1ECLIP  C1825805   0.145   2.858  10.223
    1ECLIP H18R25806   0.055   2.879  10.284
    1ECLIP H18S25807   0.231   2.911  10.271
    1ECLIP  C1925808   0.123   2.917  10.082
    1ECLIP H19R25809   0.072   3.015  10.091
    1ECLIP H19S25810   0.057   2.848  10.025
    1ECLIP C11025811   0.253   2.939  10.002
    1ECLIPH110R25812   0.315   3.015  10.054
    1ECLIPH110S25813   0.310   2.843  10.002
    1ECLIP C11125814   0.233   2.982   9.856
    1ECLIPH111R25815   0.133   2.947   9.822
    1ECLIPH111S25816   0.232   3.093   9.849
    1ECLIP C11225817   0.342   2.925   9.763
    1ECLIPH112R25818   0.440   2.969   9.791
    1ECLIPH112S25819   0.350   2.815   9.781
    1ECLIP C11325820   0.316   2.947   9.613
    1ECLIPH113R25821   0.213   2.916   9.584
    1ECLIPH113S25822   0.313   3.057   9.595
    1ECLIP C11425823   0.418   2.884   9.519
    1ECLIPH114R25824   0.519   2.928   9.537
    1ECLIPH114S25825   0.424   2.775   9.535
    1ECLIPH114T25826   0.390   2.903   9.413
    2AKDO    C125827   0.503   2.280  11.989
    2AKDO   O1125828   0.535   2.183  12.062
    2AKDO   O1225829   0.398   2.286  11.916
    2AKDO    C225830   0.536   2.421  12.051
    2AKDO    C625831   0.670   2.584  12.166
    2AKDO    H625832   0.649   2.652  12.081
    2AKDO    O625833   0.661   2.446  12.117
    2AKDO    C325834   0.434   2.448  12.157
    2AKDO   H3125835   0.456   2.381  12.242
    2AKDO   H3225836   0.334   2.421  12.115
    2AKDO    C425837   0.432   2.588  12.206
    2AKDO    H425838   0.420   2.662  12.124
    2AKDO    O425839   0.323   2.598  12.296
    2AKDO    C525840   0.564   2.620  12.273
    2AKDO    H525841   0.567   2.731  12.281
    2AKDO    O525842   0.573   2.567  12.408
    2AKDO    C725843   0.814   2.614  12.200
    2AKDO    H725844   0.847   2.549  12.284
    2AKDO    O725845   0.830   2.751  12.236
    2AKDO   HO725846   0.909   2.775  12.188
    2AKDO    C825847   0.897   2.589  12.076
    2AKDO   H8125848   0.886   2.484  12.040
    2AKDO   H8225849   0.860   2.655  11.994
    2AKDO    O825850   1.036   2.615  12.093
    2AKDO   HO825851   1.066   2.616  12.002
    3AKDO    C125852   0.168   2.663  12.116
    3AKDO   O1125853   0.197   2.598  12.010
    3AKDO   O1225854   0.160   2.788  12.128
    3AKDO    C225855   0.190   2.583  12.250
    3AKDO    C625856   0.173   2.351  12.331
    3AKDO    H625857   0.282   2.347  12.353
    3AKDO    O625858   0.146   2.446  12.225
    3AKDO    C325859   0.123   2.630  12.379
    3AKDO   H3125860   0.013   2.635  12.363
    3AKDO   H3225861   0.156   2.734  12.402
    3AKDO    C425862   0.157   2.537  12.493
    3AKDO    H425863   0.267   2.529  12.506
    3AKDO    O425864   0.109   2.588  12.616
    3AKDO   HO425865   0.171   2.652  12.651
    3AKDO    C525866   0.105   2.398  12.459
    3AKDO    H525867   0.133   2.330  12.543
    3AKDO    O525868   8.109   2.393  12.444
    3AKDO   HO525869   8.085   2.434  12.360
    3AKDO    C725870   0.129   2.214  12.277
    3AKDO    H725871   0.024   2.223  12.241
    3AKDO    O725872   0.137   2.109  12.376
    3AKDO   HO725873   0.052   2.119  12.419
    3AKDO    C825874   0.214   2.175  12.157
    3AKDO   H8125875   0.189   2.243  12.073
    3AKDO   H8225876   0.321   2.192  12.181
    3AKDO    O825877   0.193   2.038  12.113
    3AKDO   HO825878   0.196   2.045  12.018
    4AHEP    C125879   0.641   2.656  12.497
    4AHEP    H125880   0.743   2.668  12.457
    4AHEP    C525881   0.458   2.794  12.573
    4AHEP    H525882   0.393   2.719  12.523
    4AHEP    O525883   0.585   2.789  12.505
    4AHEP    C225884   0.658   2.602  12.639
    4AHEP    H225885   0.681   2.494  12.628
    4AHEP    O225886   0.770   2.659  12.708
    4AHEP   HO225887   0.847   2.609  12.679
    4AHEP    C325888   0.527   2.608  12.718
    4AHEP    H325889   0.456   2.540  12.667
    4AHEP    O325890   0.551   2.567  12.854
    4AHEP    C425891   0.473   2.750  12.721
    4AHEP    H425892   0.547   2.815  12.772
    4AHEP    O425893   0.346   2.750  12.789
    4AHEP    P425894   0.294   2.862  12.898
    4AHEP  OP4225895   0.171   2.808  12.968
    4AHEP  OP4325896   0.251   2.987  12.825
    4AHEP  OP4425897   0.397   2.897  13.003
    4AHEP    C625898   0.388   2.929  12.552
    4AHEP    H625899   0.280   2.915  12.574
    4AHEP    O625900   0.438   3.026  12.643
    4AHEP   HO625901   0.381   3.012  12.719
    4AHEP    C725902   0.399   2.983  12.409
    4AHEP   H7125903   0.336   3.074  12.399
    4AHEP   H7225904   0.360   2.906  12.339
    4AHEP    O725905   0.533   3.017  12.371
    4AHEP   HO725906   0.587   2.946  12.407
    5AHEP    C125907   0.456   2.478  12.905
    5AHEP    H125908   0.361   2.487  12.848
    5AHEP    C525909   0.619   2.317  12.975
    5AHEP    H525910   0.693   2.395  12.949
    5AHEP    O525911   0.501   2.342  12.895
    5AHEP    C225912   0.425   2.513  13.050
    5AHEP    H225913   0.408   2.623  13.054
    5AHEP    O225914   0.305   2.451  13.098
    5AHEP   HO225915   0.231   2.483  13.045
    5AHEP    C325916   0.547   2.485  13.137
    5AHEP    H325917   0.632   2.546  13.100
    5AHEP    O325918   0.527   2.512  13.275
    5AHEP    C425919   0.582   2.339  13.120
    5AHEP    H425920   0.492   2.276  13.140
    5AHEP    O425921   0.692   2.298  13.200
    5AHEP    P425922   0.666   2.247  13.354
    5AHEP  OP4225923   0.763   2.326  13.437
    5AHEP  OP4325924   0.679   2.096  13.358
    5AHEP  OP4425925   0.520   2.267  13.391
    5AHEP    C625926   0.693   2.187  12.942
    5AHEP    H625927   0.786   2.181  13.003
    5AHEP    O625928   0.614   2.071  12.968
    5AHEP   HO625929   0.615   2.030  12.881
    5AHEP    C725930   0.733   2.187  12.795
    5AHEP   H7125931   0.836   2.147  12.788
    5AHEP   H7225932   0.738   2.290  12.752
    5AHEP    O725933   0.650   2.100  12.717
    6AHEP    C125934   0.541   2.167  12.656
    6AHEP    H125935   0.544   2.276  12.673
    6AHEP    C525936   0.549   2.008  12.478
    6AHEP    H525937   0.632   1.959  12.534
    6AHEP    O525938   0.548   2.147  12.515
    6AHEP    C225939   0.412   2.109  12.714
    6AHEP    H225940   0.415   2.119  12.825
    6AHEP    O225941   0.295   2.181  12.671
    6AHEP   HO225942   0.227   2.171  12.738
    6AHEP    C325943   0.405   1.962  12.679
    6AHEP    H325944   0.493   1.909  12.723
    6AHEP    O325945   0.288   1.900  12.732
    6AHEP   HO325946   0.251   1.835  12.671
    6AHEP    C425947   0.416   1.954  12.527
    6AHEP    H425948   0.341   2.027  12.490
    6AHEP    O425949   0.381   1.830  12.469
    6AHEP   HO425950   0.422   1.759  12.518
    6AHEP    C625951   0.581   1.980  12.331
    6AHEP    H625952   0.602   1.872  12.319
    6AHEP    O625953   0.466   2.010  12.250
    6AHEP   HO625954   0.503   2.073  12.188
    6AHEP    C725955   0.705   2.055  12.281
    6AHEP   H7125956   0.727   2.026  12.176
    6AHEP   H7225957   0.793   2.024  12.342
    6AHEP    O725958   0.693   2.197  12.289
    6AHEP   HO725959   0.678   2.230  12.200
    7AGLC    C125960   0.551   2.642  13.319
    7AGLC    H125961   0.635   2.689  13.264
    7AGLC    C525962   0.319   2.659  13.369
    7AGLC    H525963   0.311   2.552  13.337
    7AGLC    O525964   0.432   2.720  13.303
    7AGLC    C225965   0.584   2.637  13.469
    7AGLC    H225966   0.592   2.742  13.503
    7AGLC    O225967   0.711   2.579  13.495
    7AGLC   HO225968   0.712   2.486  13.470
    7AGLC    C325969   0.473   2.571  13.548
    7AGLC    H325970   0.457   2.470  13.504
    7AGLC    O325971   0.507   2.554  13.689
    7AGLC    C425972   0.346   2.654  13.520
    7AGLC    H425973   0.364   2.758  13.553
    7AGLC    O425974   0.232   2.606  13.590
    7AGLC   HO425975   0.201   2.675  13.649
    7AGLC    C625976   0.189   2.724  13.319
    7AGLC   H6125977   0.144   2.655  13.244
    7AGLC   H6225978   0.116   2.736  13.401
    7AGLC    O625979   0.208   2.849  13.252
    7AGLC   HO625980   0.292   2.839  13.205
    8AGLC    C125981   0.506   2.419  13.738
    8AGLC    H125982   0.421   2.365  13.693
    8AGLC    C525983   0.746   2.395  13.769
    8AGLC    H525984   0.763   2.497  13.730
    8AGLC    O525985   0.625   2.342  13.711
    8AGLC    C225986   0.494   2.414  13.889
    8AGLC    H225987   0.489   2.307  13.918
    8AGLC    O225988   0.378   2.479  13.938
    8AGLC    C325989   0.612   2.478  13.959
    8AGLC    H325990   0.622   2.581  13.920
    8AGLC    O325991   0.584   2.487  14.101
    8AGLC    C425992   0.734   2.399  13.921
    8AGLC    H425993   0.722   2.295  13.958
    8AGLC    O425994   0.851   2.456  13.980
    8AGLC   HO425995   0.895   2.513  13.916
    8AGLC    C625996   0.860   2.304  13.721
    8AGLC   H6125997   0.823   2.234  13.642
    8AGLC   H6225998   0.939   2.366  13.672
    8AGLC    O625999   0.919   2.225  13.825
    8AGLC   HO626000   0.950   2.287  13.891
    9AGAL    C126001   0.251   2.442  13.890
    9AGAL    H126002   0.245   2.452  13.780
    9AGAL    C526003   0.221   2.285  14.069
    9AGAL    H526004   0.325   2.304  14.103
    9AGAL    O526005   0.216   2.308  13.927
    9AGAL    C226006   0.164   2.545  13.958
    9AGAL    H226007   0.058   2.530  13.927
    9AGAL    O226008   0.209   2.668  13.897
    9AGAL    C326009   0.176   2.525  14.109
    9AGAL    H326010   0.283   2.533  14.138
    9AGAL    O326011   0.109   2.622  14.188
    9AGAL   HO326012   0.147   2.708  14.164
    9AGAL    C426013   0.129   2.384  14.141
    9AGAL    H426014   0.139   2.368  14.251
    9AGAL    O426015   8.137   2.364  14.106
    9AGAL   HO426016   8.132   2.341  14.013
    9AGAL    C626017   0.195   2.136  14.093
    9AGAL   H6126018   0.270   2.078  14.035
    9AGAL   H6226019   0.210   2.113  14.200
    9AGAL    O626020   0.065   2.092  14.053
    9AGAL   HO626021   0.043   2.133  13.969
   10AGAL    C126022   0.176   2.793  13.950
   10AGAL    H126023   0.067   2.801  13.965
   10AGAL    C526024   0.390   2.807  14.058
   10AGAL    H526025   0.415   2.708  14.016
   10AGAL    O526026   0.246   2.817  14.073
   10AGAL    C226027   0.222   2.896  13.847
   10AGAL    H226028   0.197   2.996  13.889
   10AGAL    O226029   0.150   2.883  13.723
   10AGAL   HO226030   0.150   2.971  13.684
   10AGAL    C326031   0.373   2.889  13.826
   10AGAL    H326032   0.398   2.787  13.790
   10AGAL    O326033   0.419   2.982  13.728
   10AGAL   HO326034   0.467   2.937  13.658
   10AGAL    C426035   0.442   2.912  13.960
   10AGAL    H426036   0.551   2.896  13.945
   10AGAL    O426037   0.424   3.044  14.009
   10AGAL   HO426038   0.408   3.101  13.933
   10AGAL    C626039   0.454   2.812  14.196
   10AGAL   H6126040   0.419   2.725  14.255
   10AGAL   H6226041   0.565   2.805  14.185
   10AGAL    O626042   0.422   2.931  14.268
   10AGAL   HO626043   0.415   3.001  14.203
   11BGLC    C126044   0.626   2.387  14.192
   11BGLC    H126045   0.737   2.389  14.204
   11BGLC    C526046   0.616   2.153  14.249
   11BGLC    H526047   0.726   2.156  14.269
   11BGLC    O526048   0.582   2.255  14.153
   11BGLC    C226049   0.557   2.422  14.324
   11BGLC    H226050   0.448   2.424  14.305
   11BGLC    O226051   0.595   2.552  14.371
   11BGLC   HO226052   0.616   2.606  14.294
   11BGLC    C326053   0.585   2.319  14.431
   11BGLC    H326054   0.694   2.319  14.456
   11BGLC    O326055   0.505   2.343  14.548
   11BGLC    C426056   0.544   2.184  14.380
   11BGLC    H426057   0.435   2.185  14.359
   11BGLC    O426058   0.568   2.084  14.479
   11BGLC   HO426059   0.497   2.087  14.544
   11BGLC    C626060   0.580   2.018  14.189
   11BGLC   H6126061   0.547   1.949  14.269
   11BGLC   H6226062   0.495   2.029  14.118
   11BGLC    O626063   0.691   1.957  14.121
   11BGLC   HO626064   0.711   2.005  14.041
   12BGLCN   C126065   0.568   2.389  14.665
   12BGLCN   H126066   0.602   2.494  14.651
   12BGLCN   C526067   0.733   2.340  14.829
   12BGLCN   H526068   0.763   2.447  14.828
   12BGLCN   O526069   0.677   2.304  14.702
   12BGLCN   C226070   0.457   2.379  14.769
   12BGLCN   H226071   0.424   2.273  14.772
   12BGLCN    N26072   0.345   2.464  14.729
   12BGLCN   HN26073   0.365   2.559  14.707
   12BGLCN    C26074   0.220   2.420  14.708
   12BGLCN    O26075   0.184   2.305  14.730
   12BGLCN   CT26076   0.122   2.521  14.654
   12BGLCN  HT126077   0.056   2.557  14.736
   12BGLCN  HT226078   0.060   2.475  14.575
   12BGLCN  HT326079   0.176   2.609  14.611
   12BGLCN   C326080   0.509   2.414  14.908
   12BGLCN   H326081   0.542   2.520  14.907
   12BGLCN   O326082   0.408   2.395  15.010
   12BGLCN   C426083   0.626   2.322  14.936
   12BGLCN   H426084   0.590   2.217  14.929
   12BGLCN   O426085   0.681   2.341  15.067
   12BGLCN  HO426086   0.690   2.435  15.084
   12BGLCN   C626087   0.858   2.257  14.851
   12BGLCN  H6126088   0.888   2.257  14.958
   12BGLCN  H6226089   0.839   2.151  14.823
   12BGLCN   O626090   0.969   2.308  14.776
   12BGLCN  HO626091   0.952   2.294  14.682
   13AGAL    C126092   0.412   2.487  15.117
   13AGAL    H126093   0.517   2.510  15.146
   13AGAL    C526094   0.210   2.595  15.045
   13AGAL    H526095   0.200   2.519  14.965
   13AGAL    O526096   0.349   2.611  15.079
   13AGAL    C226097   0.340   2.436  15.242
   13AGAL    H226098   0.343   2.519  15.316
   13AGAL    O226099   0.405   2.321  15.302
   13AGAL    C326100   0.194   2.411  15.209
   13AGAL    H326101   0.189   2.339  15.125
   13AGAL    O326102   0.124   2.352  15.318
   13AGAL   HO326103   0.110   2.258  15.302
   13AGAL    C426104   0.131   2.542  15.165
   13AGAL    H426105   0.027   2.522  15.133
   13AGAL    O426106   0.127   2.641  15.268
   13AGAL   HO426107   0.195   2.706  15.247
   13AGAL    C626108   0.156   2.726  14.988
   13AGAL   H6126109   0.199   2.739  14.886
   13AGAL   H6226110   0.046   2.722  14.977
   13AGAL    O626111   0.193   2.842  15.065
   13AGAL   HO626112   0.127   2.865  15.130
   14ARHM    C126113   0.462   2.340  15.431
   14ARHM    H126114   0.506   2.442  15.436
   14ARHM    C526115   0.530   2.113  15.456
   14ARHM    H526116   0.483   2.087  15.358
   14ARHM    O526117   0.572   2.250  15.454
   14ARHM    C226118   0.357   2.325  15.540
   14ARHM    H226119   0.273   2.394  15.518
   14ARHM    O226120   0.403   2.353  15.674
   14ARHM    C326121   0.308   2.183  15.543
   14ARHM    H326122   0.265   2.158  15.444
   14ARHM    O326123   0.204   2.165  15.640
   14ARHM   HO326124   0.243   2.171  15.727
   14ARHM    C426125   0.427   2.090  15.567
   14ARHM    H426126   0.475   2.118  15.663
   14ARHM    O426127   0.389   1.953  15.577
   14ARHM   HO426128   0.401   1.923  15.667
   14ARHM    C626129   0.658   2.030  15.471
   14ARHM   H6126130   0.727   2.050  15.386
   14ARHM   H6226131   0.711   2.056  15.565
   14ARHM   H6326132   0.635   1.921  15.471
   15ARHM    C126133   0.452   2.481  15.700
   15ARHM    H126134   0.415   2.554  15.625
   15ARHM    C526135   0.652   2.394  15.800
   15ARHM    H526136   0.621   2.290  15.777
   15ARHM    O526137   0.596   2.482  15.702
   15ARHM    C226138   0.401   2.521  15.838
   15ARHM    H226139   0.290   2.517  15.836
   15ARHM    O226140   0.442   2.658  15.857
   15ARHM    C326141   0.453   2.423  15.941
   15ARHM    H326142   0.424   2.321  15.907
   15ARHM    O326143   0.391   2.444  16.069
   15ARHM    C426144   0.604   2.432  15.940
   15ARHM    H426145   0.636   2.537  15.959
   15ARHM    O426146   0.664   2.350  16.041
   15ARHM   HO426147   0.757   2.340  16.019
   15ARHM    C626148   0.805   2.402  15.783
   15ARHM   H6126149   0.858   2.330  15.848
   15ARHM   H6226150   0.831   2.378  15.677
   15ARHM   H6326151   0.841   2.505  15.805
   16BMANN   C126152   0.417   2.717  15.981
   16BMANN   H126153   0.484   2.672  16.058
   16BMANN   C526154   0.259   2.759  16.153
   16BMANN   H526155   0.328   2.709  16.225
   16BMANN   O526156   0.281   2.703  16.022
   16BMANN   C226157   0.450   2.865  15.968
   16BMANN   H226158   0.559   2.871  15.943
   16BMANN    N26159   0.374   2.927  15.860
   16BMANN   HN26160   0.275   2.933  15.873
   16BMANN    C26161   0.425   2.968  15.743
   16BMANN    O26162   0.545   2.961  15.717
   16BMANN   CT26163   0.328   3.021  15.641
   16BMANN  HT126164   0.364   3.119  15.603
   16BMANN  HT226165   0.227   3.034  15.686
   16BMANN  HT326166   0.322   2.950  15.556
   16BMANN   C326167   0.432   2.929  16.104
   16BMANN   H326168   0.500   2.879  16.176
   16BMANN   O326169   0.468   3.068  16.102
   16BMANN  HO326170   0.549   3.078  16.051
   16BMANN   C426171   0.289   2.908  16.153
   16BMANN   H426172   0.217   2.960  16.085
   16BMANN   O426173   0.271   2.956  16.286
   16BMANN  HO426174   0.234   3.045  16.286
   16BMANN   C626175   0.117   2.723  16.192
   16BMANN  H6126176   0.095   2.756  16.295
   16BMANN  H6226177   0.046   2.773  16.123
   16BMANN   O626178   0.099   2.581  16.182
   16BMANN  HO626179   0.151   2.555  16.105
   17BGLCN   C126180   0.371   2.326  16.143
   17BGLCN   H126181   0.447   2.249  16.118
   17BGLCN   C526182   0.218   2.152  16.201
   17BGLCN   H526183   0.298   2.079  16.176
   17BGLCN   O526184   0.239   2.273  16.123
   17BGLCN   C226185   0.385   2.367  16.289
   17BGLCN   H226186   0.301   2.436  16.312
   17BGLCN    N26187   0.509   2.441  16.308
   17BGLCN   HN26188   0.581   2.422  16.242
   17BGLCN    C26189   0.527   2.535  16.402
   17BGLCN    O26190   0.439   2.570  16.479
   17BGLCN   CT26191   0.663   2.598  16.407
   17BGLCN  HT126192   0.673   2.674  16.326
   17BGLCN  HT226193   0.742   2.521  16.395
   17BGLCN  HT326194   0.677   2.649  16.505
   17BGLCN   C326195   0.370   2.242  16.375
   17BGLCN   H326196   0.443   2.168  16.337
   17BGLCN   O326197   0.400   2.269  16.514
   17BGLCN   C426198   0.231   2.187  16.349
   17BGLCN   H426199   0.158   2.268  16.372
   17BGLCN   O426200   0.196   2.076  16.430
   17BGLCN  HO426201   0.254   2.002  16.409
   17BGLCN   C626202   0.086   2.087  16.165
   17BGLCN  H6126203   0.067   1.999  16.230
   17BGLCN  H6226204   0.002   2.158  16.182
   17BGLCN   O626205   0.084   2.041  16.029
   17BGLCN  HO626206   0.128   1.956  16.028
   18AGAL    C126207   0.451   2.159  16.588
   18AGAL    H126208   0.371   2.083  16.603
   18AGAL    C526209   0.674   2.182  16.503
   18AGAL    H526210   0.641   2.272  16.447
   18AGAL    O526211   0.560   2.095  16.521
   18AGAL    C226212   0.501   2.198  16.727
   18AGAL    H226213   0.545   2.104  16.767
   18AGAL    O226214   0.396   2.237  16.817
   18AGAL    C326215   0.615   2.299  16.713
   18AGAL    H326216   0.577   2.386  16.654
   18AGAL    O326217   0.660   2.350  16.839
   18AGAL   HO326218   0.694   2.439  16.831
   18AGAL    C426219   0.728   2.231  16.637
   18AGAL    H426220   0.808   2.306  16.617
   18AGAL    O426221   0.788   2.126  16.713
   18AGAL   HO426222   0.820   2.164  16.795
   18AGAL    C626223   0.775   2.110  16.416
   18AGAL   H6126224   0.731   2.091  16.316
   18AGAL   H6226225   0.864   2.175  16.402
   18AGAL    O626226   0.816   1.986  16.472
   18AGAL   HO626227   0.807   1.996  16.567
   19ARHM    C126228   0.419   2.186  16.947
   19ARHM    H126229   0.527   2.185  16.969
   19ARHM    C526230   0.230   2.038  16.946
   19ARHM    H526231   0.203   2.071  16.843
   19ARHM    O526232   0.372   2.051  16.962
   19ARHM    C226233   0.350   2.274  17.049
   19ARHM    H226234   0.377   2.379  17.027
   19ARHM    O226235   0.394   2.242  17.182
   19ARHM    C326236   0.200   2.267  17.035
   19ARHM    H326237   0.171   2.304  16.935
   19ARHM    O326238   0.136   2.351  17.132
   19ARHM   HO326239   0.042   2.336  17.124
   19ARHM    C426240   0.157   2.123  17.049
   19ARHM    H426241   0.185   2.087  17.150
   19ARHM    O426242   0.016   2.107  17.035
   19ARHM   HO426243   8.136   2.122  16.943
   19ARHM    C626244   0.198   1.888  16.958
   19ARHM   H6126245   0.260   1.829  16.887
   19ARHM   H6226246   0.220   1.853  17.061
   19ARHM   H6326247   0.091   1.868  16.937
   20ARHM    C126248   0.524   2.288  17.209
   20ARHM    H126249   0.562   2.350  17.125
   20ARHM    C526250   0.595   2.100  17.339
   20ARHM    H526251   0.494   2.054  17.328
   20ARHM    O526252   0.621   2.183  17.224
   20ARHM    C226253   0.519   2.374  17.332
   20ARHM    H226254   0.433   2.443  17.324
   20ARHM    O226255   0.639   2.452  17.345
   20ARHM    C326256   0.493   2.291  17.454
   20ARHM    H326257   0.392   2.245  17.444
   20ARHM    O326258   0.495   2.379  17.566
   20ARHM    C426259   0.599   2.185  17.466
   20ARHM    H426260   0.698   2.234  17.471
   20ARHM    O426261   0.583   2.106  17.584
   20ARHM   HO426262   0.499   2.060  17.580
   20ARHM    C626263   0.700   1.987  17.336
   20ARHM   H6126264   0.802   2.030  17.342
   20ARHM   H6226265   0.684   1.917  17.421
   20ARHM   H6326266   0.691   1.931  17.241
   21BMANN   C126267   0.635   2.569  17.269
   21BMANN   H126268   0.547   2.569  17.202
   21BMANN   C526269   0.742   2.698  17.101
   21BMANN   H526270   0.647   2.694  17.043
   21BMANN   O526271   0.751   2.582  17.186
   21BMANN   C226272   0.624   2.686  17.365
   21BMANN   H226273   0.527   2.673  17.419
   21BMANN    N26274   0.730   2.687  17.465
   21BMANN   HN26275   0.813   2.638  17.439
   21BMANN    C26276   0.719   2.740  17.587
   21BMANN    O26277   0.617   2.795  17.627
   21BMANN   CT26278   0.841   2.728  17.675
   21BMANN  HT126279   0.920   2.798  17.641
   21BMANN  HT226280   0.880   2.624  17.672
   21BMANN  HT326281   0.813   2.753  17.780
   21BMANN   C326282   0.616   2.811  17.281
   21BMANN   H326283   0.528   2.801  17.214
   21BMANN   O326284   0.590   2.927  17.360
   21BMANN  HO326285   0.657   2.935  17.428
   21BMANN   C426286   0.738   2.822  17.190
   21BMANN   H426287   0.830   2.823  17.252
   21BMANN   O426288   0.736   2.940  17.111
   21BMANN  HO426289   0.800   3.001  17.150
   21BMANN   C626290   0.854   2.694  16.999
   21BMANN  H6126291   0.850   2.784  16.935
   21BMANN  H6226292   0.953   2.694  17.050
   21BMANN   O626293   0.843   2.579  16.915
   21BMANN  HO626294   0.897   2.508  16.952
   22BGLCN   C126295   0.402   2.348  17.665
   22BGLCN   H126296   0.383   2.238  17.671
   22BGLCN   C526297   0.186   2.396  17.748
   22BGLCN   H526298   0.170   2.287  17.762
   22BGLCN   O526299   0.280   2.418  17.642
   22BGLCN   C226300   0.468   2.396  17.792
   22BGLCN   H226301   0.487   2.505  17.782
   22BGLCN    N26302   0.597   2.330  17.807
   22BGLCN   HN26303   0.609   2.248  17.751
   22BGLCN    C26304   0.702   2.378  17.873
   22BGLCN    O26305   0.704   2.486  17.932
   22BGLCN   CT26306   0.823   2.290  17.872
   22BGLCN  HT126307   0.886   2.314  17.784
   22BGLCN  HT226308   0.793   2.183  17.868
   22BGLCN  HT326309   0.882   2.308  17.964
   22BGLCN   C326310   0.372   2.374  17.907
   22BGLCN   H326311   0.345   2.266  17.907
   22BGLCN   O326312   0.437   2.404  18.031
   22BGLCN   C426313   0.246   2.453  17.875
   22BGLCN   H426314   0.276   2.558  17.854
   22BGLCN   O426315   0.151   2.457  17.981
   22BGLCN  HO426316   0.148   2.547  18.014
   22BGLCN   C626317   0.053   2.455  17.708
   22BGLCN  H6126318   8.125   2.441  17.791
   22BGLCN  H6226319   0.066   2.564  17.689
   22BGLCN   O626320   8.143   2.392  17.593
   22BGLCN  HO626321   0.033   2.432  17.513
   23AGAL    C126322   0.383   2.346  18.148
   23AGAL    H126323   0.287   2.396  18.173
   23AGAL    C526324   0.479   2.130  18.110
   23AGAL    H526325   0.528   2.169  18.018
   23AGAL    O526326   0.359   2.205  18.135
   23AGAL    C226327   0.479   2.371  18.262
   23AGAL    H226328   0.433   2.333  18.355
   23AGAL    O226329   0.504   2.512  18.275
   23AGAL    C326330   0.608   2.295  18.239
   23AGAL    H326331   0.654   2.333  18.145
   23AGAL    O326332   0.703   2.318  18.343
   23AGAL   HO326333   0.682   2.257  18.414
   23AGAL    C426334   0.578   2.148  18.225
   23AGAL    H426335   0.672   2.094  18.199
   23AGAL    O426336   0.527   2.090  18.345
   23AGAL   HO426337   0.470   2.019  18.317
   23AGAL    C626338   0.442   1.985  18.082
   23AGAL   H6126339   0.385   1.981  17.987
   23AGAL   H6226340   0.534   1.925  18.068
   23AGAL    O626341   0.362   1.925  18.185
   23AGAL   HO626342   0.271   1.928  18.158
   24ARHM    C126343   0.419   2.582  18.363
   24ARHM    H126344   0.324   2.527  18.375
   24ARHM    C526345   0.497   2.795  18.293
   24ARHM    H526346   0.563   2.750  18.215
   24ARHM    O526347   0.383   2.711  18.312
   24ARHM    C226348   0.491   2.592  18.496
   24ARHM    H226349   0.526   2.490  18.525
   24ARHM    O226350   0.407   2.643  18.599
   24ARHM    C326351   0.615   2.676  18.477
   24ARHM    H326352   0.683   2.627  18.404
   24ARHM    O326353   0.686   2.689  18.600
   24ARHM   HO326354   0.741   2.767  18.591
   24ARHM    C426355   0.575   2.812  18.423
   24ARHM    H426356   0.509   2.862  18.497
   24ARHM    O426357   0.690   2.895  18.402
   24ARHM   HO426358   0.739   2.859  18.328
   24ARHM    C626359   0.442   2.929  18.239
   24ARHM   H6126360   0.524   3.003  18.227
   24ARHM   H6226361   0.394   2.915  18.140
   24ARHM   H6326362   0.367   2.970  18.309
   25ARHM    C126363   0.320   2.549  18.657
   25ARHM    H126364   0.311   2.461  18.590
   25ARHM    C526365   0.184   2.714  18.759
   25ARHM    H526366   0.251   2.793  18.719
   25ARHM    O526367   0.187   2.601  18.672
   25ARHM    C226368   0.376   2.503  18.790
   25ARHM    H226369   0.483   2.477  18.776
   25ARHM    O226370   0.307   2.387  18.841
   25ARHM    C326371   0.374   2.617  18.888
   25ARHM    H326372   0.444   2.696  18.854
   25ARHM    O326373   0.416   2.563  19.014
   25ARHM    C426374   0.233   2.672  18.898
   25ARHM    H426375   0.167   2.593  18.937
   25ARHM    O426376   0.228   2.784  18.987
   25ARHM   HO426377   0.274   2.857  18.945
   25ARHM    C626378   0.040   2.768  18.757
   25ARHM   H6126379   0.010   2.793  18.653
   25ARHM   H6226380   8.113   2.692  18.797
   25ARHM   H6326381   0.033   2.861  18.818
   26BMANN   C126382   0.344   2.267  18.777
   26BMANN   H126383   0.448   2.273  18.737
   26BMANN   C526384   0.286   2.116  18.601
   26BMANN   H526385   0.389   2.128  18.561
   26BMANN   O526386   0.251   2.236  18.672
   26BMANN   C226387   0.338   2.155  18.879
   26BMANN   H226388   0.413   2.179  18.957
   26BMANN    N26389   0.208   2.145  18.945
   26BMANN   HN26390   0.133   2.189  18.896
   26BMANN    C26391   0.188   2.083  19.062
   26BMANN    O26392   0.279   2.033  19.128
   26BMANN   CT26393   0.046   2.075  19.111
   26BMANN  HT126394   8.121   2.069  19.024
   26BMANN  HT226395   0.023   2.164  19.173
   26BMANN  HT326396   0.034   1.984  19.173
   26BMANN   C326397   0.381   2.027  18.809
   26BMANN   H326398   0.482   2.043  18.767
   26BMANN   O326399   0.392   1.917  18.899
   26BMANN  HO326400   0.411   1.951  18.986
   26BMANN   C426401   0.285   1.997  18.696
   26BMANN   H426402   0.182   1.984  18.737
   26BMANN   O426403   0.319   1.876  18.628
   26BMANN  HO426404   0.380   1.829  18.685
   26BMANN   C626405   0.194   2.101  18.481
   26BMANN  H6126406   0.190   2.197  18.425
   26BMANN  H6226407   0.235   2.025  18.411
   26BMANN   O626408   0.061   2.062  18.517
   26BMANN  HO626409   0.060   1.968  18.538
   27BGLCN   C126410   0.492   2.646  19.097
   27BGLCN   H126411   0.452   2.749  19.096
   27BGLCN   C526412   0.712   2.726  19.143
   27BGLCN   H526413   0.675   2.830  19.139
   27BGLCN   O526414   0.630   2.644  19.058
   27BGLCN   C226415   0.483   2.586  19.237
   27BGLCN   H226416   0.535   2.488  19.231
   27BGLCN    N26417   0.347   2.561  19.281
   27BGLCN   HN26418   0.277   2.627  19.255
   27BGLCN    C26419   0.311   2.454  19.355
   27BGLCN    O26420   0.391   2.368  19.391
   27BGLCN   CT26421   0.166   2.443  19.394
   27BGLCN  HT126422   0.111   2.536  19.367
   27BGLCN  HT226423   0.159   2.427   0.031
   27BGLCN  HT326424   0.121   2.356  19.341
   27BGLCN   C326425   0.562   2.674  19.332
   27BGLCN   H326426   0.521   2.777  19.318
   27BGLCN   O326427   0.538   2.632  19.468
   27BGLCN   C426428   0.706   2.676  19.287
   27BGLCN   H426429   0.746   2.572  19.290
   27BGLCN   O426430   0.790   2.757  19.369
   27BGLCN  HO426431   0.742   2.835  19.397
   27BGLCN   C626432   0.852   2.723  19.086
   27BGLCN  H6126433   0.920   2.782  19.152
   27BGLCN  H6226434   0.889   2.618  19.085
   27BGLCN   O626435   0.859   2.778  18.954
   27BGLCN  HO626436   0.821   2.714  18.893
   28AGAL    C126437   0.564   2.726   0.097
   28AGAL    H126438   0.674   2.733   0.112
   28AGAL    C526439   0.371   2.863   0.057
   28AGAL    H526440   0.336   2.786  19.458
   28AGAL    O526441   0.515   2.858   0.062
   28AGAL    C226442   0.507   2.684   0.231
   28AGAL    H226443   0.541   2.763   0.301
   28AGAL    O226444   0.556   2.555   0.276
   28AGAL    C326445   0.355   2.686   0.228
   28AGAL    H326446   0.322   2.617   0.148
   28AGAL    O326447   0.296   2.639   0.350
   28AGAL   HO326448   0.282   2.544   0.346
   28AGAL    C426449   0.310   2.827   0.193
   28AGAL    H426450   0.199   2.828   0.183
   28AGAL    O426451   0.346   2.923   0.293
   28AGAL   HO426452   0.267   2.957   0.336
   28AGAL    C626453   0.327   2.996  19.471
   28AGAL   H6126454   0.372   3.009  19.371
   28AGAL   H6226455   0.216   2.996  19.458
   28AGAL    O626456   0.362   3.109   0.079
   28AGAL   HO626457   0.410   3.075   0.155
   29ARHM    C126458   0.607   2.556   0.407
   29ARHM    H126459   0.573   2.647   0.462
   29ARHM    C526460   0.803   2.432   0.347
   29ARHM    H526461   0.768   2.427   0.242
   29ARHM    O526462   0.750   2.551   0.408
   29ARHM    C226463   0.553   2.436   0.484
   29ARHM    H226464   0.443   2.438   0.472
   29ARHM    O226465   0.587   2.446   0.624
   29ARHM    C326466   0.603   2.308   0.423
   29ARHM    H326467   0.567   2.301   0.318
   29ARHM    O326468   0.552   2.195   0.494
   29ARHM   HO326469   0.605   2.119   0.471
   29ARHM    C426470   0.754   2.309   0.423
   29ARHM    H426471   0.790   2.317   0.528
   29ARHM    O426472   0.809   2.189   0.368
   29ARHM   HO426473   0.792   2.184   0.274
   29ARHM    C626474   0.955   2.450   0.347
   29ARHM   H6126475   0.982   2.540   0.287
   29ARHM   H6226476   0.993   2.463   0.451
   29ARHM   H6326477   1.005   2.361   0.302
   30ARHM    C126478   0.473   2.465   0.704
   30ARHM    H126479   0.397   2.389   0.677
   30ARHM    C526480   0.509   2.701   0.724
   30ARHM    H526481   0.602   2.694   0.664
   30ARHM    O526482   0.418   2.596   0.688
   30ARHM    C226483   0.512   2.445   0.850
   30ARHM    H226484   0.560   2.346   0.861
   30ARHM    O226485   0.399   2.455   0.937
   30ARHM    C326486   0.608   2.553   0.892
   30ARHM    H326487   0.696   2.547   0.825
   30ARHM    O326488   0.658   2.525   1.025
   30ARHM    C426489   0.547   2.690   0.871
   30ARHM    H426490   0.454   2.702   0.931
   30ARHM    O426491   0.639   2.791   0.910
   30ARHM   HO426492   0.679   2.762   0.992
   30ARHM    C626493   0.439   2.833   0.687
   30ARHM   H6126494   0.504   2.920   0.710
   30ARHM   H6226495   0.416   2.834   0.578
   30ARHM   H6326496   0.343   2.844   0.743
   31BMANN   C126497   0.320   2.340   0.953
   31BMANN   H126498   0.383   2.250   0.971
   31BMANN   C526499   0.144   2.211   0.856
   31BMANN   H526500   0.203   2.120   0.876
   31BMANN   O526501   0.233   2.323   0.841
   31BMANN   C226502   0.235   2.371   1.075
   31BMANN   H226503   0.303   2.375   1.162
   31BMANN    N26504   0.175   2.504   1.063
   31BMANN   HN26505   0.179   2.543   0.971
   31BMANN    C26506   0.133   2.579   1.164
   31BMANN    O26507   0.119   2.534   1.278
   31BMANN   CT26508   0.104   2.723   1.134
   31BMANN  HT126509   0.070   2.734   1.029
   31BMANN  HT226510   0.196   2.784   1.148
   31BMANN  HT326511   0.026   2.762   1.202
   31BMANN   C326512   0.139   2.256   1.098
   31BMANN   H326513   0.199   2.164   1.111
   31BMANN   O326514   0.063   2.273   1.218
   31BMANN  HO326515   0.072   2.364   1.246
   31BMANN   C426516   0.052   2.236   0.975
   31BMANN   H426517   8.137   2.328   0.956
   31BMANN   O426518   8.105   2.128   0.993
   31BMANN  HO426519   8.097   2.113   1.087
   31BMANN   C626520   0.071   2.190   0.725
   31BMANN  H6126521   0.005   2.101   0.733
   31BMANN  H6226522   0.006   2.278   0.704
   31BMANN   O626523   0.161   2.172   0.615
   31BMANN  HO626524   0.241   2.131   0.646
   32BGLCN   C126525   0.584   2.577   1.133
   32BGLCN   H126526   0.475   2.580   1.110
   32BGLCN   C526527   0.550   2.765   1.274
   32BGLCN   H526528   0.443   2.768   1.243
   32BGLCN   O526529   0.628   2.708   1.168
   32BGLCN   C226530   0.603   2.484   1.251
   32BGLCN   H226531   0.709   2.493   1.284
   32BGLCN    N26532   0.582   2.346   1.209
   32BGLCN   HN26533   0.528   2.333   1.127
   32BGLCN    C26534   0.648   2.240   1.259
   32BGLCN    O26535   0.720   2.245   1.357
   32BGLCN   CT26536   0.628   2.110   1.187
   32BGLCN  HT126537   0.576   2.126   1.090
   32BGLCN  HT226538   0.570   2.039   1.250
   32BGLCN  HT326539   0.728   2.065   1.166
   32BGLCN   C326540   0.514   2.535   1.364
   32BGLCN   H326541   0.411   2.541   1.322
   32BGLCN   O326542   0.510   2.449   1.479
   32BGLCN   C426543   0.560   2.676   1.397
   32BGLCN   H426544   0.667   2.671   1.429
   32BGLCN   O426545   0.487   2.734   1.504
   32BGLCN  HO426546   0.550   2.782   1.559
   32BGLCN   C626547   0.597   2.908   1.293
   32BGLCN  H6126548   0.542   2.954   1.379
   32BGLCN  H6226549   0.705   2.909   1.319
   32BGLCN   O626550   0.573   2.987   1.176
   32BGLCN  HO626551   0.612   2.941   1.101
   33AGAL    C126552   0.380   2.433   1.532
   33AGAL    H126553   0.321   2.526   1.520
   33AGAL    C526554   0.374   2.198   1.486
   33AGAL    H526555   0.481   2.208   1.459
   33AGAL    O526556   0.311   2.326   1.464
   33AGAL    C226557   0.383   2.400   1.681
   33AGAL    H226558   0.277   2.391   1.713
   33AGAL    O226559   0.443   2.508   1.754
   33AGAL    C326560   0.452   2.267   1.707
   33AGAL    H326561   0.555   2.273   1.666
   33AGAL    O326562   0.466   2.235   1.846
   33AGAL   HO326563   0.389   2.184   1.874
   33AGAL    C426564   0.375   2.159   1.634
   33AGAL    H426565   0.431   2.063   1.643
   33AGAL    O426566   0.244   2.140   1.687
   33AGAL   HO426567   0.249   2.078   1.760
   33AGAL    C626568   0.319   2.092   1.392
   33AGAL   H6126569   0.344   2.120   1.287
   33AGAL   H6226570   0.369   1.995   1.412
   33AGAL    O626571   0.178   2.072   1.400
   33AGAL   HO626572   0.133   2.151   1.367
   34ARHM    C126573   0.378   2.540   1.875
   34ARHM    H126574   0.363   2.447   1.934
   34ARHM    C526575   0.261   2.724   1.776
   34ARHM    H526576   0.306   2.700   1.678
   34ARHM    O526577   0.251   2.604   1.853
   34ARHM    C226578   0.471   2.634   1.950
   34ARHM    H226579   0.571   2.586   1.955
   34ARHM    O226580   0.431   2.667   2.085
   34ARHM    C326581   0.485   2.762   1.871
   34ARHM    H326582   0.525   2.732   1.771
   34ARHM    O326583   0.581   2.851   1.928
   34ARHM   HO326584   0.643   2.870   1.857
   34ARHM    C426585   0.350   2.826   1.847
   34ARHM    H426586   0.304   2.850   1.945
   34ARHM    O426587   0.359   2.947   1.771
   34ARHM   HO426588   0.450   2.956   1.742
   34ARHM    C626589   0.118   2.772   1.750
   34ARHM   H6126590   0.067   2.794   1.846
   34ARHM   H6226591   0.119   2.865   1.688
   34ARHM   H6326592   0.061   2.694   1.696
   35ARHM    C126593   0.433   2.559   2.175
   35ARHM    H126594   0.523   2.496   2.157
   35ARHM    C526595   0.196   2.557   2.176
   35ARHM    H526596   0.196   2.641   2.103
   35ARHM    O526597   0.315   2.479   2.160
   35ARHM    C226598   0.436   2.615   2.316
   35ARHM    H226599   0.524   2.682   2.324
   35ARHM    O226600   0.444   2.516   2.420
   35ARHM    C326601   0.312   2.698   2.341
   35ARHM    H326602   0.311   2.784   2.270
   35ARHM    O326603   0.315   2.753   2.473
   35ARHM   HO326604   0.338   2.680   2.532
   35ARHM    C426605   0.190   2.612   2.317
   35ARHM    H426606   0.193   2.525   2.387
   35ARHM    O426607   0.068   2.683   2.342
   35ARHM   HO426608   0.087   2.777   2.340
   35ARHM    C626609   0.081   2.463   2.136
   35ARHM   H6126610   0.105   2.414   2.039
   35ARHM   H6226611   0.065   2.385   2.213
   35ARHM   H6326612   8.132   2.523   2.122
   36BMANN   C126613   0.560   2.438   2.419
   36BMANN   H126614   0.647   2.497   2.384
   36BMANN   C526615   0.658   2.233   2.342
   36BMANN   H526616   0.743   2.293   2.303
   36BMANN   O526617   0.542   2.319   2.341
   36BMANN   C226618   0.580   2.394   2.563
   36BMANN   H226619   0.595   2.486   2.624
   36BMANN    N26620   0.461   2.326   2.613
   36BMANN   HN26621   0.397   2.300   2.542
   36BMANN    C26622   0.433   2.300   2.741
   36BMANN    O26623   0.506   2.333   2.833
   36BMANN   CT26624   0.304   2.226   2.766
   36BMANN  HT126625   0.308   2.127   2.716
   36BMANN  HT226626   0.218   2.284   2.727
   36BMANN  HT326627   0.292   2.210   2.876
   36BMANN   C326628   0.708   2.311   2.569
   36BMANN   H326629   0.791   2.372   2.527
   36BMANN   O326630   0.745   2.279   2.703
   36BMANN  HO326631   0.670   2.294   2.761
   36BMANN   C426632   0.690   2.188   2.484
   36BMANN   H426633   0.606   2.128   2.524
   36BMANN   O426634   0.807   2.106   2.485
   36BMANN  HO426635   0.855   2.129   2.565
   36BMANN   C626636   0.634   2.119   2.243
   36BMANN  H6126637   0.561   2.150   2.166
   36BMANN  H6226638   0.729   2.096   2.190
   36BMANN   O626639   0.590   1.999   2.307
   36BMANN  HO626640   0.665   1.968   2.359
    1ECLIP HB6S26641   7.900   3.865  11.798
    1ECLIP  OB626642   7.982   3.999  11.932
    1ECLIP  CB626643   7.879   3.967  11.835
    1ECLIP HB6R26644   7.779   3.964  11.884
    1ECLIP  CB526645   7.863   4.058  11.715
    1ECLIP  OB526646   7.994   4.072  11.662
    1ECLIP  HB526647   7.823   4.157  11.746
    1ECLIP  CB126648   8.001   4.161  11.551
    1ECLIP  HB126649   7.968   4.262  11.580
    1ECLIP  OA626650   8.132   4.166  11.503
    1ECLIP  CA626651   0.060   4.044  11.523
    1ECLIP HA6R26652   8.138   3.955  11.530
    1ECLIP HA6S26653   0.117   4.052  11.618
    1ECLIP  CB426654   7.775   3.997  11.605
    1ECLIP  HB426655   7.825   3.903  11.573
    1ECLIP  OB426656   7.643   3.975  11.659
    1ECLIP   PB26657   7.583   3.824  11.680
    1ECLIP OPB426658   7.474   3.817  11.785
    1ECLIP OPB326659   7.703   3.737  11.714
    1ECLIP OPB226660   7.544   3.775  11.541
    1ECLIP  CB326661   7.775   4.089  11.484
    1ECLIP  OB326662   7.705   4.024  11.377
    1ECLIP  HB326663   7.734   4.188  11.515
    1ECLIP  C7126664   7.605   4.094  11.321
    1ECLIP  O7126665   7.570   4.205  11.355
    1ECLIP  C7226666   7.584   4.048  11.177
    1ECLIP H72R26667   7.660   4.098  11.113
    1ECLIP H72S26668   7.484   4.087  11.148
    1ECLIP  CB226669   7.918   4.108  11.435
    1ECLIP  HB226670   7.957   4.007  11.411
    1ECLIP  NB226671   7.932   4.192  11.315
    1ECLIP HNB226672   7.934   4.291  11.329
    1ECLIP  CA426673   0.216   4.148  11.358
    1ECLIP  HA426674   0.136   4.218  11.328
    1ECLIP  OA426675   0.290   4.203  11.467
    1ECLIP HOA426676   0.232   4.265  11.511
    1ECLIP  CA526677   0.153   4.021  11.408
    1ECLIP  HA526678   0.232   3.950  11.441
    1ECLIP  OA526679   0.075   3.965  11.302
    1ECLIP  CA126680   0.152   3.927  11.187
    1ECLIP  HA126681   0.082   3.883  11.113
    1ECLIP  OA126682   0.255   3.835  11.213
    1ECLIP OPA226683   0.318   3.724  11.421
    1ECLIP OPA326684   0.096   3.652  11.309
    1ECLIP OPA426685   0.335   3.607  11.215
    1ECLIP   PA26686   0.240   3.695  11.293
    1ECLIP  CA326687   0.301   4.119  11.237
    1ECLIP  HA326688   0.379   4.046  11.268
    1ECLIP  OA326689   0.373   4.234  11.189
    1ECLIP  C3126690   0.305   4.340  11.140
    1ECLIP  O3126691   0.346   4.392  11.035
    1ECLIP  C3226692   0.295   4.442  11.254
    1ECLIP H32R26693   0.380   4.513  11.238
    1ECLIP H32S26694   0.320   4.400  11.353
    1ECLIP  CA226695   0.216   4.052  11.128
    1ECLIP  HA226696   0.135   4.122  11.098
    1ECLIP  NA226697   0.296   4.020  11.010
    1ECLIP HNA226698   0.394   4.016  11.025
    1ECLIP  C7326699   7.589   3.896  11.158
    1ECLIP H73R26700   7.553   3.846  11.250
    1ECLIP  O7326701   7.721   3.859  11.120
    1ECLIP  C8126702   7.796   3.789  11.203
    1ECLIP  O8126703   7.754   3.737  11.307
    1ECLIP  C8226704   7.907   3.722  11.125
    1ECLIP H82R26705   7.967   3.662  11.197
    1ECLIP H82S26706   7.974   3.799  11.083
    1ECLIP  C8326707   7.851   3.631  11.014
    1ECLIP H83R26708   7.799   3.694  10.939
    1ECLIP H83S26709   7.777   3.559  11.055
    1ECLIP  C8426710   7.964   3.554  10.945
    1ECLIP H84R26711   7.935   3.448  10.933
    1ECLIP H84S26712   8.055   3.557  11.009
    1ECLIP  C8526713   7.995   3.615  10.809
    1ECLIP H85R26714   8.021   3.722  10.824
    1ECLIP H85S26715   7.903   3.611  10.747
    1ECLIP  C8626716   8.111   3.546  10.736
    1ECLIP H86R26717   8.080   3.444  10.708
    1ECLIP H86S26718   0.054   3.538  10.804
    1ECLIP  C8726719   0.010   3.624  10.610
    1ECLIP H87R26720   0.078   3.560  10.549
    1ECLIP H87S26721   0.068   3.713  10.643
    1ECLIP  C8826722   8.035   3.672  10.527
    1ECLIP H88R26723   7.978   3.746  10.587
    1ECLIP H88S26724   7.967   3.587  10.505
    1ECLIP  C8926725   8.074   3.742  10.396
    1ECLIP H89R26726   0.009   3.818  10.416
    1ECLIP H89S26727   7.984   3.797  10.362
    1ECLIP C81026728   8.120   3.645  10.287
    1ECLIPH810R26729   8.076   3.545  10.305
    1ECLIPH810S26730   0.086   3.633  10.293
    1ECLIP C81126731   8.080   3.693  10.146
    1ECLIPH811R26732   8.128   3.626  10.072
    1ECLIPH811S26733   8.121   3.795  10.131
    1ECLIP C81226734   7.928   3.695  10.120
    1ECLIPH812R26735   7.910   3.724  10.015
    1ECLIPH812S26736   7.880   3.774  10.183
    1ECLIP C81326737   7.855   3.563  10.149
    1ECLIPH813R26738   7.908   3.480  10.097
    1ECLIPH813S26739   7.861   3.541  10.258
    1ECLIP C81426740   7.707   3.564  10.108
    1ECLIPH814R26741   7.697   3.593  10.001
    1ECLIPH814S26742   7.651   3.637  10.170
    1ECLIPH814T26743   7.662   3.464  10.122
    1ECLIP  C7426744   7.497   3.852  11.042
    1ECLIP H74R26745   7.397   3.897  11.055
    1ECLIP H74S26746   7.487   3.742  11.051
    1ECLIP  C7526747   7.547   3.881  10.898
    1ECLIP H75R26748   7.511   3.797  10.834
    1ECLIP H75S26749   7.658   3.880  10.894
    1ECLIP  C7626750   7.495   4.010  10.835
    1ECLIP H76R26751   7.532   4.099  10.890
    1ECLIP H76S26752   7.384   4.012  10.839
    1ECLIP  C7726753   7.540   4.018  10.688
    1ECLIP H77R26754   7.512   3.923  10.638
    1ECLIP H77S26755   7.651   4.027  10.686
    1ECLIP  C7826756   7.480   4.135  10.609
    1ECLIP H78R26757   7.370   4.120  10.600
    1ECLIP H78S26758   7.496   4.230  10.665
    1ECLIP  C7926759   7.541   4.150  10.468
    1ECLIP H79R26760   7.644   4.190  10.478
    1ECLIP H79S26761   7.483   4.226  10.411
    1ECLIP C71026762   7.546   4.020  10.387
    1ECLIPH710R26763   7.630   3.957  10.424
    1ECLIPH710S26764   7.452   3.963  10.404
    1ECLIP C71126765   7.563   4.045  10.237
    1ECLIPH711R26766   7.473   4.100  10.201
    1ECLIPH711S26767   7.651   4.111  10.221
    1ECLIP C71226768   7.582   3.916  10.157
    1ECLIPH712R26769   7.495   3.849  10.173
    1ECLIPH712S26770   7.671   3.863  10.199
    1ECLIP C71326771   7.602   3.936  10.007
    1ECLIPH713R26772   7.701   3.984   9.993
    1ECLIPH713S26773   7.607   3.836   9.958
    1ECLIP C71426774   7.496   4.021   9.936
    1ECLIPH714R26775   7.395   3.978   9.951
    1ECLIPH714S26776   7.496   4.125   9.977
    1ECLIPH714T26777   7.517   4.027   9.827
    1ECLIP  C5126778   7.951   4.144  11.190
    1ECLIP  O5126779   7.951   4.024  11.168
    1ECLIP  C5226780   7.970   4.244  11.076
    1ECLIP H52R26781   7.875   4.300  11.063
    1ECLIP H52S26782   8.051   4.315  11.107
    1ECLIP  C5326783   8.010   4.178  10.940
    1ECLIP H53R26784   8.096   4.110  10.956
    1ECLIP  O5326785   8.040   4.282  10.846
    1ECLIP  C6126786   0.023   4.309  10.821
    1ECLIP  O6126787   0.116   4.283  10.895
    1ECLIP  C6226788   0.028   4.417  10.711
    1ECLIP H62R26789   0.035   4.516  10.761
    1ECLIP H62S26790   8.077   4.413  10.655
    1ECLIP  C6326791   0.147   4.400  10.613
    1ECLIP H63R26792   0.145   4.299  10.569
    1ECLIP H63S26793   0.242   4.410  10.671
    1ECLIP  C6426794   0.148   4.503  10.499
    1ECLIP H64R26795   0.247   4.500  10.448
    1ECLIP H64S26796   0.134   4.605  10.540
    1ECLIP  C6526797   0.039   4.475  10.393
    1ECLIP H65R26798   8.085   4.475  10.445
    1ECLIP H65S26799   0.054   4.374  10.350
    1ECLIP  C6626800   0.031   4.581  10.281
    1ECLIP H66R26801   0.017   4.681  10.327
    1ECLIP H66S26802   8.084   4.560  10.220
    1ECLIP  C6726803   0.150   4.583  10.184
    1ECLIP H67R26804   0.242   4.612  10.239
    1ECLIP H67S26805   0.130   4.660  10.107
    1ECLIP  C6826806   0.173   4.449  10.115
    1ECLIP H68R26807   0.077   4.413  10.071
    1ECLIP H68S26808   0.205   4.375  10.191
    1ECLIP  C6926809   0.280   4.456  10.006
    1ECLIP H69R26810   0.370   4.507  10.047
    1ECLIP H69S26811   0.242   4.518   9.922
    1ECLIP C61026812   0.318   4.316   9.959
    1ECLIPH610R26813   0.226   4.263   9.925
    1ECLIPH610S26814   0.359   4.261  10.046
    1ECLIP C61126815   0.423   4.314   9.848
    1ECLIPH611R26816   0.512   4.371   9.882
    1ECLIPH611S26817   0.455   4.208   9.833
    1ECLIP C61226818   0.374   4.370   9.714
    1ECLIPH612R26819   0.285   4.315   9.679
    1ECLIPH612S26820   0.347   4.478   9.725
    1ECLIPH612T26821   0.454   4.362   9.638
    1ECLIP  C5426822   7.895   4.097  10.874
    1ECLIP H54R26823   7.806   4.161  10.864
    1ECLIP H54S26824   7.869   4.013  10.943
    1ECLIP  C5526825   7.929   4.034  10.737
    1ECLIP H55R26826   7.859   3.949  10.720
    1ECLIP H55S26827   8.032   3.990  10.741
    1ECLIP  C5626828   7.917   4.128  10.615
    1ECLIP H56R26829   7.994   4.208  10.622
    1ECLIP H56S26830   7.818   4.178  10.617
    1ECLIP  C5726831   7.936   4.056  10.481
    1ECLIP H57R26832   7.859   3.977  10.472
    1ECLIP H57S26833   8.036   4.006  10.483
    1ECLIP  C5826834   7.929   4.148  10.357
    1ECLIP H58R26835   7.831   4.200  10.356
    1ECLIP H58S26836   8.009   4.225  10.364
    1ECLIP  C5926837   7.946   4.068  10.226
    1ECLIP H59R26838   7.872   3.986  10.227
    1ECLIP H59S26839   8.047   4.021  10.226
    1ECLIP C51026840   7.927   4.149  10.096
    1ECLIPH510R26841   7.992   4.239  10.097
    1ECLIPH510S26842   7.821   4.182  10.092
    1ECLIP C51126843   7.958   4.063   9.972
    1ECLIPH511R26844   8.068   4.057   9.958
    1ECLIPH511S26845   7.923   3.960   9.995
    1ECLIP C51226846   7.891   4.106   9.841
    1ECLIPH512R26847   7.894   4.019   9.772
    1ECLIPH512S26848   7.784   4.129   9.859
    1ECLIP C51326849   7.956   4.224   9.768
    1ECLIPH513R26850   8.065   4.210   9.759
    1ECLIPH513S26851   7.942   4.316   9.829
    1ECLIP C51426852   7.896   4.243   9.628
    1ECLIPH514R26853   7.785   4.247   9.633
    1ECLIPH514S26854   7.931   4.337   9.580
    1ECLIPH514T26855   7.924   4.158   9.562
    1ECLIP  C3326856   0.164   4.525  11.260
    1ECLIP H33R26857   0.185   4.622  11.308
    1ECLIP  O3326858   0.073   4.452  11.340
    1ECLIP HO3326859   0.002   4.506  11.375
    1ECLIP  C3426860   0.097   4.549  11.123
    1ECLIP H34R26861   0.081   4.451  11.073
    1ECLIP H34S26862   0.164   4.611  11.060
    1ECLIP  C3526863   8.103   4.619  11.130
    1ECLIP H35R26864   8.114   4.726  11.157
    1ECLIP H35S26865   8.042   4.571  11.209
    1ECLIP  C3626866   8.026   4.604  10.998
    1ECLIP H36R26867   8.062   4.512  10.948
    1ECLIP H36S26868   8.047   4.690  10.931
    1ECLIP  C3726869   7.875   4.584  11.016
    1ECLIP H37R26870   7.828   4.683  11.036
    1ECLIP H37S26871   7.855   4.521  11.106
    1ECLIP  C3826872   7.808   4.517  10.895
    1ECLIP H38R26873   7.847   4.414  10.882
    1ECLIP H38S26874   7.699   4.506  10.914
    1ECLIP  C3926875   7.832   4.593  10.765
    1ECLIP H39R26876   7.939   4.582  10.738
    1ECLIP H39S26877   7.815   4.702  10.782
    1ECLIP C31026878   7.746   4.545  10.649
    1ECLIPH310R26879   7.658   4.611  10.638
    1ECLIPH310S26880   7.709   4.442  10.670
    1ECLIP C31126881   7.828   4.541  10.519
    1ECLIPH311R26882   7.883   4.637  10.507
    1ECLIPH311S26883   7.901   4.458  10.530
    1ECLIP C31226884   7.742   4.515  10.396
    1ECLIPH312R26885   7.683   4.423  10.413
    1ECLIPH312S26886   7.672   4.601  10.384
    1ECLIP C31326887   7.825   4.499  10.268
    1ECLIPH313R26888   7.871   4.597  10.244
    1ECLIPH313S26889   7.906   4.426  10.288
    1ECLIP C31426890   7.743   4.449  10.149
    1ECLIPH314R26891   7.667   4.525  10.119
    1ECLIPH314S26892   7.810   4.430  10.062
    1ECLIPH314T26893   7.691   4.355  10.174
    1ECLIP  C1126894   0.245   3.970  10.896
    1ECLIP  O1126895   0.126   3.978  10.866
    1ECLIP  C1226896   0.341   3.897  10.806
    1ECLIP H12R26897   0.330   3.788  10.827
    1ECLIP H12S26898   0.445   3.927  10.829
    1ECLIP  C1326899   0.309   3.925  10.659
    1ECLIP H13R26900   0.203   3.896  10.637
    1ECLIP  O1326901   0.394   3.844  10.581
    1ECLIP HO1326902   0.381   3.851  10.487
    1ECLIP  C1426903   0.332   4.072  10.618
    1ECLIP H14R26904   0.430   4.104  10.658
    1ECLIP H14S26905   0.254   4.134  10.667
    1ECLIP  C1526906   0.332   4.099  10.466
    1ECLIP H15R26907   0.419   4.046  10.421
    1ECLIP H15S26908   0.348   4.207  10.449
    1ECLIP  C1626909   0.203   4.056  10.393
    1ECLIP H16R26910   0.121   4.123  10.426
    1ECLIP H16S26911   0.175   3.953  10.421
    1ECLIP  C1726912   0.216   4.063  10.240
    1ECLIP H17R26913   0.269   4.157  10.213
    1ECLIP H17S26914   0.113   4.069  10.198
    1ECLIP  C1826915   0.289   3.943  10.179
    1ECLIP H18R26916   0.388   3.932  10.229
    1ECLIP H18S26917   0.231   3.851  10.201
    1ECLIP  C1926918   0.312   3.954  10.027
    1ECLIP H19R26919   0.367   3.863   9.992
    1ECLIP H19S26920   0.378   4.041  10.007
    1ECLIP C11026921   0.182   3.967   9.947
    1ECLIPH110R26922   0.123   3.874   9.961
    1ECLIPH110S26923   0.124   4.052   9.988
    1ECLIP C11126924   0.201   3.993   9.797
    1ECLIPH111R26925   0.226   4.100   9.780
    1ECLIPH111S26926   0.289   3.934   9.762
    1ECLIP C11226927   0.076   3.956   9.716
    1ECLIPH112R26928   0.049   3.850   9.734
    1ECLIPH112S26929   8.134   4.016   9.753
    1ECLIP C11326930   0.090   3.979   9.565
    1ECLIPH113R26931   0.103   4.088   9.546
    1ECLIPH113S26932   0.182   3.928   9.530
    1ECLIP C11426933   8.114   3.927   9.484
    1ECLIPH114R26934   8.102   3.818   9.499
    1ECLIPH114S26935   8.021   3.976   9.518
    1ECLIPH114T26936   8.128   3.947   9.376
    2AKDO    C126937   7.922   4.226  11.980
    2AKDO   O1126938   7.821   4.291  12.017
    2AKDO   O1226939   8.030   4.273  11.932
    2AKDO    C226940   7.937   4.082  12.038
    2AKDO    C626941   7.842   3.891  12.149
    2AKDO    H626942   7.889   3.832  12.068
    2AKDO    O626943   7.819   4.025  12.100
    2AKDO    C326944   8.045   4.083  12.146
    2AKDO   H3126945   8.009   4.149  12.227
    2AKDO   H3226946   8.137   4.128  12.103
    2AKDO    C426947   8.075   3.950  12.203
    2AKDO    H426948   8.110   3.883  12.122
    2AKDO    O426949   0.032   3.963  12.304
    2AKDO    C526950   7.947   3.890  12.263
    2AKDO    H526951   7.971   3.784  12.280
    2AKDO    O526952   7.907   3.951  12.389
    2AKDO    C726953   7.708   3.823  12.172
    2AKDO    H726954   7.646   3.881  12.243
    2AKDO    O726955   7.727   3.687  12.217
    2AKDO   HO726956   7.664   3.643  12.159
    2AKDO    C826957   7.633   3.817  12.041
    2AKDO   H8126958   7.609   3.920  12.007
    2AKDO   H8226959   7.697   3.770  11.962
    2AKDO    O826960   7.510   3.744  12.047
    2AKDO   HO826961   7.473   3.765  11.962
    3AKDO    C126962   0.237   3.917  12.168
    3AKDO   O1126963   0.196   3.932  12.050
    3AKDO   O1226964   0.306   3.820  12.212
    3AKDO    C226965   0.167   4.004  12.278
    3AKDO    C626966   0.136   4.240  12.336
    3AKDO    H626967   0.026   4.231  12.341
    3AKDO    O626968   0.189   4.143  12.242
    3AKDO    C326969   0.228   3.982  12.417
    3AKDO   H3126970   0.338   4.000  12.410
    3AKDO   H3226971   0.212   3.877  12.448
    3AKDO    C426972   0.169   4.074  12.519
    3AKDO    H426973   0.060   4.055  12.524
    3AKDO    O426974   0.222   4.043  12.646
    3AKDO   HO426975   0.195   4.114  12.706
    3AKDO    C526976   0.195   4.217  12.475
    3AKDO    H526977   0.139   4.283  12.545
    3AKDO    O526978   0.334   4.253  12.483
    3AKDO   HO526979   0.381   4.208  12.413
    3AKDO    C726980   0.169   4.380  12.282
    3AKDO    H726981   0.279   4.386  12.266
    3AKDO    O726982   0.131   4.481  12.377
    3AKDO   HO726983   0.079   4.545  12.328
    3AKDO    C826984   0.100   4.407  12.150
    3AKDO   H8126985   0.117   4.321  12.080
    3AKDO   H8226986   8.134   4.414  12.163
    3AKDO    O826987   0.150   4.528  12.089
    3AKDO   HO826988   0.090   4.594  12.125
    4AHEP    C126989   7.827   3.871  12.475
    4AHEP    H126990   7.726   3.866  12.429
    4AHEP    C526991   7.999   3.723  12.551
    4AHEP    H526992   8.073   3.792  12.504
    4AHEP    O526993   7.874   3.736  12.483
    4AHEP    C226994   7.801   3.921  12.619
    4AHEP    H226995   7.775   4.029  12.610
    4AHEP    O226996   7.690   3.856  12.682
    4AHEP   HO226997   7.613   3.889  12.635
    4AHEP    C326998   7.925   3.911  12.704
    4AHEP    H326999   8.004   3.982  12.671
    4AHEP    O327000   7.887   3.932  12.844
    4AHEP    C427001   7.974   3.768  12.695
    4AHEP    H427002   7.892   3.700  12.725
    4AHEP    O427003   8.091   3.755  12.777
    4AHEP    P427004   8.083   3.661  12.910
    4AHEP  OP4227005   0.015   3.728  13.022
    4AHEP  OP4327006   0.009   3.533  12.868
    4AHEP  OP4427007   7.934   3.636  12.937
    4AHEP    C627008   8.050   3.578  12.531
    4AHEP    H627009   0.017   3.584  12.527
    4AHEP    O627010   8.014   3.492  12.641
    4AHEP   HO627011   8.053   3.532  12.719
    4AHEP    C727012   8.001   3.510  12.403
    4AHEP   H7127013   8.052   3.412  12.393
    4AHEP   H7227014   8.030   3.570  12.313
    4AHEP    O727015   7.859   3.487  12.395
    4AHEP   HO727016   7.824   3.561  12.346
    5AHEP    C127017   7.934   4.050  12.906
    5AHEP    H127018   8.032   4.078  12.862
    5AHEP    C527019   7.716   4.146  12.955
    5AHEP    H527020   7.665   4.057  12.910
    5AHEP    O527021   7.845   4.161  12.893
    5AHEP    C227022   7.955   4.032  13.057
    5AHEP    H227023   8.018   3.942  13.071
    5AHEP    O227024   8.027   4.144  13.109
    5AHEP   HO227025   7.974   4.222  13.091
    5AHEP    C327026   7.823   4.010  13.130
    5AHEP    H327027   7.776   3.917  13.091
    5AHEP    O327028   7.839   4.001  13.273
    5AHEP    C427029   7.731   4.127  13.105
    5AHEP    H427030   7.770   4.220  13.153
    5AHEP    O427031   7.601   4.094  13.153
    5AHEP    P427032   7.531   4.141  13.294
    5AHEP  OP4227033   7.401   4.064  13.295
    5AHEP  OP4327034   7.512   4.292  13.290
    5AHEP  OP4427035   7.620   4.096  13.408
    5AHEP    C627036   7.635   4.271  12.918
    5AHEP    H627037   7.534   4.262  12.964
    5AHEP    O627038   7.696   4.390  12.969
    5AHEP   HO627039   7.711   4.436  12.886
    5AHEP    C727040   7.621   4.291  12.767
    5AHEP   H7127041   7.514   4.313  12.746
    5AHEP   H7227042   7.644   4.197  12.711
    5AHEP    O727043   7.697   4.403  12.717
    6AHEP    C127044   7.823   4.366  12.667
    6AHEP    H127045   7.851   4.264  12.703
    6AHEP    C527046   7.802   4.472  12.454
    6AHEP    H527047   7.706   4.519  12.486
    6AHEP    O527048   7.821   4.350  12.526
    6AHEP    C227049   7.932   4.461  12.711
    6AHEP    H227050   7.917   4.479  12.819
    6AHEP    O227051   8.064   4.408  12.699
    6AHEP   HO227052   8.124   4.481  12.712
    6AHEP    C327053   7.915   4.593  12.639
    6AHEP    H327054   7.815   4.635  12.664
    6AHEP    O327055   8.013   4.688  12.680
    6AHEP   HO327056   8.051   4.726  12.600
    6AHEP    C427057   7.917   4.566  12.488
    6AHEP    H427058   8.012   4.515  12.463
    6AHEP    O427059   7.914   4.687  12.413
    6AHEP   HO427060   7.826   4.724  12.415
    6AHEP    C627061   7.786   4.435  12.307
    6AHEP    H627062   7.775   4.527  12.246
    6AHEP    O627063   7.901   4.365  12.261
    6AHEP   HO627064   7.881   4.344  12.170
    6AHEP    C727065   7.661   4.349  12.284
    6AHEP   H7127066   7.651   4.321  12.176
    6AHEP   H7227067   7.571   4.410  12.309
    6AHEP    O727068   7.658   4.229  12.364
    6AHEP   HO727069   7.747   4.232  12.401
    7AGLC    C127070   7.864   3.875  13.329
    7AGLC    H127071   7.798   3.799  13.283
    7AGLC    C527072   8.089   3.942  13.366
    7AGLC    H527073   8.064   4.041  13.323
    7AGLC    O527074   8.002   3.841  13.311
    7AGLC    C227075   7.843   3.880  13.481
    7AGLC    H227076   7.881   3.783  13.520
    7AGLC    O227077   7.705   3.881  13.518
    7AGLC   HO227078   7.669   3.961  13.479
    7AGLC    C327079   7.926   3.990  13.546
    7AGLC    H327080   7.899   4.086  13.498
    7AGLC    O327081   7.904   4.000  13.689
    7AGLC    C427082   8.071   3.954  13.516
    7AGLC    H427083   8.094   3.856  13.563
    7AGLC    O427084   0.018   4.050  13.566
    7AGLC   HO427085   0.106   4.012  13.568
    7AGLC    C627086   0.086   3.910  13.320
    7AGLC   H6127087   0.088   3.915  13.209
    7AGLC   H6227088   0.157   3.987  13.358
    7AGLC    O627089   0.130   3.780  13.361
    7AGLC   HO627090   0.101   3.723  13.289
    8AGLC    C127091   7.894   4.131  13.742
    8AGLC    H127092   7.970   4.197  13.695
    8AGLC    C527093   7.656   4.112  13.773
    8AGLC    H527094   7.666   4.007  13.738
    8AGLC    O527095   7.764   4.187  13.716
    8AGLC    C227096   7.912   4.131  13.894
    8AGLC    H227097   7.906   4.237  13.927
    8AGLC    O227098   8.037   4.075  13.941
    8AGLC    C327099   7.801   4.053  13.963
    8AGLC    H327100   7.803   3.950  13.923
    8AGLC    O327101   7.831   4.044  14.104
    8AGLC    C427102   7.667   4.113  13.925
    8AGLC    H427103   7.662   4.219  13.958
    8AGLC    O427104   7.559   4.041  13.984
    8AGLC   HO427105   7.481   4.088  13.954
    8AGLC    C627106   7.523   4.161  13.717
    8AGLC   H6127107   7.538   4.194  13.612
    8AGLC   H6227108   7.451   4.077  13.713
    8AGLC    O627109   7.464   4.269  13.791
    8AGLC   HO627110   7.445   4.336  13.725
    9AGAL    C127111   0.012   4.134  13.895
    9AGAL    H127112   0.016   4.126  13.785
    9AGAL    C527113   0.025   4.301  14.065
    9AGAL    H527114   8.082   4.248  14.111
    9AGAL    O527115   0.019   4.275  13.924
    9AGAL    C227116   0.132   4.059  13.951
    9AGAL    H227117   0.223   4.099  13.901
    9AGAL    O227118   0.118   3.921  13.910
    9AGAL    C327119   0.143   4.088  14.101
    9AGAL    H327120   0.051   4.050  14.150
    9AGAL    O327121   0.254   4.026  14.165
    9AGAL   HO327122   0.334   4.054  14.120
    9AGAL    C427123   0.152   4.238  14.122
    9AGAL    H427124   0.157   4.259  14.231
    9AGAL    O427125   0.271   4.292  14.062
    9AGAL   HO427126   0.245   4.340  13.983
    9AGAL    C627127   0.002   4.449  14.096
    9AGAL   H6127128   8.081   4.494  14.018
    9AGAL   H6227129   8.090   4.456  14.192
    9AGAL    O627130   0.121   4.526  14.111
    9AGAL   HO627131   0.159   4.542  14.025
   10AGAL    C127132   0.198   3.822  13.972
   10AGAL    H127133   0.299   3.862  13.990
   10AGAL    C527134   0.010   3.716  14.074
   10AGAL    H527135   8.096   3.785  14.010
   10AGAL    O527136   0.137   3.779  14.096
   10AGAL    C227137   0.218   3.698  13.883
   10AGAL    H227138   0.291   3.631  13.933
   10AGAL    O227139   0.276   3.738  13.758
   10AGAL   HO227140   0.339   3.672  13.728
   10AGAL    C327141   0.088   3.624  13.860
   10AGAL    H327142   0.020   3.692  13.805
   10AGAL    O327143   0.104   3.507  13.778
   10AGAL   HO327144   0.134   3.533  13.691
   10AGAL    C427145   0.028   3.587  13.994
   10AGAL    H427146   8.072   3.543  13.977
   10AGAL    O427147   0.107   3.491  14.065
   10AGAL   HO427148   0.197   3.523  14.069
   10AGAL    C627149   8.068   3.710  14.201
   10AGAL   H6127150   8.076   3.807  14.253
   10AGAL   H6227151   7.961   3.696  14.171
   10AGAL    O627152   8.101   3.605  14.292
   10AGAL   HO627153   8.098   3.638  14.382
   11BGLC    C127154   7.777   4.137  14.194
   11BGLC    H127155   7.670   4.114  14.212
   11BGLC    C527156   7.738   4.368  14.243
   11BGLC    H527157   7.630   4.345  14.259
   11BGLC    O527158   7.793   4.272  14.151
   11BGLC    C227159   7.857   4.121  14.322
   11BGLC    H227160   7.962   4.150  14.297
   11BGLC    O227161   7.861   3.986  14.368
   11BGLC   HO227162   7.856   3.930  14.290
   11BGLC    C327163   7.806   4.215  14.429
   11BGLC    H327164   7.701   4.189  14.453
   11BGLC    O327165   7.888   4.212  14.548
   11BGLC    C427166   7.814   4.356  14.375
   11BGLC    H427167   7.919   4.380  14.351
   11BGLC    O427168   7.769   4.451  14.470
   11BGLC   HO427169   7.697   4.412  14.521
   11BGLC    C627170   7.749   4.507  14.185
   11BGLC   H6127171   7.691   4.580  14.246
   11BGLC   H6227172   7.855   4.540  14.186
   11BGLC    O627173   7.703   4.515  14.050
   11BGLC   HO627174   7.615   4.477  14.041
   12BGLCN   C127175   7.835   4.145  14.660
   12BGLCN   H127176   7.833   4.035  14.641
   12BGLCN   C527177   7.649   4.131  14.810
   12BGLCN   H527178   7.644   4.021  14.794
   12BGLCN   O527179   7.705   4.194  14.693
   12BGLCN   C227180   7.930   4.179  14.775
   12BGLCN   H227181   7.919   4.288  14.790
   12BGLCN    N27182   8.069   4.149  14.742
   12BGLCN   HN27183   8.093   4.056  14.718
   12BGLCN    C27184   0.023   4.241  14.739
   12BGLCN    O27185   0.006   4.358  14.771
   12BGLCN   CT27186   0.158   4.194  14.691
   12BGLCN  HT127187   0.227   4.280  14.686
   12BGLCN  HT227188   0.149   4.149  14.590
   12BGLCN  HT327189   0.198   4.117  14.761
   12BGLCN   C327190   7.882   4.113  14.904
   12BGLCN   H327191   7.885   4.003  14.893
   12BGLCN   O327192   7.968   4.155  15.012
   12BGLCN   C427193   7.740   4.162  14.929
   12BGLCN   H427194   7.743   4.272  14.941
   12BGLCN   O427195   7.684   4.108  15.048
   12BGLCN  HO427196   7.665   4.015  15.037
   12BGLCN   C627197   7.508   4.186  14.827
   12BGLCN  H6127198   7.476   4.176  14.933
   12BGLCN  H6227199   7.505   4.294  14.801
   12BGLCN   O627200   7.412   4.115  14.747
   12BGLCN  HO627201   7.330   4.106  14.797
   13AGAL    C127202   7.985   4.071  15.125
   13AGAL    H127203   7.890   4.023  15.156
   13AGAL    C527204   0.069   4.024  15.063
   13AGAL    H527205   0.050   4.086  14.973
   13AGAL    O527206   8.086   3.969  15.103
   13AGAL    C227207   8.038   4.157  15.239
   13AGAL    H227208   8.068   4.085  15.319
   13AGAL    O227209   7.939   4.244  15.299
   13AGAL    C327210   0.023   4.225  15.195
   13AGAL    H327211   0.004   4.277  15.099
   13AGAL    O327212   0.067   4.327  15.284
   13AGAL   HO327213   0.040   4.410  15.246
   13AGAL    C427214   0.127   4.118  15.169
   13AGAL    H427215   0.217   4.167  15.127
   13AGAL    O427216   0.169   4.051  15.289
   13AGAL   HO427217   0.103   3.987  15.313
   13AGAL    C627218   0.160   3.912  15.012
   13AGAL   H6127219   0.098   3.843  14.951
   13AGAL   H6227220   0.236   3.956  14.945
   13AGAL    O627221   0.227   3.835  15.112
   13AGAL   HO627222   0.319   3.861  15.114
   14ARHM    C127223   7.904   4.212  15.433
   14ARHM    H127224   7.904   4.102  15.445
   14ARHM    C527225   7.750   4.393  15.459
   14ARHM    H527226   7.770   4.428  15.355
   14ARHM    O527227   7.770   4.251  15.465
   14ARHM    C227228   8.004   4.275  15.531
   14ARHM    H227229   8.106   4.248  15.496
   14ARHM    O227230   7.995   4.234  15.669
   14ARHM    C327231   7.987   4.425  15.519
   14ARHM    H327232   8.001   4.453  15.413
   14ARHM    O327233   8.087   4.498  15.591
   14ARHM   HO327234   8.066   4.500  15.684
   14ARHM    C427235   7.844   4.463  15.556
   14ARHM    H427236   7.821   4.424  15.658
   14ARHM    O427237   7.823   4.605  15.560
   14ARHM   HO427238   7.878   4.645  15.492
   14ARHM    C627239   7.600   4.413  15.487
   14ARHM   H6127240   7.539   4.355  15.416
   14ARHM   H6227241   7.575   4.380  15.590
   14ARHM   H6327242   7.573   4.521  15.477
   15ARHM    C127243   7.998   4.094  15.694
   15ARHM    H127244   8.071   4.045  15.626
   15ARHM    C527245   7.768   4.092  15.760
   15ARHM    H527246   7.758   4.200  15.739
   15ARHM    O527247   7.869   4.035  15.676
   15ARHM    C227248   8.040   4.067  15.839
   15ARHM    H227249   8.141   4.109  15.856
   15ARHM    O227250   8.046   3.923  15.857
   15ARHM    C327251   7.942   4.135  15.931
   15ARHM    H327252   7.936   4.242  15.903
   15ARHM    O327253   7.989   4.127  16.066
   15ARHM    C427254   7.806   4.072  15.907
   15ARHM    H427255   7.811   3.963  15.925
   15ARHM    O427256   7.706   4.124  15.995
   15ARHM   HO427257   7.698   4.217  15.977
   15ARHM    C627258   7.635   4.024  15.722
   15ARHM   H6127259   7.551   4.065  15.783
   15ARHM   H6227260   7.613   4.043  15.615
   15ARHM   H6327261   7.642   3.914  15.738
   16BMANN   C127262   8.065   3.870  15.986
   16BMANN   H127263   7.985   3.903  16.056
   16BMANN   C527264   0.070   3.854  16.173
   16BMANN   H527265   8.131   3.894  16.236
   16BMANN   O527266   0.051   3.903  16.039
   16BMANN   C227267   8.051   3.719  15.975
   16BMANN   H227268   7.944   3.700  15.952
   16BMANN    N27269   8.131   3.658  15.869
   16BMANN   HN27270   0.080   3.628  15.892
   16BMANN    C27271   8.081   3.634  15.747
   16BMANN    O27272   7.967   3.667  15.715
   16BMANN   CT27273   0.026   3.564  15.647
   16BMANN  HT127274   8.129   3.462  15.626
   16BMANN  HT227275   0.129   3.556  15.686
   16BMANN  HT327276   0.026   3.621  15.552
   16BMANN   C327277   8.071   3.660  16.114
   16BMANN   H327278   7.992   3.701  16.180
   16BMANN   O327279   8.054   3.519  16.113
   16BMANN  HO327280   8.004   3.495  16.192
   16BMANN   C427281   0.061   3.701  16.172
   16BMANN   H427282   0.142   3.660  16.108
   16BMANN   O427283   0.081   3.651  16.305
   16BMANN  HO427284   0.166   3.607  16.308
   16BMANN   C627285   0.200   3.904  16.234
   16BMANN  H6127286   0.194   3.890  16.345
   16BMANN  H6227287   0.285   3.841  16.199
   16BMANN   O627288   0.230   4.041  16.206
   16BMANN  HO627289   0.269   4.048  16.119
   17BGLCN   C127290   7.965   4.241  16.143
   17BGLCN   H127291   7.861   4.277  16.127
   17BGLCN   C527292   8.036   4.463  16.194
   17BGLCN   H527293   7.932   4.498  16.176
   17BGLCN   O527294   8.059   4.345  16.115
   17BGLCN   C227295   7.983   4.198  16.287
   17BGLCN   H227296   8.091   4.174  16.300
   17BGLCN    N27297   7.910   4.075  16.317
   17BGLCN   HN27298   7.837   4.049  16.255
   17BGLCN    C27299   7.939   3.994  16.420
   17BGLCN    O27300   8.031   4.015  16.497
   17BGLCN   CT27301   7.849   3.874  16.437
   17BGLCN  HT127302   7.863   3.804  16.352
   17BGLCN  HT227303   7.743   3.906  16.440
   17BGLCN  HT327304   7.875   3.822  16.532
   17BGLCN   C327305   7.950   4.319  16.374
   17BGLCN   H327306   7.852   4.356  16.337
   17BGLCN   O327307   7.935   4.284  16.513
   17BGLCN   C427308   8.051   4.428  16.341
   17BGLCN   H427309   0.009   4.389  16.359
   17BGLCN   O427310   8.034   4.543  16.422
   17BGLCN  HO427311   8.117   4.591  16.431
   17BGLCN   C627312   8.129   4.571  16.145
   17BGLCN  H6127313   8.107   4.667  16.198
   17BGLCN  H6227314   0.090   4.543  16.168
   17BGLCN   O627315   8.116   4.593  16.004
   17BGLCN  HO627316   8.135   4.510  15.959
   18AGAL    C127317   7.838   4.361  16.583
   18AGAL    H127318   7.875   4.466  16.594
   18AGAL    C527319   7.650   4.235  16.505
   18AGAL    H527320   7.721   4.167  16.454
   18AGAL    O527321   7.710   4.365  16.517
   18AGAL    C227322   7.814   4.307  16.723
   18AGAL    H227323   7.740   4.376  16.768
   18AGAL    O227324   7.933   4.311  16.804
   18AGAL    C327325   7.754   4.168  16.717
   18AGAL    H327326   7.825   4.102  16.663
   18AGAL    O327327   7.735   4.113  16.847
   18AGAL   HO327328   7.730   4.017  16.844
   18AGAL    C427329   7.622   4.174  16.642
   18AGAL    H427330   7.585   4.070  16.628
   18AGAL    O427331   7.523   4.246  16.714
   18AGAL   HO427332   7.541   4.233  16.808
   18AGAL    C627333   7.529   4.243  16.413
   18AGAL   H6127334   7.561   4.279  16.313
   18AGAL   H6227335   7.485   4.141  16.400
   18AGAL    O627336   7.428   4.331  16.464
   18AGAL   HO627337   7.440   4.330  16.560
   19ARHM    C127338   7.907   4.352  16.936
   19ARHM    H127339   7.807   4.315  16.970
   19ARHM    C527340   8.029   4.554  16.907
   19ARHM    H527341   8.050   4.525  16.801
   19ARHM    O527342   7.906   4.495  16.948
   19ARHM    C227343   8.013   4.294  17.026
   19ARHM    H227344   8.024   4.188  16.996
   19ARHM    O227345   7.977   4.296  17.166
   19ARHM    C327346   0.004   4.355  16.990
   19ARHM    H327347   0.030   4.326  16.886
   19ARHM    O327348   0.104   4.303  17.078
   19ARHM   HO327349   0.119   4.211  17.053
   19ARHM    C427350   8.141   4.506  16.997
   19ARHM    H427351   8.118   4.537  17.102
   19ARHM    O427352   0.120   4.568  16.958
   19ARHM   HO427353   0.136   4.547  16.865
   19ARHM    C627354   8.008   4.706  16.910
   19ARHM   H6127355   7.921   4.735  16.847
   19ARHM   H6227356   7.991   4.739  17.015
   19ARHM   H6327357   8.098   4.759  16.870
   20ARHM    C127358   7.877   4.200  17.197
   20ARHM    H127359   7.868   4.126  17.114
   20ARHM    C527360   7.739   4.346  17.325
   20ARHM    H527361   7.814   4.427  17.313
   20ARHM    O527362   7.747   4.258  17.213
   20ARHM    C227363   7.914   4.123  17.322
   20ARHM    H227364   8.019   4.089  17.313
   20ARHM    O227365   7.828   4.010  17.341
   20ARHM    C327366   7.907   4.211  17.444
   20ARHM    H327367   7.983   4.291  17.434
   20ARHM    O327368   7.934   4.129  17.558
   20ARHM    C427369   7.768   4.270  17.454
   20ARHM    H427370   7.695   4.186  17.462
   20ARHM    O427371   7.752   4.353  17.568
   20ARHM   HO427372   7.659   4.375  17.577
   20ARHM    C627373   7.599   4.409  17.322
   20ARHM   H6127374   7.519   4.332  17.331
   20ARHM   H6227375   7.586   4.483  17.404
   20ARHM   H6327376   7.584   4.461  17.225
   21BMANN   C127377   7.861   3.898  17.264
   21BMANN   H127378   7.951   3.918  17.202
   21BMANN   C527379   7.787   3.753  17.090
   21BMANN   H527380   7.879   3.779  17.033
   21BMANN   O527381   7.753   3.865  17.176
   21BMANN   C227382   7.889   3.783  17.358
   21BMANN   H227383   7.982   3.812  17.412
   21BMANN    N27384   7.784   3.760  17.457
   21BMANN   HN27385   7.691   3.750  17.423
   21BMANN    C27386   7.806   3.747  17.589
   21BMANN    O27387   7.916   3.761  17.640
   21BMANN   CT27388   7.685   3.714  17.673
   21BMANN  HT127389   7.640   3.619  17.638
   21BMANN  HT227390   7.610   3.796  17.665
   21BMANN  HT327391   7.717   3.703  17.779
   21BMANN   C327392   7.925   3.662  17.274
   21BMANN   H327393   8.017   3.685  17.216
   21BMANN   O327394   7.955   3.552  17.359
   21BMANN  HO327395   7.946   3.471  17.308
   21BMANN   C427396   7.814   3.630  17.176
   21BMANN   H427397   7.721   3.603  17.232
   21BMANN   O427398   7.851   3.520  17.093
   21BMANN  HO427399   7.779   3.490  17.038
   21BMANN   C627400   7.675   3.736  16.990
   21BMANN  H6127401   7.705   3.662  16.913
   21BMANN  H6227402   7.583   3.697  17.040
   21BMANN   O627403   7.643   3.859  16.924
   21BMANN  HO627404   7.604   3.917  16.989
   22BGLCN   C127405   8.002   4.192  17.662
   22BGLCN   H127406   7.984   4.302  17.662
   22BGLCN   C527407   0.073   4.222  17.758
   22BGLCN   H527408   0.053   4.332  17.762
   22BGLCN   O527409   8.141   4.164  17.650
   22BGLCN   C227410   7.946   4.131  17.788
   22BGLCN   H227411   7.966   4.021  17.785
   22BGLCN    N27412   7.802   4.149  17.794
   22BGLCN   HN27413   7.766   4.221  17.736
   22BGLCN    C27414   7.716   4.069  17.860
   22BGLCN    O27415   7.748   3.970  17.924
   22BGLCN   CT27416   7.571   4.109  17.851
   22BGLCN  HT127417   7.521   4.049  17.771
   22BGLCN  HT227418   7.562   4.217  17.827
   22BGLCN  HT327419   7.521   4.088  17.948
   22BGLCN   C327420   8.021   4.189  17.907
   22BGLCN   H327421   8.008   4.299  17.904
   22BGLCN   O327422   7.960   4.138  18.027
   22BGLCN   C427423   0.025   4.158  17.887
   22BGLCN   H427424   0.036   4.048  17.875
   22BGLCN   O427425   0.108   4.197  17.995
   22BGLCN  HO427426   0.162   4.120  18.015
   22BGLCN   C627427   0.220   4.204  17.729
   22BGLCN  H6127428   0.281   4.253  17.809
   22BGLCN  H6227429   0.246   4.096  17.729
   22BGLCN   O627430   0.255   4.263  17.604
   22BGLCN  HO627431   0.212   4.214  17.534
   23AGAL    C127432   7.987   4.205  18.148
   23AGAL    H127433   8.093   4.189  18.176
   23AGAL    C527434   7.822   4.374  18.110
   23AGAL    H527435   7.793   4.318  18.018
   23AGAL    O527436   7.961   4.347  18.138
   23AGAL    C227437   7.902   4.146  18.259
   23AGAL    H227438   7.932   4.194  18.355
   23AGAL    O227439   7.924   4.004  18.264
   23AGAL    C327440   7.755   4.174  18.237
   23AGAL    H327441   7.722   4.123  18.144
   23AGAL    O327442   7.677   4.123  18.345
   23AGAL   HO327443   7.685   4.186  18.418
   23AGAL    C427444   7.733   4.324  18.223
   23AGAL    H427445   7.627   4.341  18.193
   23AGAL    O427446   7.756   4.396  18.344
   23AGAL   HO427447   7.779   4.485  18.316
   23AGAL    C627448   7.806   4.521  18.075
   23AGAL   H6127449   7.867   4.544  17.985
   23AGAL   H6227450   7.700   4.540  18.048
   23AGAL    O627451   7.844   4.609  18.181
   23AGAL   HO627452   7.936   4.634  18.168
   24ARHM    C127453   8.020   3.961  18.356
   24ARHM    H127454   8.096   4.041  18.368
   24ARHM    C527455   8.013   3.732  18.294
   24ARHM    H527456   7.935   3.755  18.218
   24ARHM    O527457   8.096   3.847  18.312
   24ARHM    C227458   7.949   3.934  18.485
   24ARHM    H227459   7.882   4.019  18.510
   24ARHM    O227460   8.043   3.919  18.592
   24ARHM    C327461   7.860   3.812  18.470
   24ARHM    H327462   7.784   3.832  18.392
   24ARHM    O327463   7.791   3.782  18.591
   24ARHM   HO327464   7.785   3.686  18.592
   24ARHM    C427465   7.946   3.695  18.426
   24ARHM    H427466   8.025   3.677  18.502
   24ARHM    O427467   7.869   3.575  18.414
   24ARHM   HO427468   7.927   3.500  18.398
   24ARHM    C627469   8.102   3.620  18.237
   24ARHM   H6127470   8.040   3.533  18.206
   24ARHM   H6227471   0.013   3.657  18.147
   24ARHM   H6327472   0.032   3.586  18.313
   25ARHM    C127473   8.102   4.039  18.634
   25ARHM    H127474   8.075   4.123  18.566
   25ARHM    C527475   0.144   3.920  18.719
   25ARHM    H527476   0.104   3.824  18.679
   25ARHM    O527477   0.101   4.029  18.637
   25ARHM    C227478   8.046   4.069  18.771
   25ARHM    H227479   7.935   4.064  18.765
   25ARHM    O227480   8.084   4.200  18.818
   25ARHM    C327481   8.088   3.958  18.863
   25ARHM    H327482   8.041   3.863  18.831
   25ARHM    O327483   8.040   3.995  18.993
   25ARHM    C427484   0.095   3.943  18.861
   25ARHM    H427485   0.144   4.037  18.896
   25ARHM    O427486   0.138   3.836  18.944
   25ARHM   HO427487   0.201   3.868  19.009
   25ARHM    C627488   0.298   3.917  18.708
   25ARHM   H6127489   0.328   3.906  18.602
   25ARHM   H6227490   0.342   4.010  18.749
   25ARHM   H6327491   0.340   3.831  18.765
   26BMANN   C127492   8.008   4.307  18.764
   26BMANN   H127493   7.904   4.275  18.743
   26BMANN   C527494   7.995   4.472  18.591
   26BMANN   H527495   7.892   4.436  18.569
   26BMANN   O527496   8.069   4.361  18.646
   26BMANN   C227497   8.009   4.418  18.868
   26BMANN   H227498   7.961   4.376  18.959
   26BMANN    N27499   0.001   4.458  18.901
   26BMANN   HN27500   0.068   4.443  18.829
   26BMANN    C27501   0.041   4.512  19.016
   26BMANN    O27502   8.113   4.521  19.115
   26BMANN   CT27503   0.184   4.560  19.019
   26BMANN  HT127504   0.244   4.505  18.944
   26BMANN  HT227505   0.227   4.544  19.120
   26BMANN  HT327506   0.187   4.669  18.995
   26BMANN   C327507   7.923   4.533  18.817
   26BMANN   H327508   7.823   4.493  18.792
   26BMANN   O327509   7.903   4.634  18.916
   26BMANN  HO327510   7.809   4.652  18.925
   26BMANN   C427511   7.986   4.587  18.691
   26BMANN   H427512   8.089   4.622  18.714
   26BMANN   O427513   7.917   4.699  18.638
   26BMANN  HO427514   7.928   4.771  18.700
   26BMANN   C627515   8.057   4.511  18.458
   26BMANN  H6127516   8.080   4.421  18.397
   26BMANN  H6227517   7.983   4.570  18.401
   26BMANN   O627518   0.031   4.590  18.475
   26BMANN  HO627519   0.017   4.673  18.430
   27BGLCN   C127520   7.978   3.893  19.067
   27BGLCN   H127521   8.040   3.800  19.065
   27BGLCN   C527522   7.776   3.771  19.103
   27BGLCN   H527523   7.838   3.678  19.104
   27BGLCN   O527524   7.844   3.869  19.022
   27BGLCN   C227525   7.970   3.951  19.207
   27BGLCN   H227526   7.903   4.039  19.200
   27BGLCN    N27527   8.100   3.996  19.253
   27BGLCN   HN27528   0.035   3.941  19.228
   27BGLCN    C27529   8.120   4.110  19.320
   27BGLCN    O27530   8.030   4.185  19.357
   27BGLCN   CT27531   0.118   4.148  19.347
   27BGLCN  HT127532   0.187   4.064  19.324
   27BGLCN  HT227533   0.128   4.178  19.454
   27BGLCN  HT327534   0.144   4.236  19.284
   27BGLCN   C327535   7.905   3.851  19.300
   27BGLCN   H327536   7.964   3.757  19.296
   27BGLCN   O327537   7.912   3.908  19.433
   27BGLCN   C427538   7.765   3.821  19.247
   27BGLCN   H427539   7.707   3.915  19.248
   27BGLCN   O427540   7.696   3.727  19.329
   27BGLCN  HO427541   7.729   3.639  19.310
   27BGLCN   C627542   7.643   3.740  19.037
   27BGLCN  H6127543   7.572   3.696  19.110
   27BGLCN  H6227544   7.597   3.833  18.998
   27BGLCN   O627545   7.657   3.644  18.931
   27BGLCN  HO627546   7.613   3.673  18.850
   28AGAL    C127547   7.891   3.824   0.072
   28AGAL    H127548   7.782   3.809   0.086
   28AGAL    C527549   8.099   3.705   0.053
   28AGAL    H527550   8.128   3.764  19.436
   28AGAL    O527551   7.955   3.696   0.059
   28AGAL    C227552   7.947   3.890   0.198
   28AGAL    H227553   7.932   3.809   0.273
   28AGAL    O227554   7.877   4.006   0.247
   28AGAL    C327555   8.097   3.912   0.184
   28AGAL    H327556   8.114   3.967   0.090
   28AGAL    O327557   0.009   3.993   0.287
   28AGAL   HO327558   0.087   4.035   0.251
   28AGAL    C427559   0.018   3.775   0.173
   28AGAL    H427560   0.126   3.789   0.153
   28AGAL    O427561   0.007   3.700   0.294
   28AGAL   HO427562   0.027   3.608   0.272
   28AGAL    C627563   0.004   3.563   0.030
   28AGAL   H6127564   8.106   3.524  19.408
   28AGAL   H6227565   0.115   3.565   0.019
   28AGAL    O627566   8.115   3.473   0.136
   28AGAL   HO627567   8.019   3.469   0.145
   29ARHM    C127568   7.846   3.990   0.384
   29ARHM    H127569   7.924   3.929   0.434
   29ARHM    C527570   7.611   4.005   0.343
   29ARHM    H527571   7.630   4.020   0.234
   29ARHM    O527572   7.718   3.927   0.400
   29ARHM    C227573   7.844   4.122   0.458
   29ARHM    H227574   7.943   4.171   0.443
   29ARHM    O227575   7.821   4.099   0.599
   29ARHM    C327576   7.737   4.211   0.400
   29ARHM    H327577   7.759   4.229   0.292
   29ARHM    O327578   7.734   4.338   0.465
   29ARHM   HO327579   7.643   4.369   0.459
   29ARHM    C427580   7.604   4.140   0.412
   29ARHM    H427581   7.585   4.122   0.520
   29ARHM    O427582   7.496   4.219   0.363
   29ARHM   HO427583   7.515   4.253   0.275
   29ARHM    C627584   7.484   3.919   0.359
   29ARHM   H6127585   7.495   3.823   0.304
   29ARHM   H6227586   7.466   3.895   0.466
   29ARHM   H6327587   7.395   3.972   0.318
   30ARHM    C127588   7.937   4.099   0.679
   30ARHM    H127589   7.995   4.192   0.658
   30ARHM    C527590   7.961   3.860   0.690
   30ARHM    H527591   7.867   3.847   0.631
   30ARHM    O527592   8.023   3.986   0.655
   30ARHM    C227593   7.897   4.102   0.826
   30ARHM    H227594   7.824   4.184   0.841
   30ARHM    O227595   8.012   4.123   0.909
   30ARHM    C327596   7.830   3.972   0.867
   30ARHM    H327597   7.741   3.960   0.801
   30ARHM    O327598   7.778   3.982   1.002
   30ARHM    C427599   7.924   3.857   0.838
   30ARHM    H427600   8.017   3.868   0.897
   30ARHM    O427601   7.867   3.730   0.869
   30ARHM   HO427602   7.779   3.721   0.833
   30ARHM    C627603   8.058   3.748   0.650
   30ARHM   H6127604   8.014   3.649   0.672
   30ARHM   H6227605   8.080   3.753   0.541
   30ARHM   H6327606   0.009   3.757   0.706
   31BMANN   C127607   8.039   4.255   0.950
   31BMANN   H127608   7.946   4.308   0.979
   31BMANN   C527609   0.007   4.460   0.895
   31BMANN   H527610   8.061   4.515   0.931
   31BMANN   O527611   8.111   4.329   0.850
   31BMANN   C227612   8.128   4.234   1.072
   31BMANN   H227613   8.063   4.191   1.150
   31BMANN    N27614   0.093   4.139   1.047
   31BMANN   HN27615   0.131   4.138   0.955
   31BMANN    C27616   0.137   4.050   1.137
   31BMANN    O27617   0.092   4.045   1.251
   31BMANN   CT27618   0.243   3.954   1.092
   31BMANN  HT127619   0.343   3.998   1.110
   31BMANN  HT227620   0.230   3.929   0.985
   31BMANN  HT327621   0.236   3.861   1.153
   31BMANN   C327622   0.029   4.369   1.122
   31BMANN   H327623   8.082   4.428   1.144
   31BMANN   O327624   0.100   4.361   1.245
   31BMANN  HO327625   0.177   4.304   1.237
   31BMANN   C427626   0.103   4.444   1.013
   31BMANN   H427627   0.190   4.383   0.980
   31BMANN   O427628   0.152   4.570   1.056
   31BMANN  HO427629   0.161   4.572   1.151
   31BMANN   C627630   0.065   4.543   0.781
   31BMANN  H6127631   0.097   4.643   0.819
   31BMANN  H6227632   0.156   4.493   0.742
   31BMANN   O627633   8.116   4.564   0.674
   31BMANN  HO627634   8.059   4.639   0.695
   32BGLCN   C127635   7.862   3.946   1.110
   32BGLCN   H127636   7.966   3.979   1.091
   32BGLCN   C527637   7.949   3.769   1.246
   32BGLCN   H527638   8.052   3.801   1.219
   32BGLCN   O527639   7.860   3.805   1.139
   32BGLCN   C227640   7.808   4.015   1.234
   32BGLCN   H227641   7.713   3.963   1.258
   32BGLCN    N27642   7.773   4.154   1.209
   32BGLCN   HN27643   7.813   4.195   1.128
   32BGLCN    C27644   7.677   4.218   1.277
   32BGLCN    O27645   7.620   4.168   1.373
   32BGLCN   CT27646   7.643   4.357   1.228
   32BGLCN  HT127647   7.678   4.372   1.124
   32BGLCN  HT227648   7.689   4.432   1.295
   32BGLCN  HT327649   7.533   4.369   1.232
   32BGLCN   C327650   7.904   3.991   1.350
   32BGLCN   H327651   8.004   4.022   1.313
   32BGLCN   O327652   7.876   4.065   1.471
   32BGLCN   C427653   7.906   3.841   1.373
   32BGLCN   H427654   7.803   3.807   1.399
   32BGLCN   O427655   7.991   3.804   1.481
   32BGLCN  HO427656   7.937   3.766   1.551
   32BGLCN   C627657   7.949   3.617   1.261
   32BGLCN  H6127658   8.008   3.588   1.350
   32BGLCN  H6227659   7.845   3.582   1.275
   32BGLCN   O627660   8.006   3.549   1.148
   32BGLCN  HO627661   8.099   3.572   1.142
   33AGAL    C127662   7.992   4.123   1.529
   33AGAL    H127663   8.079   4.055   1.513
   33AGAL    C527664   7.926   4.352   1.498
   33AGAL    H527665   7.826   4.318   1.464
   33AGAL    O527666   8.023   4.250   1.468
   33AGAL    C227667   7.981   4.147   1.680
   33AGAL    H227668   8.079   4.190   1.709
   33AGAL    O227669   7.964   4.023   1.751
   33AGAL    C327670   7.876   4.249   1.715
   33AGAL    H327671   7.778   4.213   1.676
   33AGAL    O327672   7.863   4.267   1.855
   33AGAL   HO327673   7.934   4.325   1.882
   33AGAL    C427674   7.912   4.379   1.647
   33AGAL    H427675   7.830   4.452   1.663
   33AGAL    O427676   8.031   4.438   1.700
   33AGAL   HO427677   8.080   4.477   1.627
   33AGAL    C627678   7.961   4.479   1.421
   33AGAL   H6127679   7.935   4.465   1.314
   33AGAL   H6227680   7.900   4.563   1.461
   33AGAL    O627681   8.099   4.514   1.431
   33AGAL   HO627682   0.006   4.449   1.383
   34ARHM    C127683   8.047   4.015   1.865
   34ARHM    H127684   8.037   4.107   1.926
   34ARHM    C527685   0.061   3.884   1.745
   34ARHM    H527686   8.136   3.889   1.659
   34ARHM    O527687   0.041   3.999   1.827
   34ARHM    C227688   8.002   3.896   1.948
   34ARHM    H227689   7.892   3.906   1.960
   34ARHM    O227690   8.058   3.891   2.080
   34ARHM    C327691   8.025   3.769   1.869
   34ARHM    H327692   7.960   3.771   1.778
   34ARHM    O327693   7.988   3.655   1.947
   34ARHM   HO327694   7.927   3.601   1.898
   34ARHM    C427695   0.026   3.759   1.824
   34ARHM    H427696   0.093   3.753   1.913
   34ARHM    O427697   0.047   3.644   1.741
   34ARHM   HO427698   0.095   3.575   1.789
   34ARHM    C627699   0.203   3.892   1.685
   34ARHM   H6127700   0.281   3.915   1.760
   34ARHM   H6227701   0.229   3.797   1.633
   34ARHM   H6327702   0.206   3.973   1.609
   35ARHM    C127703   8.031   4.001   2.165
   35ARHM    H127704   7.936   4.051   2.135
   35ARHM    C527705   0.120   4.036   2.199
   35ARHM    H527706   0.143   3.950   2.132
   35ARHM    O527707   8.139   4.095   2.160
   35ARHM    C227708   8.017   3.946   2.307
   35ARHM    H227709   7.937   3.869   2.305
   35ARHM    O227710   7.986   4.044   2.409
   35ARHM    C327711   0.002   3.879   2.345
   35ARHM    H327712   0.029   3.804   2.267
   35ARHM    O327713   8.135   3.804   2.465
   35ARHM   HO327714   8.133   3.865   2.539
   35ARHM    C427715   0.112   3.984   2.343
   35ARHM    H427716   0.082   4.070   2.407
   35ARHM    O427717   0.237   3.938   2.393
   35ARHM   HO427718   0.287   3.892   2.325
   35ARHM    C627719   0.227   4.142   2.175
   35ARHM   H6127720   0.231   4.170   2.067
   35ARHM   H6227721   0.203   4.234   2.233
   35ARHM   H6327722   0.328   4.106   2.205
   36BMANN   C127723   7.855   4.094   2.411
   36BMANN   H127724   7.783   4.013   2.387
   36BMANN   C527725   7.704   4.254   2.318
   36BMANN   H527726   7.638   4.170   2.292
   36BMANN   O527727   7.839   4.204   2.320
   36BMANN   C227728   7.827   4.146   2.553
   36BMANN   H227729   7.833   4.057   2.619
   36BMANN    N27730   7.922   4.246   2.601
   36BMANN   HN27731   7.944   4.321   2.538
   36BMANN    C27732   7.968   4.254   2.726
   36BMANN    O27733   7.951   4.165   2.809
   36BMANN   CT27734   8.049   4.376   2.762
   36BMANN  HT127735   7.998   4.467   2.724
   36BMANN  HT227736   0.006   4.369   2.718
   36BMANN  HT327737   8.057   4.384   2.873
   36BMANN   C327738   7.683   4.195   2.557
   36BMANN   H327739   7.615   4.112   2.528
   36BMANN   O327740   7.645   4.238   2.688
   36BMANN  HO327741   7.631   4.162   2.745
   36BMANN   C427742   7.665   4.306   2.456
   36BMANN   H427743   7.732   4.391   2.484
   36BMANN   O427744   7.530   4.353   2.455
   36BMANN  HO427745   7.504   4.357   2.547
   36BMANN   C627746   7.690   4.357   2.206
   36BMANN  H6127747   7.752   4.327   2.119
   36BMANN  H6227748   7.584   4.359   2.172
   36BMANN   O627749   7.725   4.490   2.246
   36BMANN  HO627750   7.673   4.514   2.323
    1ECLIP HB6S27751   0.180   5.263  11.834
    1ECLIP  OB627752   0.342   5.326  11.950
    1ECLIP  CB627753   0.237   5.356  11.856
    1ECLIP HB6R27754   0.167   5.430  11.899
    1ECLIP  CB527755   0.289   5.412  11.727
    1ECLIP  OB527756   0.390   5.324  11.677
    1ECLIP  HB527757   0.334   5.511  11.748
    1ECLIP  CB127758   0.453   5.380  11.563
    1ECLIP  HB127759   0.494   5.479  11.589
    1ECLIP  OA627760   0.560   5.300  11.523
    1ECLIP  CA627761   0.532   5.160  11.522
    1ECLIP HA6R27762   0.423   5.138  11.520
    1ECLIP HA6S27763   0.574   5.115  11.614
    1ECLIP  CB427764   0.182   5.426  11.620
    1ECLIP  HB427765   0.146   5.324  11.592
    1ECLIP  OB427766   0.080   5.508  11.678
    1ECLIP   PB27767   8.070   5.452  11.690
    1ECLIP OPB427768   8.005   5.531  11.803
    1ECLIP OPB327769   8.072   5.302  11.714
    1ECLIP OPB227770   8.001   5.502  11.566
    1ECLIP  CB327771   0.244   5.489  11.498
    1ECLIP  OB327772   0.144   5.505  11.397
    1ECLIP  HB327773   0.288   5.586  11.531
    1ECLIP  C7127774   0.156   5.611  11.320
    1ECLIP  O7127775   0.243   5.696  11.328
    1ECLIP  C7227776   0.073   5.599  11.193
    1ECLIP H72R27777   0.145   5.579  11.111
    1ECLIP H72S27778   0.025   5.697  11.177
    1ECLIP  CB227779   0.355   5.397  11.448
    1ECLIP  HB227780   0.308   5.298  11.428
    1ECLIP  NB227781   0.419   5.442  11.324
    1ECLIP HNB227782   0.485   5.516  11.331
    1ECLIP  CA427783   0.705   5.192  11.343
    1ECLIP  HA427784   0.658   5.290  11.318
    1ECLIP  OA427785   0.806   5.213  11.442
    1ECLIP HOA427786   0.767   5.272  11.507
    1ECLIP  CA527787   0.599   5.100  11.400
    1ECLIP  HA527788   0.643   5.002  11.427
    1ECLIP  OA527789   0.498   5.082  11.300
    1ECLIP  CA127790   0.546   5.019  11.180
    1ECLIP  HA127791   0.458   5.016  11.111
    1ECLIP  OA127792   0.599   4.891  11.211
    1ECLIP OPA227793   0.608   4.632  11.173
    1ECLIP OPA327794   0.389   4.731  11.182
    1ECLIP OPA427795   0.533   4.762  10.994
    1ECLIP   PA27796   0.532   4.760  11.145
    1ECLIP  CA327797   0.761   5.135  11.216
    1ECLIP  HA327798   0.810   5.038  11.240
    1ECLIP  OA327799   0.861   5.223  11.168
    1ECLIP  C3127800   0.821   5.342  11.117
    1ECLIP  O3127801   0.821   5.362  10.996
    1ECLIP  C3227802   0.888   5.446  11.208
    1ECLIP H32R27803   0.987   5.460  11.160
    1ECLIP H32S27804   0.903   5.406  11.310
    1ECLIP  CA227805   0.650   5.110  11.116
    1ECLIP  HA227806   0.599   5.206  11.093
    1ECLIP  NA227807   0.706   5.060  10.991
    1ECLIP HNA227808   0.805   5.051  10.991
    1ECLIP  C7327809   8.111   5.488  11.196
    1ECLIP H73R27810   8.051   5.497  11.290
    1ECLIP  O7327811   0.035   5.362  11.192
    1ECLIP  C8127812   8.109   5.257  11.235
    1ECLIP  O8127813   7.988   5.258  11.253
    1ECLIP  C8227814   0.040   5.130  11.194
    1ECLIP H82R27815   8.124   5.044  11.229
    1ECLIP H82S27816   0.138   5.129  11.246
    1ECLIP  C8327817   0.061   5.124  11.041
    1ECLIP H83R27818   0.134   5.202  11.013
    1ECLIP H83S27819   8.109   5.146  10.989
    1ECLIP  C8427820   0.114   4.989  10.990
    1ECLIP H84R27821   0.036   4.910  11.005
    1ECLIP H84S27822   0.204   4.960  11.049
    1ECLIP  C8527823   0.152   5.001  10.842
    1ECLIP H85R27824   0.237   5.071  10.837
    1ECLIP H85S27825   0.066   5.047  10.788
    1ECLIP  C8627826   0.193   4.870  10.774
    1ECLIP H86R27827   0.104   4.805  10.764
    1ECLIP H86S27828   0.267   4.819  10.839
    1ECLIP  C8727829   0.257   4.894  10.636
    1ECLIP H87R27830   0.273   4.796  10.585
    1ECLIP H87S27831   0.357   4.939  10.653
    1ECLIP  C8827832   0.176   4.989  10.546
    1ECLIP H88R27833   0.172   5.087  10.597
    1ECLIP H88S27834   0.072   4.952  10.535
    1ECLIP  C8927835   0.238   5.014  10.407
    1ECLIP H89R27836   0.348   5.029  10.417
    1ECLIP H89S27837   0.195   5.110  10.370
    1ECLIP C81027838   0.208   4.905  10.305
    1ECLIPH810R27839   0.101   4.877  10.313
    1ECLIPH810S27840   0.268   4.815  10.332
    1ECLIP C81127841   0.239   4.946  10.160
    1ECLIPH811R27842   0.238   4.856  10.095
    1ECLIPH811S27843   0.342   4.988  10.158
    1ECLIP C81227844   0.142   5.050  10.100
    1ECLIPH812R27845   0.183   5.084  10.002
    1ECLIPH812S27846   0.138   5.139  10.167
    1ECLIP C81327847   8.143   4.999  10.079
    1ECLIPH813R27848   0.001   4.913  10.008
    1ECLIPH813S27849   8.103   4.961  10.175
    1ECLIP C81427850   8.049   5.107  10.027
    1ECLIPH814R27851   8.086   5.149   9.931
    1ECLIPH814S27852   8.042   5.190  10.101
    1ECLIPH814T27853   7.946   5.067  10.011
    1ECLIP  C7427854   8.016   5.499  11.074
    1ECLIP H74R27855   7.966   5.598  11.076
    1ECLIP H74S27856   7.936   5.424  11.087
    1ECLIP  C7527857   8.078   5.477  10.934
    1ECLIP H75R27858   7.994   5.446  10.868
    1ECLIP H75S27859   0.006   5.393  10.937
    1ECLIP  C7627860   8.143   5.600  10.868
    1ECLIP H76R27861   0.098   5.622  10.913
    1ECLIP H76S27862   8.080   5.691  10.884
    1ECLIP  C7727863   0.016   5.581  10.717
    1ECLIP H77R27864   8.070   5.530  10.675
    1ECLIP H77S27865   0.101   5.513  10.699
    1ECLIP  C7827866   0.038   5.713  10.641
    1ECLIP H78R27867   8.088   5.772  10.644
    1ECLIP H78S27868   0.116   5.772  10.693
    1ECLIP  C7927869   0.081   5.694  10.495
    1ECLIP H79R27870   0.187   5.660  10.495
    1ECLIP H79S27871   0.077   5.792  10.443
    1ECLIP C71027872   8.143   5.590  10.416
    1ECLIPH710R27873   0.025   5.489  10.453
    1ECLIPH710S27874   8.035   5.605  10.436
    1ECLIP C71127875   0.025   5.597  10.265
    1ECLIPH711R27876   0.004   5.700  10.229
    1ECLIPH711S27877   0.132   5.575  10.246
    1ECLIP C71227878   8.083   5.496  10.187
    1ECLIPH712R27879   7.977   5.529  10.194
    1ECLIPH712S27880   8.090   5.397  10.238
    1ECLIP C71327881   8.123   5.479  10.040
    1ECLIPH713R27882   0.080   5.434  10.036
    1ECLIPH713S27883   8.052   5.407   9.993
    1ECLIP C71427884   8.122   5.609   9.959
    1ECLIPH714R27885   8.027   5.664   9.975
    1ECLIPH714S27886   0.062   5.674   9.989
    1ECLIPH714T27887   8.132   5.586   9.850
    1ECLIP  C5127888   0.388   5.398  11.200
    1ECLIP  O5127889   0.318   5.301  11.179
    1ECLIP  C5227890   0.447   5.479  11.087
    1ECLIP H52R27891   0.393   5.576  11.080
    1ECLIP H52S27892   0.552   5.500  11.115
    1ECLIP  C5327893   0.446   5.408  10.951
    1ECLIP H53R27894   0.471   5.300  10.962
    1ECLIP  O5327895   0.545   5.479  10.876
    1ECLIP  C6127896   0.626   5.408  10.800
    1ECLIP  O6127897   0.606   5.295  10.759
    1ECLIP  C6227898   0.717   5.507  10.728
    1ECLIP H62R27899   0.788   5.549  10.803
    1ECLIP H62S27900   0.652   5.589  10.691
    1ECLIP  C6327901   0.796   5.445  10.613
    1ECLIP H63R27902   0.745   5.355  10.571
    1ECLIP H63S27903   0.894   5.409  10.652
    1ECLIP  C6427904   0.813   5.544  10.498
    1ECLIP H64R27905   0.902   5.515  10.437
    1ECLIP H64S27906   0.831   5.646  10.536
    1ECLIP  C6527907   0.691   5.540  10.407
    1ECLIP H65R27908   0.604   5.578  10.464
    1ECLIP H65S27909   0.670   5.434  10.381
    1ECLIP  C6627910   0.710   5.619  10.278
    1ECLIP H66R27911   0.733   5.725  10.302
    1ECLIP H66S27912   0.614   5.617  10.222
    1ECLIP  C6727913   0.819   5.563  10.187
    1ECLIP H67R27914   0.916   5.574  10.239
    1ECLIP H67S27915   0.822   5.626  10.095
    1ECLIP  C6827916   0.799   5.415  10.147
    1ECLIP H68R27917   0.692   5.399  10.124
    1ECLIP H68S27918   0.826   5.348  10.232
    1ECLIP  C6927919   0.882   5.379  10.023
    1ECLIP H69R27920   0.990   5.370  10.048
    1ECLIP H69S27921   0.871   5.466   9.953
    1ECLIP C61027922   0.839   5.251   9.952
    1ECLIPH610R27923   0.728   5.249   9.943
    1ECLIPH610S27924   0.869   5.164  10.014
    1ECLIP C61127925   0.902   5.236   9.813
    1ECLIPH611R27926   1.012   5.226   9.826
    1ECLIPH611S27927   0.864   5.143   9.767
    1ECLIP C61227928   0.878   5.354   9.719
    1ECLIPH612R27929   0.770   5.383   9.717
    1ECLIPH612S27930   0.935   5.443   9.753
    1ECLIPH612T27931   0.909   5.328   9.616
    1ECLIP  C5427932   0.310   5.421  10.880
    1ECLIP H54R27933   0.290   5.528  10.860
    1ECLIP H54S27934   0.234   5.385  10.951
    1ECLIP  C5527935   0.295   5.340  10.749
    1ECLIP H55R27936   0.188   5.312  10.739
    1ECLIP H55S27937   0.353   5.245  10.758
    1ECLIP  C5627938   0.338   5.416  10.623
    1ECLIP H56R27939   0.448   5.433  10.623
    1ECLIP H56S27940   0.291   5.516  10.621
    1ECLIP  C5727941   0.303   5.340  10.495
    1ECLIP H57R27942   0.194   5.322  10.490
    1ECLIP H57S27943   0.355   5.241  10.499
    1ECLIP  C5827944   0.350   5.416  10.372
    1ECLIP H58R27945   0.301   5.516  10.369
    1ECLIP H58S27946   0.459   5.434  10.384
    1ECLIP  C5927947   0.329   5.344  10.239
    1ECLIP H59R27948   0.221   5.325  10.223
    1ECLIP H59S27949   0.381   5.246  10.242
    1ECLIP C51027950   0.385   5.429  10.124
    1ECLIPH510R27951   0.485   5.465  10.155
    1ECLIPH510S27952   0.320   5.518  10.111
    1ECLIP C51127953   0.399   5.355   9.990
    1ECLIPH511R27954   0.478   5.278   9.999
    1ECLIPH511S27955   0.303   5.305   9.967
    1ECLIP C51227956   0.434   5.454   9.877
    1ECLIPH512R27957   0.431   5.401   9.779
    1ECLIPH512S27958   0.354   5.531   9.877
    1ECLIP C51327959   0.569   5.524   9.894
    1ECLIPH513R27960   0.648   5.445   9.896
    1ECLIPH513S27961   0.572   5.576   9.992
    1ECLIP C51427962   0.603   5.625   9.784
    1ECLIPH514R27963   0.532   5.710   9.789
    1ECLIPH514S27964   0.706   5.664   9.798
    1ECLIPH514T27965   0.595   5.578   9.684
    1ECLIP  C3327966   0.823   5.584  11.212
    1ECLIP H33R27967   0.892   5.654  11.264
    1ECLIP  O3327968   0.703   5.575  11.288
    1ECLIP HO3327969   0.714   5.609  11.377
    1ECLIP  C3427970   0.797   5.639  11.071
    1ECLIP H34R27971   0.713   5.584  11.025
    1ECLIP H34S27972   0.888   5.620  11.010
    1ECLIP  C3527973   0.768   5.789  11.062
    1ECLIP H35R27974   0.864   5.843  11.072
    1ECLIP H35S27975   0.703   5.821  11.147
    1ECLIP  C3627976   0.699   5.821  10.929
    1ECLIP H36R27977   0.727   5.744  10.854
    1ECLIP H36S27978   0.736   5.918  10.888
    1ECLIP  C3727979   0.546   5.825  10.945
    1ECLIP H37R27980   0.518   5.923  10.989
    1ECLIP H37S27981   0.518   5.747  11.019
    1ECLIP  C3827982   0.463   5.801  10.818
    1ECLIP H38R27983   0.459   5.691  10.799
    1ECLIP H38S27984   0.359   5.834  10.838
    1ECLIP  C3927985   0.514   5.868  10.689
    1ECLIP H39R27986   0.611   5.822  10.661
    1ECLIP H39S27987   0.531   5.976  10.707
    1ECLIP C31027988   0.412   5.847  10.576
    1ECLIPH310R27989   0.329   5.921  10.588
    1ECLIPH310S27990   0.368   5.746  10.588
    1ECLIP C31127991   0.470   5.855  10.434
    1ECLIPH311R27992   0.525   5.951  10.420
    1ECLIPH311S27993   0.545   5.774  10.423
    1ECLIP C31227994   0.361   5.840  10.327
    1ECLIPH312R27995   0.304   5.747  10.347
    1ECLIPH312S27996   0.291   5.925  10.337
    1ECLIP C31327997   0.414   5.831  10.183
    1ECLIPH313R27998   0.492   5.909  10.168
    1ECLIPH313S27999   0.462   5.732  10.170
    1ECLIP C31428000   0.304   5.844  10.078
    1ECLIPH314R28001   0.257   5.945  10.082
    1ECLIPH314S28002   0.346   5.829   9.976
    1ECLIPH314T28003   0.226   5.768  10.096
    1ECLIP  C1128004   0.635   5.015  10.886
    1ECLIP  O1128005   0.517   5.044  10.867
    1ECLIP  C1228006   0.707   4.917  10.795
    1ECLIP H12R28007   0.663   4.817  10.816
    1ECLIP H12S28008   0.815   4.912  10.821
    1ECLIP  C1328009   0.686   4.948  10.647
    1ECLIP H13R28010   0.582   4.983  10.630
    1ECLIP  O1328011   0.705   4.828  10.574
    1ECLIP HO1328012   0.693   4.841  10.479
    1ECLIP  C1428013   0.786   5.052  10.594
    1ECLIP H14R28014   0.887   5.025  10.633
    1ECLIP H14S28015   0.759   5.151  10.638
    1ECLIP  C1528016   0.795   5.062  10.440
    1ECLIP H15R28017   0.836   4.966  10.402
    1ECLIP H15S28018   0.870   5.141  10.414
    1ECLIP  C1628019   0.662   5.095  10.369
    1ECLIP H16R28020   0.643   5.204  10.382
    1ECLIP H16S28021   0.577   5.042  10.417
    1ECLIP  C1728022   0.664   5.059  10.220
    1ECLIP H17R28023   0.761   5.093  10.178
    1ECLIP H17S28024   0.583   5.114  10.168
    1ECLIP  C1828025   0.647   4.908  10.194
    1ECLIP H18R28026   0.725   4.854  10.252
    1ECLIP H18S28027   0.548   4.874  10.232
    1ECLIP  C1928028   0.662   4.866  10.046
    1ECLIP H19R28029   0.686   4.758  10.044
    1ECLIP H19S28030   0.748   4.921  10.001
    1ECLIP C11028031   0.535   4.887   9.961
    1ECLIPH110R28032   0.451   4.834  10.010
    1ECLIPH110S28033   0.511   4.995   9.959
    1ECLIP C11128034   0.551   4.834   9.818
    1ECLIPH111R28035   0.636   4.888   9.771
    1ECLIPH111S28036   0.578   4.726   9.821
    1ECLIP C11228037   0.425   4.853   9.732
    1ECLIPH112R28038   0.347   4.779   9.762
    1ECLIPH112S28039   0.383   4.954   9.752
    1ECLIP C11328040   0.454   4.841   9.581
    1ECLIPH113R28041   0.541   4.905   9.557
    1ECLIPH113S28042   0.483   4.736   9.558
    1ECLIP C11428043   0.337   4.884   9.492
    1ECLIPH114R28044   0.248   4.819   9.509
    1ECLIPH114S28045   0.308   4.988   9.514
    1ECLIPH114T28046   0.366   4.877   9.384
    2AKDO    C128047   0.396   5.560  12.001
    2AKDO   O1128048   0.325   5.658  12.034
    2AKDO   O1228049   0.511   5.565  11.949
    2AKDO    C228050   0.352   5.420  12.056
    2AKDO    C628051   0.174   5.309  12.171
    2AKDO    H628052   0.173   5.239  12.084
    2AKDO    O628053   0.227   5.435  12.127
    2AKDO    C328054   0.450   5.356  12.153
    2AKDO   H3128055   0.465   5.427  12.238
    2AKDO   H3228056   0.547   5.343  12.100
    2AKDO    C428057   0.401   5.224  12.204
    2AKDO    H428058   0.389   5.154  12.119
    2AKDO    O428059   0.489   5.166  12.301
    2AKDO    C528060   0.267   5.242  12.273
    2AKDO    H528061   0.228   5.138  12.285
    2AKDO    O528062   0.282   5.304  12.404
    2AKDO    C728063   0.027   5.334  12.200
    2AKDO    H728064   0.016   5.407  12.283
    2AKDO    O728065   8.106   5.211  12.233
    2AKDO   HO728066   8.072   5.177  12.149
    2AKDO    C828067   8.110   5.394  12.072
    2AKDO   H8128068   0.014   5.492  12.052
    2AKDO   H8228069   8.134   5.329  11.985
    2AKDO    O828070   7.969   5.418  12.075
    2AKDO   HO828071   7.956   5.466  11.993
    3AKDO    C128072   0.607   5.002  12.150
    3AKDO   O1128073   0.708   4.991  12.075
    3AKDO   O1228074   0.523   4.911  12.173
    3AKDO    C228075   0.614   5.113  12.262
    3AKDO    C628076   0.729   5.316  12.329
    3AKDO    H628077   0.632   5.365  12.352
    3AKDO    O628078   0.712   5.214  12.227
    3AKDO    C328079   0.655   5.047  12.394
    3AKDO   H3128080   0.748   4.988  12.379
    3AKDO   H3228081   0.576   4.975  12.424
    3AKDO    C428082   0.672   5.149  12.503
    3AKDO    H428083   0.579   5.206  12.518
    3AKDO    O428084   0.705   5.084  12.625
    3AKDO   HO428085   0.623   5.058  12.667
    3AKDO    C528086   0.778   5.246  12.455
    3AKDO    H528087   0.799   5.320  12.536
    3AKDO    O528088   0.898   5.179  12.421
    3AKDO   HO528089   0.882   5.152  12.330
    3AKDO    C728090   0.825   5.424  12.281
    3AKDO    H728091   0.921   5.375  12.253
    3AKDO    O728092   0.849   5.519  12.386
    3AKDO   HO728093   0.897   5.588  12.338
    3AKDO    C828094   0.774   5.500  12.160
    3AKDO   H8128095   0.757   5.429  12.075
    3AKDO   H8228096   0.676   5.549  12.182
    3AKDO    O828097   0.869   5.600  12.118
    3AKDO   HO828098   0.956   5.560  12.116
    4AHEP    C128099   0.185   5.263  12.498
    4AHEP    H128100   0.088   5.303  12.462
    4AHEP    C528101   0.281   5.051  12.559
    4AHEP    H528102   0.373   5.083  12.506
    4AHEP    O528103   0.168   5.120  12.501
    4AHEP    C228104   0.203   5.316  12.642
    4AHEP    H228105   0.230   5.423  12.632
    4AHEP    O228106   0.083   5.312  12.722
    4AHEP   HO228107   0.027   5.379  12.683
    4AHEP    C328108   0.317   5.248  12.715
    4AHEP    H328109   0.414   5.274  12.668
    4AHEP    O328110   0.311   5.286  12.855
    4AHEP    C428111   0.288   5.098  12.704
    4AHEP    H428112   0.179   5.084  12.724
    4AHEP    O428113   0.370   5.014  12.788
    4AHEP    P428114   0.295   4.950  12.922
    4AHEP  OP4228115   0.378   4.837  12.978
    4AHEP  OP4328116   0.157   4.912  12.871
    4AHEP  OP4428117   0.265   5.068  13.011
    4AHEP    C628118   0.270   4.899  12.540
    4AHEP    H628119   0.365   4.853  12.574
    4AHEP    O628120   0.162   4.841  12.617
    4AHEP   HO628121   0.176   4.865  12.709
    4AHEP    C728122   0.250   4.863  12.393
    4AHEP   H7128123   0.255   4.753  12.379
    4AHEP   H7228124   0.332   4.908  12.333
    4AHEP    O728125   0.125   4.910  12.341
    4AHEP   HO728126   0.114   4.999  12.376
    5AHEP    C128127   0.426   5.350  12.910
    5AHEP    H128128   0.516   5.315  12.856
    5AHEP    C528129   0.317   5.558  12.978
    5AHEP    H528130   0.218   5.520  12.944
    5AHEP    O528131   0.420   5.494  12.899
    5AHEP    C228132   0.446   5.318  13.059
    5AHEP    H228133   0.445   5.208  13.070
    5AHEP    O228134   0.574   5.361  13.105
    5AHEP   HO228135   0.564   5.452  13.132
    5AHEP    C328136   0.333   5.377  13.143
    5AHEP    H328137   0.238   5.336  13.103
    5AHEP    O328138   0.345   5.346  13.282
    5AHEP    C428139   0.333   5.528  13.127
    5AHEP    H428140   0.430   5.570  13.161
    5AHEP    O428141   0.223   5.589  13.197
    5AHEP    P428142   0.245   5.671  13.340
    5AHEP  OP4228143   0.120   5.753  13.367
    5AHEP  OP4328144   0.367   5.761  13.325
    5AHEP  OP4428145   0.264   5.567  13.448
    5AHEP    C628146   0.323   5.708  12.947
    5AHEP    H628147   0.248   5.761  13.010
    5AHEP    O628148   0.454   5.761  12.974
    5AHEP   HO628149   0.488   5.766  12.885
    5AHEP    C728150   0.290   5.732  12.800
    5AHEP   H7128151   0.227   5.824  12.795
    5AHEP   H7228152   0.227   5.651  12.756
    5AHEP    O728153   0.407   5.759  12.721
    6AHEP    C128154   0.446   5.650  12.640
    6AHEP    H128155   0.397   5.556  12.672
    6AHEP    C528156   0.472   5.793  12.450
    6AHEP    H528157   0.439   5.878  12.513
    6AHEP    O528158   0.411   5.673  12.503
    6AHEP    C228159   0.596   5.635  12.657
    6AHEP    H228160   0.617   5.627  12.766
    6AHEP    O228161   0.646   5.514  12.599
    6AHEP   HO228162   0.711   5.536  12.533
    6AHEP    C328163   0.663   5.759  12.605
    6AHEP    H328164   0.625   5.846  12.663
    6AHEP    O328165   0.805   5.757  12.623
    6AHEP   HO328166   0.845   5.808  12.553
    6AHEP    C428167   0.624   5.781  12.460
    6AHEP    H428168   0.656   5.692  12.401
    6AHEP    O428169   0.687   5.895  12.403
    6AHEP   HO428170   0.696   5.879  12.309
    6AHEP    C628171   0.426   5.827  12.308
    6AHEP    H628172   0.456   5.932  12.287
    6AHEP    O628173   0.499   5.746  12.216
    6AHEP   HO628174   0.437   5.711  12.151
    6AHEP    C728175   0.275   5.819  12.284
    6AHEP   H7128176   0.254   5.858  12.182
    6AHEP   H7228177   0.226   5.887  12.356
    6AHEP    O728178   0.216   5.689  12.297
    6AHEP   HO728179   0.244   5.641  12.219
    7AGLC    C128180   0.270   5.236  13.328
    7AGLC    H128181   0.174   5.227  13.274
    7AGLC    C528182   0.475   5.123  13.376
    7AGLC    H528183   0.530   5.210  13.336
    7AGLC    O528184   0.346   5.116  13.313
    7AGLC    C228185   0.245   5.249  13.477
    7AGLC    H228186   0.201   5.152  13.509
    7AGLC    O228187   0.147   5.347  13.507
    7AGLC   HO228188   0.186   5.431  13.485
    7AGLC    C328189   0.374   5.267  13.555
    7AGLC    H328190   0.427   5.356  13.515
    7AGLC    O328191   0.349   5.283  13.698
    7AGLC    C428192   0.457   5.142  13.527
    7AGLC    H428193   0.400   5.054  13.566
    7AGLC    O428194   0.582   5.145  13.594
    7AGLC   HO428195   0.615   5.055  13.603
    7AGLC    C628196   0.546   4.997  13.329
    7AGLC   H6128197   0.511   4.970  13.227
    7AGLC   H6228198   0.655   5.019  13.320
    7AGLC    O628199   0.531   4.883  13.416
    7AGLC   HO628200   0.613   4.879  13.465
    8AGLC    C128201   0.400   5.405  13.751
    8AGLC    H128202   0.499   5.426  13.706
    8AGLC    C528203   0.184   5.511  13.779
    8AGLC    H528204   0.136   5.415  13.752
    8AGLC    O528205   0.316   5.517  13.721
    8AGLC    C228206   0.413   5.403  13.902
    8AGLC    H228207   0.464   5.497  13.933
    8AGLC    O228208   0.490   5.291  13.948
    8AGLC    C328209   0.281   5.397  13.975
    8AGLC    H328210   0.229   5.305  13.939
    8AGLC    O328211   0.307   5.378  14.117
    8AGLC    C428212   0.197   5.515  13.932
    8AGLC    H428213   0.247   5.611  13.958
    8AGLC    O428214   0.068   5.513  13.991
    8AGLC   HO428215   0.017   5.571  13.934
    8AGLC    C628216   0.106   5.621  13.708
    8AGLC   H6128217   0.175   5.697  13.666
    8AGLC   H6228218   0.056   5.576  13.620
    8AGLC    O628219   0.006   5.690  13.786
    8AGLC   HO628220   8.097   5.732  13.718
    9AGAL    C128221   0.626   5.287  13.912
    9AGAL    H128222   0.638   5.288  13.802
    9AGAL    C528223   0.683   5.401  14.112
    9AGAL    H528224   0.574   5.400  14.135
    9AGAL    O528225   0.697   5.398  13.969
    9AGAL    C228226   0.677   5.156  13.967
    9AGAL    H228227   0.783   5.141  13.935
    9AGAL    O228228   0.593   5.059  13.898
    9AGAL    C328229   0.667   5.157  14.119
    9AGAL    H328230   0.560   5.171  14.146
    9AGAL    O328231   0.708   5.034  14.179
    9AGAL   HO328232   0.645   4.969  14.148
    9AGAL    C428233   0.743   5.276  14.175
    9AGAL    H428234   0.728   5.280  14.285
    9AGAL    O428235   0.884   5.268  14.151
    9AGAL   HO428236   0.919   5.357  14.144
    9AGAL    C628237   0.731   5.534  14.168
    9AGAL   H6128238   0.664   5.615  14.132
    9AGAL   H6228239   0.728   5.532  14.279
    9AGAL    O628240   0.863   5.565  14.126
    9AGAL   HO628241   0.860   5.570  14.030
   10AGAL    C128242   0.578   4.925  13.937
   10AGAL    H128243   0.678   4.877  13.944
   10AGAL    C528244   0.377   4.976  14.057
   10AGAL    H528245   0.389   5.083  14.028
   10AGAL    O528246   0.507   4.913  14.062
   10AGAL    C228247   0.494   4.856  13.830
   10AGAL    H228248   0.480   4.750  13.863
   10AGAL    O228249   0.563   4.851  13.706
   10AGAL   HO228250   0.541   4.773  13.655
   10AGAL    C328251   0.358   4.923  13.817
   10AGAL    H328252   0.375   5.031  13.794
   10AGAL    O328253   0.278   4.868  13.712
   10AGAL   HO328254   0.326   4.876  13.629
   10AGAL    C428255   0.287   4.913  13.950
   10AGAL    H428256   0.193   4.971  13.944
   10AGAL    O428257   0.253   4.778  13.979
   10AGAL   HO428258   0.224   4.740  13.896
   10AGAL    C628259   0.317   4.975  14.196
   10AGAL   H6128260   0.380   5.036  14.264
   10AGAL   H6228261   0.215   5.020  14.194
   10AGAL    O628262   0.308   4.842  14.250
   10AGAL   HO628263   0.272   4.788  14.179
   11BGLC    C128264   0.298   5.486  14.209
   11BGLC    H128265   0.191   5.513  14.223
   11BGLC    C528266   0.367   5.708  14.261
   11BGLC    H528267   0.260   5.732  14.279
   11BGLC    O528268   0.374   5.600  14.167
   11BGLC    C228269   0.359   5.434  14.339
   11BGLC    H228270   0.465   5.407  14.319
   11BGLC    O228271   0.294   5.316  14.386
   11BGLC   HO228272   0.263   5.268  14.309
   11BGLC    C328273   0.358   5.542  14.446
   11BGLC    H328274   0.254   5.567  14.475
   11BGLC    O328275   0.435   5.497  14.560
   11BGLC    C428276   0.430   5.663  14.393
   11BGLC    H428277   0.536   5.637  14.373
   11BGLC    O428278   0.428   5.769  14.488
   11BGLC   HO428279   0.501   5.759  14.549
   11BGLC    C628280   0.436   5.828  14.198
   11BGLC   H6128281   0.532   5.850  14.249
   11BGLC   H6228282   0.460   5.806  14.092
   11BGLC    O628283   0.354   5.946  14.200
   11BGLC   HO628284   0.360   5.989  14.115
   12BGLCN   C128285   0.368   5.479  14.682
   12BGLCN   H128286   0.297   5.394  14.673
   12BGLCN   C528287   0.236   5.590  14.848
   12BGLCN   H528288   0.160   5.509  14.847
   12BGLCN   O528289   0.299   5.599  14.720
   12BGLCN   C228290   0.478   5.450  14.784
   12BGLCN   H228291   0.541   5.542  14.787
   12BGLCN    N28292   0.563   5.340  14.739
   12BGLCN   HN28293   0.520   5.273  14.679
   12BGLCN    C28294   0.695   5.333  14.759
   12BGLCN    O28295   0.758   5.413  14.827
   12BGLCN   CT28296   0.765   5.217  14.693
   12BGLCN  HT128297   0.842   5.176  14.762
   12BGLCN  HT228298   0.814   5.251  14.600
   12BGLCN  HT328299   0.693   5.136  14.668
   12BGLCN   C328300   0.418   5.432  14.923
   12BGLCN   H328301   0.348   5.346  14.920
   12BGLCN   O328302   0.519   5.409  15.024
   12BGLCN   C428303   0.341   5.560  14.954
   12BGLCN   H428304   0.414   5.644  14.953
   12BGLCN   O428305   0.281   5.559  15.083
   12BGLCN  HO428306   0.199   5.509  15.082
   12BGLCN   C628307   0.168   5.724  14.868
   12BGLCN  H6128308   0.133   5.734  14.973
   12BGLCN  H6228309   0.241   5.805  14.849
   12BGLCN   O628310   0.055   5.740  14.781
   12BGLCN  HO628311   0.085   5.725  14.691
   13AGAL    C128312   0.483   5.329  15.135
   13AGAL    H128313   0.378   5.349  15.166
   13AGAL    C528314   0.629   5.150  15.071
   13AGAL    H528315   0.660   5.213  14.985
   13AGAL    O528316   0.494   5.188  15.105
   13AGAL    C228317   0.574   5.356  15.254
   13AGAL    H228318   0.547   5.279  15.330
   13AGAL    O228319   0.552   5.485  15.315
   13AGAL    C328320   0.719   5.327  15.218
   13AGAL    H328321   0.744   5.387  15.128
   13AGAL    O328322   0.810   5.366  15.321
   13AGAL   HO328323   0.899   5.378  15.288
   13AGAL    C428324   0.729   5.179  15.184
   13AGAL    H428325   0.831   5.157  15.147
   13AGAL    O428326   0.705   5.094  15.297
   13AGAL   HO428327   0.655   5.019  15.264
   13AGAL    C628328   0.628   5.006  15.020
   13AGAL   H6128329   0.550   4.995  14.942
   13AGAL   H6228330   0.726   4.985  14.972
   13AGAL    O628331   0.606   4.907  15.122
   13AGAL   HO628332   0.651   4.826  15.097
   14ARHM    C128333   0.494   5.483  15.444
   14ARHM    H128334   0.427   5.394  15.451
   14ARHM    C528335   0.477   5.719  15.466
   14ARHM    H528336   0.525   5.734  15.367
   14ARHM    O528337   0.406   5.594  15.466
   14ARHM    C228338   0.600   5.474  15.553
   14ARHM    H228339   0.668   5.390  15.528
   14ARHM    O228340   0.551   5.452  15.687
   14ARHM    C328341   0.679   5.603  15.554
   14ARHM    H328342   0.728   5.615  15.455
   14ARHM    O328343   0.782   5.600  15.653
   14ARHM   HO328344   0.752   5.546  15.726
   14ARHM    C428345   0.584   5.719  15.575
   14ARHM    H428346   0.533   5.706  15.673
   14ARHM    O428347   0.651   5.845  15.578
   14ARHM   HO428348   0.620   5.897  15.652
   14ARHM    C628349   0.369   5.827  15.485
   14ARHM   H6128350   0.293   5.819  15.404
   14ARHM   H6228351   0.317   5.813  15.582
   14ARHM   H6328352   0.414   5.928  15.481
   15ARHM    C128353   0.466   5.341  15.705
   15ARHM    H128354   0.497   5.257  15.640
   15ARHM    C528355   0.281   5.484  15.759
   15ARHM    H528356   0.345   5.573  15.743
   15ARHM    O528357   0.329   5.376  15.678
   15ARHM    C228358   0.475   5.298  15.851
   15ARHM    H228359   0.581   5.274  15.873
   15ARHM    O228360   0.396   5.178  15.863
   15ARHM    C328361   0.429   5.410  15.940
   15ARHM    H328362   0.492   5.499  15.916
   15ARHM    O328363   0.449   5.376  16.077
   15ARHM    C428364   0.286   5.444  15.906
   15ARHM    H428365   0.223   5.354  15.920
   15ARHM    O428366   0.234   5.548  15.990
   15ARHM   HO428367   0.152   5.578  15.952
   15ARHM    C628368   0.140   5.519  15.709
   15ARHM   H6128369   0.099   5.608  15.762
   15ARHM   H6228370   0.143   5.542  15.601
   15ARHM   H6328371   0.072   5.432  15.724
   16BMANN   C128372   0.396   5.109  15.985
   16BMANN   H128373   0.345   5.168  16.063
   16BMANN   C528374   0.527   5.000  16.153
   16BMANN   H528375   0.472   5.060  16.229
   16BMANN   O528376   0.529   5.073  16.028
   16BMANN   C228377   0.317   4.983  15.957
   16BMANN   H228378   0.213   5.016  15.934
   16BMANN    N28379   0.367   4.911  15.841
   16BMANN   HN28380   0.464   4.922  15.820
   16BMANN    C28381   0.291   4.840  15.758
   16BMANN    O28382   0.170   4.828  15.773
   16BMANN   CT28383   0.362   4.773  15.643
   16BMANN  HT128384   0.305   4.683  15.614
   16BMANN  HT228385   0.465   4.745  15.673
   16BMANN  HT328386   0.366   4.843  15.557
   16BMANN   C328387   0.311   4.900  16.084
   16BMANN   H328388   0.261   4.962  16.163
   16BMANN   O328389   0.233   4.782  16.069
   16BMANN  HO328390   0.224   4.742  16.156
   16BMANN   C428391   0.451   4.869  16.132
   16BMANN   H428392   0.504   4.812  16.053
   16BMANN   O428393   0.451   4.790  16.250
   16BMANN  HO428394   0.478   4.701  16.225
   16BMANN   C628395   0.668   4.980  16.202
   16BMANN  H6128396   0.670   4.908  16.288
   16BMANN  H6228397   0.731   4.937  16.121
   16BMANN   O628398   0.726   5.103  16.248
   16BMANN  HO628399   0.821   5.097  16.236
   17BGLCN   C128400   0.503   5.482  16.152
   17BGLCN   H128401   0.444   5.575  16.134
   17BGLCN   C528402   0.698   5.611  16.193
   17BGLCN   H528403   0.641   5.704  16.172
   17BGLCN   O528404   0.640   5.503  16.119
   17BGLCN   C228405   0.494   5.441  16.296
   17BGLCN   H228406   0.563   5.355  16.309
   17BGLCN    N28407   0.360   5.395  16.328
   17BGLCN   HN28408   0.289   5.427  16.266
   17BGLCN    C28409   0.332   5.308  16.425
   17BGLCN    O28410   0.416   5.255  16.496
   17BGLCN   CT28411   0.185   5.277  16.443
   17BGLCN  HT128412   0.161   5.182  16.390
   17BGLCN  HT228413   0.123   5.358  16.401
   17BGLCN  HT328414   0.163   5.265  16.551
   17BGLCN   C328415   0.546   5.557  16.381
   17BGLCN   H328416   0.490   5.647  16.347
   17BGLCN   O328417   0.520   5.537  16.522
   17BGLCN   C428418   0.692   5.580  16.343
   17BGLCN   H428419   0.747   5.486  16.362
   17BGLCN   O428420   0.754   5.684  16.418
   17BGLCN  HO428421   0.848   5.668  16.423
   17BGLCN   C628422   0.840   5.632  16.146
   17BGLCN  H6128423   0.882   5.727  16.187
   17BGLCN  H6228424   0.899   5.548  16.189
   17BGLCN   O628425   0.857   5.629  16.004
   17BGLCN  HO628426   0.839   5.714  15.964
   18AGAL    C128427   0.503   5.656  16.597
   18AGAL    H128428   0.599   5.712  16.603
   18AGAL    C528429   0.274   5.681  16.531
   18AGAL    H528430   0.284   5.583  16.481
   18AGAL    O528431   0.404   5.743  16.537
   18AGAL    C228432   0.458   5.630  16.739
   18AGAL    H228433   0.445   5.731  16.784
   18AGAL    O228434   0.559   5.562  16.816
   18AGAL    C328435   0.322   5.560  16.740
   18AGAL    H328436   0.333   5.466  16.681
   18AGAL    O328437   0.278   5.523  16.871
   18AGAL   HO328438   0.208   5.458  16.867
   18AGAL    C428439   0.221   5.651  16.671
   18AGAL    H428440   0.125   5.597  16.661
   18AGAL    O428441   0.197   5.769  16.747
   18AGAL   HO428442   0.178   5.744  16.837
   18AGAL    C628443   0.185   5.763  16.440
   18AGAL   H6128444   0.225   5.758  16.337
   18AGAL   H6228445   0.082   5.722  16.439
   18AGAL    O628446   0.180   5.900  16.478
   18AGAL   HO628447   0.251   5.914  16.541
   19ARHM    C128448   0.565   5.606  16.950
   19ARHM    H128449   0.467   5.648  16.981
   19ARHM    C528450   0.797   5.664  16.943
   19ARHM    H528451   0.803   5.634  16.836
   19ARHM    O528452   0.663   5.708  16.972
   19ARHM    C228453   0.595   5.485  17.036
   19ARHM    H228454   0.528   5.403  17.004
   19ARHM    O228455   0.569   5.513  17.176
   19ARHM    C328456   0.735   5.434  17.008
   19ARHM    H328457   0.741   5.403  16.901
   19ARHM    O328458   0.766   5.320  17.087
   19ARHM   HO328459   0.861   5.312  17.085
   19ARHM    C428460   0.834   5.546  17.031
   19ARHM    H428461   0.827   5.577  17.137
   19ARHM    O428462   0.969   5.504  17.006
   19ARHM   HO428463   0.989   5.514  16.913
   19ARHM    C628464   0.890   5.785  16.965
   19ARHM   H6128465   0.865   5.866  16.894
   19ARHM   H6228466   0.879   5.824  17.069
   19ARHM   H6328467   0.996   5.757  16.949
   20ARHM    C128468   0.431   5.518  17.205
   20ARHM    H128469   0.373   5.474  17.122
   20ARHM    C528470   0.432   5.717  17.337
   20ARHM    H528471   0.543   5.720  17.330
   20ARHM    O528472   0.379   5.651  17.221
   20ARHM    C228473   0.403   5.435  17.328
   20ARHM    H228474   0.461   5.340  17.320
   20ARHM    O228475   0.263   5.402  17.338
   20ARHM    C328476   0.455   5.502  17.452
   20ARHM    H328477   0.565   5.512  17.443
   20ARHM    O328478   0.421   5.421  17.565
   20ARHM    C428479   0.392   5.639  17.462
   20ARHM    H428480   0.281   5.628  17.462
   20ARHM    O428481   0.429   5.709  17.581
   20ARHM   HO428482   0.376   5.788  17.586
   20ARHM    C628483   0.381   5.862  17.336
   20ARHM   H6128484   0.270   5.864  17.343
   20ARHM   H6228485   0.422   5.920  17.422
   20ARHM   H6328486   0.413   5.913  17.243
   21BMANN   C128487   0.228   5.289  17.262
   21BMANN   H128488   0.313   5.257  17.198
   21BMANN   C528489   0.090   5.204  17.088
   21BMANN   H528490   0.184   5.176  17.036
   21BMANN   O528491   0.118   5.317  17.174
   21BMANN   C228492   0.194   5.176  17.358
   21BMANN   H228493   0.290   5.152  17.410
   21BMANN    N28494   0.100   5.216  17.463
   21BMANN   HN28495   0.048   5.299  17.448
   21BMANN    C28496   0.097   5.162  17.586
   21BMANN    O28497   0.155   5.058  17.614
   21BMANN   CT28498   0.015   5.233  17.690
   21BMANN  HT128499   8.051   5.220  17.669
   21BMANN  HT228500   0.040   5.341  17.691
   21BMANN  HT328501   0.039   5.190  17.790
   21BMANN   C328502   0.160   5.054  17.273
   21BMANN   H328503   0.250   5.029  17.213
   21BMANN   O328504   0.132   4.939  17.353
   21BMANN  HO328505   0.068   4.963  17.420
   21BMANN   C428506   0.048   5.087  17.176
   21BMANN   H428507   8.103   5.118  17.234
   21BMANN   O428508   0.011   4.976  17.094
   21BMANN  HO428509   8.067   4.946  17.122
   21BMANN   C628510   8.135   5.239  16.978
   21BMANN  H6128511   8.128   5.155  16.906
   21BMANN  H6228512   8.034   5.253  17.020
   21BMANN   O628513   0.029   5.357  16.905
   21BMANN  HO628514   8.101   5.419  16.909
   22BGLCN   C128515   0.519   5.415  17.664
   22BGLCN   H128516   0.583   5.507  17.664
   22BGLCN   C528517   0.696   5.282  17.751
   22BGLCN   H528518   0.761   5.372  17.755
   22BGLCN   O528519   0.598   5.297  17.647
   22BGLCN   C228520   0.441   5.405  17.793
   22BGLCN   H228521   0.381   5.312  17.788
   22BGLCN    N28522   0.349   5.517  17.803
   22BGLCN   HN28523   0.375   5.597  17.749
   22BGLCN    C28524   0.229   5.516  17.863
   22BGLCN    O28525   0.182   5.418  17.920
   22BGLCN   CT28526   0.150   5.644  17.856
   22BGLCN  HT128527   0.080   5.639  17.769
   22BGLCN  HT228528   0.218   5.731  17.843
   22BGLCN  HT328529   0.092   5.656  17.949
   22BGLCN   C328530   0.539   5.392  17.909
   22BGLCN   H328531   0.606   5.481  17.906
   22BGLCN   O328532   0.464   5.394  18.031
   22BGLCN   C428533   0.623   5.268  17.885
   22BGLCN   H428534   0.555   5.181  17.878
   22BGLCN   O428535   0.717   5.240  17.988
   22BGLCN  HO428536   0.715   5.146  18.004
   22BGLCN   C628537   0.780   5.162  17.714
   22BGLCN  H6128538   0.858   5.144  17.791
   22BGLCN  H6228539   0.716   5.072  17.708
   22BGLCN   O628540   0.845   5.183  17.588
   22BGLCN  HO628541   0.779   5.212  17.525
   23AGAL    C128542   0.532   5.429  18.149
   23AGAL    H128543   0.602   5.348  18.178
   23AGAL    C528544   0.522   5.665  18.106
   23AGAL    H528545   0.463   5.642  18.014
   23AGAL    O528546   0.606   5.552  18.136
   23AGAL    C228547   0.431   5.445  18.262
   23AGAL    H228548   0.487   5.465  18.356
   23AGAL    O228549   0.352   5.325  18.279
   23AGAL    C328550   0.340   5.563  18.237
   23AGAL    H328551   0.282   5.542  18.144
   23AGAL    O328552   0.246   5.581  18.343
   23AGAL   HO328553   0.293   5.628  18.412
   23AGAL    C428554   0.422   5.689  18.219
   23AGAL    H428555   0.355   5.772  18.188
   23AGAL    O428556   0.488   5.729  18.339
   23AGAL   HO428557   0.566   5.778  18.310
   23AGAL    C628558   0.609   5.785  18.071
   23AGAL   H6128559   0.669   5.762  17.980
   23AGAL   H6228560   0.543   5.872  18.046
   23AGAL    O628561   0.697   5.824  18.176
   23AGAL   HO628562   0.772   5.763  18.175
   24ARHM    C128563   0.404   5.228  18.366
   24ARHM    H128564   0.514   5.241  18.373
   24ARHM    C528565   0.245   5.061  18.308
   24ARHM    H528566   0.196   5.126  18.232
   24ARHM    O528567   0.383   5.095  18.317
   24ARHM    C228568   0.340   5.247  18.502
   24ARHM    H228569   0.352   5.354  18.532
   24ARHM    O228570   0.399   5.160  18.600
   24ARHM    C328571   0.193   5.218  18.494
   24ARHM    H328572   0.146   5.288  18.422
   24ARHM    O328573   0.132   5.237  18.622
   24ARHM   HO328574   0.176   5.178  18.684
   24ARHM    C428575   0.176   5.076  18.443
   24ARHM    H428576   0.224   5.006  18.514
   24ARHM    O428577   0.038   5.042  18.433
   24ARHM   HO428578   0.028   4.947  18.431
   24ARHM    C628579   0.247   4.916  18.258
   24ARHM   H6128580   0.144   4.875  18.246
   24ARHM   H6228581   0.298   4.910  18.159
   24ARHM   H6328582   0.303   4.851  18.329
   25ARHM    C128583   0.516   5.213  18.657
   25ARHM    H128584   0.559   5.289  18.588
   25ARHM    C528585   0.587   5.015  18.768
   25ARHM    H528586   0.496   4.961  18.734
   25ARHM    O528587   0.621   5.116  18.673
   25ARHM    C228588   0.480   5.279  18.786
   25ARHM    H228589   0.389   5.341  18.771
   25ARHM    O228590   0.584   5.363  18.836
   25ARHM    C328591   0.443   5.176  18.889
   25ARHM    H328592   0.353   5.121  18.854
   25ARHM    O328593   0.414   5.246  19.010
   25ARHM    C428594   0.558   5.079  18.905
   25ARHM    H428595   0.649   5.135  18.937
   25ARHM    O428596   0.529   4.980  19.004
   25ARHM   HO428597   0.611   4.945  19.039
   25ARHM    C628598   0.705   4.916  18.768
   25ARHM   H6128599   0.718   4.874  18.666
   25ARHM   H6228600   0.798   4.968  18.798
   25ARHM   H6328601   0.686   4.832  18.838
   26BMANN   C128602   0.591   5.488  18.774
   26BMANN   H128603   0.492   5.520  18.734
   26BMANN   C528604   0.705   5.614  18.606
   26BMANN   H528605   0.604   5.649  18.575
   26BMANN   O528606   0.688   5.485  18.668
   26BMANN   C228607   0.635   5.582  18.884
   26BMANN   H228608   0.547   5.590  18.952
   26BMANN    N28609   0.747   5.532  18.962
   26BMANN   HN28610   0.818   5.485  18.910
   26BMANN    C28611   0.760   5.545  19.095
   26BMANN    O28612   0.672   5.592  19.167
   26BMANN   CT28613   0.890   5.497  19.154
   26BMANN  HT128614   0.924   5.405  19.101
   26BMANN  HT228615   0.875   5.474  19.262
   26BMANN  HT328616   0.966   5.576  19.144
   26BMANN   C328617   0.656   5.718  18.824
   26BMANN   H328618   0.560   5.750  18.778
   26BMANN   O328619   0.685   5.816  18.923
   26BMANN  HO328620   0.772   5.803  18.962
   26BMANN   C428621   0.758   5.711  18.712
   26BMANN   H428622   0.854   5.671  18.752
   26BMANN   O428623   0.786   5.839  18.657
   26BMANN  HO428624   0.816   5.893  18.731
   26BMANN   C628625   0.785   5.601  18.478
   26BMANN  H6128626   0.749   5.512  18.421
   26BMANN  H6228627   0.768   5.690  18.414
   26BMANN   O628628   0.926   5.587  18.499
   26BMANN  HO628629   0.962   5.673  18.523
   27BGLCN   C128630   0.310   5.192  19.085
   27BGLCN   H128631   0.309   5.081  19.078
   27BGLCN   C528632   0.075   5.198  19.122
   27BGLCN   H528633   0.071   5.087  19.113
   27BGLCN   O528634   0.185   5.247  19.043
   27BGLCN   C228635   0.339   5.236  19.227
   27BGLCN   H228636   0.334   5.347  19.229
   27BGLCN    N28637   0.475   5.197  19.266
   27BGLCN   HN28638   0.515   5.121  19.216
   27BGLCN    C28639   0.551   5.265  19.353
   27BGLCN    O28640   0.511   5.366  19.411
   27BGLCN   CT28641   0.690   5.213  19.377
   27BGLCN  HT128642   0.705   5.116  19.325
   27BGLCN  HT228643   0.706   5.200   0.013
   27BGLCN  HT328644   0.763   5.287  19.339
   27BGLCN   C328645   0.231   5.184  19.319
   27BGLCN   H328646   0.231   5.073  19.312
   27BGLCN   O328647   0.265   5.225  19.453
   27BGLCN   C428648   0.098   5.236  19.268
   27BGLCN   H428649   0.099   5.347  19.275
   27BGLCN   O428650   8.133   5.187  19.346
   27BGLCN  HO428651   8.128   5.091  19.335
   27BGLCN   C628652   8.091   5.257  19.065
   27BGLCN  H6128653   8.008   5.241  19.137
   27BGLCN  H6228654   8.104   5.366  19.051
   27BGLCN   O628655   8.051   5.199  18.940
   27BGLCN  HO628656   7.956   5.212  18.933
   28AGAL    C128657   0.198   5.165   0.088
   28AGAL    H128658   0.094   5.205   0.094
   28AGAL    C528659   0.323   4.961   0.071
   28AGAL    H528660   0.386   5.011  19.467
   28AGAL    O528661   0.192   5.022   0.072
   28AGAL    C228662   0.264   5.195   0.223
   28AGAL    H228663   0.201   5.139   0.294
   28AGAL    O228664   0.263   5.335   0.263
   28AGAL    C328665   0.404   5.134   0.226
   28AGAL    H328666   0.463   5.179   0.144
   28AGAL    O328667   0.474   5.163   0.347
   28AGAL   HO328668   0.548   5.220   0.327
   28AGAL    C428669   0.393   4.984   0.205
   28AGAL    H428670   0.495   4.941   0.199
   28AGAL    O428671   0.324   4.920   0.311
   28AGAL   HO428672   0.379   4.928   0.389
   28AGAL    C628673   0.316   4.815   0.028
   28AGAL   H6128674   0.309   4.811  19.390
   28AGAL   H6228675   0.409   4.762   0.057
   28AGAL    O628676   0.204   4.744   0.082
   28AGAL   HO628677   0.155   4.706   0.008
   29ARHM    C128678   0.237   5.352   0.402
   29ARHM    H128679   0.248   5.254   0.453
   29ARHM    C528680   0.086   5.535   0.377
   29ARHM    H528681   0.097   5.535   0.267
   29ARHM    O528682   0.104   5.401   0.426
   29ARHM    C228683   0.336   5.445   0.471
   29ARHM    H228684   0.439   5.406   0.453
   29ARHM    O228685   0.308   5.446   0.613
   29ARHM    C328686   0.327   5.584   0.415
   29ARHM    H328687   0.348   5.581   0.306
   29ARHM    O328688   0.423   5.670   0.475
   29ARHM   HO328689   0.424   5.753   0.426
   29ARHM    C428690   0.186   5.633   0.439
   29ARHM    H428691   0.167   5.638   0.548
   29ARHM    O428692   0.165   5.764   0.384
   29ARHM   HO428693   0.156   5.757   0.289
   29ARHM    C628694   8.086   5.572   0.416
   29ARHM   H6128695   8.012   5.504   0.368
   29ARHM   H6228696   8.073   5.565   0.526
   29ARHM   H6328697   8.062   5.676   0.385
   30ARHM    C128698   0.398   5.371   0.691
   30ARHM    H128699   0.501   5.400   0.663
   30ARHM    C528700   0.251   5.182   0.707
   30ARHM    H528701   0.173   5.235   0.648
   30ARHM    O528702   0.381   5.230   0.670
   30ARHM    C228703   0.376   5.400   0.839
   30ARHM    H228704   0.382   5.510   0.855
   30ARHM    O228705   0.476   5.333   0.917
   30ARHM    C328706   0.238   5.353   0.883
   30ARHM    H328707   0.164   5.407   0.821
   30ARHM    O328708   0.210   5.389   1.021
   30ARHM    C428709   0.224   5.205   0.854
   30ARHM    H428710   0.296   5.146   0.914
   30ARHM    O428711   0.092   5.160   0.884
   30ARHM   HO428712   0.030   5.211   0.831
   30ARHM    C628713   0.251   5.034   0.667
   30ARHM   H6128714   0.153   4.986   0.689
   30ARHM   H6228715   0.271   5.024   0.558
   30ARHM   H6328716   0.331   4.980   0.722
   31BMANN   C128717   0.599   5.398   0.930
   31BMANN   H128718   0.586   5.506   0.954
   31BMANN   C528719   0.810   5.441   0.826
   31BMANN   H528720   0.797   5.548   0.853
   31BMANN   O528721   0.680   5.382   0.813
   31BMANN   C228722   0.666   5.324   1.044
   31BMANN   H228723   0.606   5.347   1.135
   31BMANN    N28724   0.663   5.180   1.025
   31BMANN   HN28725   0.656   5.149   0.930
   31BMANN    C28726   0.670   5.091   1.125
   31BMANN    O28727   0.675   5.127   1.242
   31BMANN   CT28728   0.670   4.946   1.088
   31BMANN  HT128729   0.751   4.925   1.014
   31BMANN  HT228730   0.572   4.917   1.044
   31BMANN  HT328731   0.688   4.885   1.179
   31BMANN   C328732   0.804   5.382   1.066
   31BMANN   H328733   0.795   5.489   1.093
   31BMANN   O328734   0.871   5.317   1.174
   31BMANN  HO328735   0.809   5.264   1.223
   31BMANN   C428736   0.883   5.370   0.938
   31BMANN   H428737   0.895   5.263   0.911
   31BMANN   O428738   1.013   5.425   0.954
   31BMANN  HO428739   1.031   5.414   1.047
   31BMANN   C628740   0.890   5.436   0.696
   31BMANN  H6128741   0.979   5.501   0.705
   31BMANN  H6228742   0.926   5.332   0.682
   31BMANN   O628743   0.815   5.474   0.580
   31BMANN  HO628744   0.794   5.568   0.582
   32BGLCN   C128745   0.262   5.308   1.125
   32BGLCN   H128746   0.361   5.266   1.098
   32BGLCN   C528747   0.232   5.114   1.264
   32BGLCN   H528748   0.329   5.073   1.229
   32BGLCN   O528749   0.175   5.199   1.161
   32BGLCN   C228750   0.277   5.396   1.248
   32BGLCN   H228751   0.174   5.416   1.284
   32BGLCN    N28752   0.337   5.525   1.217
   32BGLCN   HN28753   0.397   5.529   1.138
   32BGLCN    C28754   0.301   5.639   1.279
   32BGLCN    O28755   0.226   5.641   1.375
   32BGLCN   CT28756   0.361   5.766   1.224
   32BGLCN  HT128757   0.418   5.746   1.131
   32BGLCN  HT228758   0.428   5.811   1.299
   32BGLCN  HT328759   0.279   5.837   1.201
   32BGLCN   C328760   0.348   5.314   1.356
   32BGLCN   H328761   0.442   5.275   1.311
   32BGLCN   O328762   0.382   5.389   1.474
   32BGLCN   C428763   0.258   5.198   1.389
   32BGLCN   H428764   0.160   5.237   1.426
   32BGLCN   O428765   0.313   5.118   1.493
   32BGLCN  HO428766   0.316   5.171   1.573
   32BGLCN   C628767   0.137   4.998   1.288
   32BGLCN  H6128768   0.169   4.943   1.379
   32BGLCN  H6228769   0.034   5.035   1.306
   32BGLCN   O628770   0.135   4.904   1.180
   32BGLCN  HO628771   0.160   4.818   1.215
   33AGAL    C128772   0.511   5.359   1.524
   33AGAL    H128773   0.534   5.251   1.512
   33AGAL    C528774   0.600   5.577   1.476
   33AGAL    H528775   0.498   5.607   1.443
   33AGAL    O528776   0.612   5.434   1.455
   33AGAL    C228777   0.520   5.391   1.673
   33AGAL    H228778   0.623   5.364   1.705
   33AGAL    O228779   0.428   5.307   1.746
   33AGAL    C328780   0.500   5.540   1.697
   33AGAL    H328781   0.401   5.567   1.653
   33AGAL    O328782   0.494   5.577   1.834
   33AGAL   HO328783   0.583   5.587   1.868
   33AGAL    C428784   0.609   5.615   1.623
   33AGAL    H428785   0.589   5.724   1.632
   33AGAL    O428786   0.738   5.591   1.678
   33AGAL   HO428787   0.752   5.646   1.755
   33AGAL    C628788   0.699   5.650   1.387
   33AGAL   H6128789   0.672   5.633   1.280
   33AGAL   H6228790   0.694   5.759   1.407
   33AGAL    O628791   0.833   5.606   1.407
   33AGAL   HO628792   0.842   5.587   1.501
   34ARHM    C128793   0.477   5.262   1.871
   34ARHM    H128794   0.523   5.347   1.927
   34ARHM    C528795   0.524   5.040   1.793
   34ARHM    H528796   0.495   5.065   1.689
   34ARHM    O528797   0.574   5.158   1.857
   34ARHM    C228798   0.357   5.211   1.948
   34ARHM    H228799   0.282   5.293   1.950
   34ARHM    O228800   0.385   5.170   2.083
   34ARHM    C328801   0.297   5.093   1.876
   34ARHM    H328802   0.269   5.122   1.773
   34ARHM    O328803   0.178   5.048   1.940
   34ARHM   HO328804   0.163   4.957   1.911
   34ARHM    C428805   0.403   4.985   1.868
   34ARHM    H428806   0.435   4.958   1.971
   34ARHM    O428807   0.354   4.867   1.805
   34ARHM   HO428808   0.389   4.790   1.851
   34ARHM    C628809   0.643   4.944   1.789
   34ARHM   H6128810   0.677   4.920   1.892
   34ARHM   H6228811   0.616   4.849   1.738
   34ARHM   H6328812   0.728   4.990   1.735
   35ARHM    C128813   0.429   5.268   2.173
   35ARHM    H128814   0.374   5.363   2.156
   35ARHM    C528815   0.646   5.169   2.180
   35ARHM    H528816   0.617   5.095   2.103
   35ARHM    O528817   0.570   5.290   2.163
   35ARHM    C228818   0.399   5.213   2.312
   35ARHM    H228819   0.291   5.191   2.318
   35ARHM    O228820   0.435   5.302   2.419
   35ARHM    C328821   0.474   5.082   2.332
   35ARHM    H328822   0.445   5.012   2.251
   35ARHM    O328823   0.439   5.017   2.454
   35ARHM   HO328824   0.424   5.083   2.522
   35ARHM    C428825   0.622   5.109   2.318
   35ARHM    H428826   0.655   5.183   2.395
   35ARHM    O428827   0.699   4.990   2.336
   35ARHM   HO428828   0.641   4.921   2.368
   35ARHM    C628829   0.792   5.208   2.154
   35ARHM   H6128830   0.803   5.249   2.051
   35ARHM   H6228831   0.825   5.284   2.227
   35ARHM   H6328832   0.858   5.119   2.163
   36BMANN   C128833   0.365   5.424   2.420
   36BMANN   H128834   0.260   5.407   2.388
   36BMANN   C528835   0.356   5.647   2.334
   36BMANN   H528836   0.253   5.624   2.298
   36BMANN   O528837   0.428   5.522   2.337
   36BMANN   C228838   0.366   5.477   2.563
   36BMANN   H228839   0.315   5.401   2.626
   36BMANN    N28840   0.502   5.491   2.614
   36BMANN   HN28841   0.575   5.482   2.547
   36BMANN    C28842   0.535   5.510   2.743
   36BMANN    O28843   0.453   5.514   2.834
   36BMANN   CT28844   0.681   5.530   2.772
   36BMANN  HT128845   0.720   5.616   2.713
   36BMANN  HT228846   0.737   5.438   2.745
   36BMANN  HT328847   0.695   5.551   2.880
   36BMANN   C328848   0.283   5.604   2.564
   36BMANN   H328849   0.183   5.580   2.524
   36BMANN   O328850   0.262   5.654   2.696
   36BMANN  HO328851   0.323   5.610   2.756
   36BMANN   C428852   0.347   5.707   2.473
   36BMANN   H428853   0.448   5.732   2.510
   36BMANN   O428854   0.269   5.827   2.470
   36BMANN  HO428855   0.231   5.835   2.558
   36BMANN   C628856   0.418   5.738   2.229
   36BMANN  H6128857   0.447   5.678   2.141
   36BMANN  H6228858   0.343   5.812   2.196
   36BMANN   O628859   0.533   5.810   2.277
   36BMANN  HO628860   0.503   5.892   2.317
    1ECLIP HB6S28861   2.636   0.418  11.817
    1ECLIP  OB628862   2.793   0.489  11.935
    1ECLIP  CB628863   2.686   0.515  11.841
    1ECLIP HB6R28864   2.611   0.583  11.886
    1ECLIP  CB528865   2.727   0.579  11.711
    1ECLIP  OB528866   2.839   0.509  11.656
    1ECLIP  HB528867   2.758   0.683  11.734
    1ECLIP  CB128868   2.895   0.577  11.543
    1ECLIP  HB128869   2.928   0.678  11.574
    1ECLIP  OA628870   3.003   0.510  11.485
    1ECLIP  CA628871   3.025   0.377  11.533
    1ECLIP HA6R28872   2.929   0.325  11.551
    1ECLIP HA6S28873   3.082   0.382  11.629
    1ECLIP  CB428874   2.616   0.584  11.604
    1ECLIP  HB428875   2.598   0.479  11.570
    1ECLIP  OB428876   2.499   0.639  11.665
    1ECLIP   PB28877   2.349   0.574  11.650
    1ECLIP OPB428878   2.265   0.591  11.775
    1ECLIP OPB328879   2.353   0.426  11.617
    1ECLIP OPB228880   2.277   0.633  11.530
    1ECLIP  CB328881   2.672   0.664  11.486
    1ECLIP  OB328882   2.572   0.680  11.384
    1ECLIP  HB328883   2.704   0.762  11.528
    1ECLIP  C7128884   2.587   0.789  11.307
    1ECLIP  O7128885   2.674   0.873  11.321
    1ECLIP  C7228886   2.495   0.787  11.187
    1ECLIP H72R28887   2.559   0.781  11.096
    1ECLIP H72S28888   2.440   0.883  11.186
    1ECLIP  CB228889   2.794   0.589  11.431
    1ECLIP  HB228890   2.760   0.485  11.408
    1ECLIP  NB228891   2.857   0.644  11.310
    1ECLIP HNB228892   2.919   0.721  11.325
    1ECLIP  CA428893   3.200   0.385  11.348
    1ECLIP  HA428894   3.147   0.472  11.304
    1ECLIP  OA428895   3.306   0.430  11.432
    1ECLIP HOA428896   3.380   0.370  11.418
    1ECLIP  CA528897   3.104   0.300  11.429
    1ECLIP  HA528898   3.159   0.218  11.481
    1ECLIP  OA528899   3.003   0.243  11.344
    1ECLIP  CA128900   3.057   0.157  11.243
    1ECLIP  HA128901   2.973   0.115  11.183
    1ECLIP  OA128902   3.132   0.052  11.301
    1ECLIP OPA228903   3.204   8.065  11.503
    1ECLIP OPA328904   2.955   8.068  11.453
    1ECLIP OPA428905   3.135   7.953  11.304
    1ECLIP   PA28906   3.095   8.068  11.395
    1ECLIP  CA328907   3.257   0.303  11.235
    1ECLIP  HA328908   3.304   0.214  11.282
    1ECLIP  OA328909   3.367   0.378  11.184
    1ECLIP  C3128910   3.374   0.455  11.081
    1ECLIP  O3128911   3.299   0.459  10.985
    1ECLIP  C3228912   3.480   0.561  11.115
    1ECLIP H32R28913   3.540   0.579  11.024
    1ECLIP H32S28914   3.548   0.519  11.193
    1ECLIP  CA228915   3.144   0.245  11.149
    1ECLIP  HA228916   3.082   0.331  11.115
    1ECLIP  NA228917   3.191   0.175  11.031
    1ECLIP HNA228918   3.287   0.146  11.033
    1ECLIP  C7328919   2.396   0.670  11.190
    1ECLIP H73R28920   2.340   0.677  11.286
    1ECLIP  O7328921   2.470   0.550  11.177
    1ECLIP  C8128922   2.430   0.447  11.249
    1ECLIP  O8128923   2.322   0.441  11.309
    1ECLIP  C8228924   2.499   0.321  11.198
    1ECLIP H82R28925   2.444   0.234  11.239
    1ECLIP H82S28926   2.603   0.320  11.238
    1ECLIP  C8328927   2.502   0.315  11.044
    1ECLIP H83R28928   2.571   0.393  11.008
    1ECLIP H83S28929   2.401   0.336  11.001
    1ECLIP  C8428930   2.550   0.180  10.992
    1ECLIP H84R28931   2.472   0.102  11.009
    1ECLIP H84S28932   2.641   0.150  11.048
    1ECLIP  C8528933   2.585   0.189  10.843
    1ECLIP H85R28934   2.668   0.262  10.833
    1ECLIP H85S28935   2.498   0.228  10.787
    1ECLIP  C8628936   2.630   0.056  10.782
    1ECLIP H86R28937   2.543   8.132  10.774
    1ECLIP H86S28938   2.704   0.008  10.851
    1ECLIP  C8728939   2.697   0.074  10.645
    1ECLIP H87R28940   2.717   8.117  10.601
    1ECLIP H87S28941   2.795   0.124  10.660
    1ECLIP  C8828942   2.614   0.158  10.548
    1ECLIP H88R28943   2.606   0.261  10.590
    1ECLIP H88S28944   2.511   0.117  10.541
    1ECLIP  C8928945   2.675   0.170  10.408
    1ECLIP H89R28946   2.784   0.189  10.417
    1ECLIP H89S28947   2.629   0.260  10.361
    1ECLIP C81028948   2.649   0.048  10.319
    1ECLIPH810R28949   2.541   0.023  10.321
    1ECLIPH810S28950   2.704   8.105  10.362
    1ECLIP C81128951   2.694   0.068  10.173
    1ECLIPH811R28952   2.686   8.116  10.119
    1ECLIPH811S28953   2.801   0.098  10.174
    1ECLIP C81228954   2.616   0.176  10.096
    1ECLIPH812R28955   2.667   0.196  10.000
    1ECLIPH812S28956   2.617   0.271  10.154
    1ECLIP C81328957   2.470   0.140  10.066
    1ECLIPH813R28958   2.467   0.052   9.998
    1ECLIPH813S28959   2.418   0.112  10.160
    1ECLIP C81428960   2.395   0.257  10.002
    1ECLIPH814R28961   2.451   0.297   9.915
    1ECLIPH814S28962   2.382   0.339  10.076
    1ECLIPH814T28963   2.294   0.226   9.967
    1ECLIP  C7428964   2.293   0.675  11.074
    1ECLIP H74R28965   2.239   0.772  11.075
    1ECLIP H74S28966   2.220   0.595  11.096
    1ECLIP  C7528967   2.345   0.645  10.931
    1ECLIP H75R28968   2.261   0.599  10.875
    1ECLIP H75S28969   2.426   0.569  10.935
    1ECLIP  C7628970   2.391   0.767  10.851
    1ECLIP H76R28971   2.486   0.806  10.894
    1ECLIP H76S28972   2.315   0.847  10.857
    1ECLIP  C7728973   2.415   0.732  10.703
    1ECLIP H77R28974   2.321   0.692  10.659
    1ECLIP H77S28975   2.492   0.652  10.696
    1ECLIP  C7828976   2.462   0.854  10.622
    1ECLIP H78R28977   2.380   0.930  10.620
    1ECLIP H78S28978   2.547   0.898  10.678
    1ECLIP  C7928979   2.508   0.824  10.479
    1ECLIP H79R28980   2.599   0.760  10.483
    1ECLIP H79S28981   2.538   0.919  10.431
    1ECLIP C71028982   2.404   0.753  10.392
    1ECLIPH710R28983   2.378   0.655  10.438
    1ECLIPH710S28984   2.311   0.815  10.388
    1ECLIP C71128985   2.455   0.729  10.249
    1ECLIPH711R28986   2.478   0.827  10.202
    1ECLIPH711S28987   2.551   0.672  10.255
    1ECLIP C71228988   2.355   0.650  10.163
    1ECLIPH712R28989   2.263   0.710  10.152
    1ECLIPH712S28990   2.328   0.557  10.218
    1ECLIP C71328991   2.410   0.612  10.025
    1ECLIPH713R28992   2.501   0.550  10.039
    1ECLIPH713S28993   2.334   0.550   9.973
    1ECLIP C71428994   2.445   0.732   9.936
    1ECLIPH714R28995   2.356   0.797   9.922
    1ECLIPH714S28996   2.526   0.793   9.981
    1ECLIPH714T28997   2.479   0.697   9.836
    1ECLIP  C5128998   2.848   0.593  11.186
    1ECLIP  O5128999   2.770   0.502  11.159
    1ECLIP  C5229000   2.942   0.652  11.082
    1ECLIP H52R29001   2.919   0.760  11.070
    1ECLIP H52S29002   3.045   0.641  11.120
    1ECLIP  C5329003   2.933   0.583  10.943
    1ECLIP H53R29004   2.940   0.472  10.957
    1ECLIP  O5329005   3.045   0.634  10.870
    1ECLIP  C6129006   3.111   0.551  10.788
    1ECLIP  O6129007   3.068   0.445  10.747
    1ECLIP  C6229008   3.209   0.639  10.707
    1ECLIP H62R29009   3.265   0.705  10.777
    1ECLIP H62S29010   3.144   0.702  10.642
    1ECLIP  C6329011   3.308   0.560  10.618
    1ECLIP H63R29012   3.249   0.486  10.559
    1ECLIP H63S29013   3.379   0.504  10.682
    1ECLIP  C6429014   3.387   0.645  10.516
    1ECLIP H64R29015   3.450   0.576  10.454
    1ECLIP H64S29016   3.455   0.714  10.570
    1ECLIP  C6529017   3.296   0.727  10.423
    1ECLIP H65R29018   3.248   0.804  10.487
    1ECLIP H65S29019   3.215   0.661  10.383
    1ECLIP  C6629020   3.365   0.802  10.308
    1ECLIP H66R29021   3.445   0.867  10.350
    1ECLIP H66S29022   3.289   0.869  10.263
    1ECLIP  C6729023   3.423   0.715  10.196
    1ECLIP H67R29024   3.511   0.658  10.234
    1ECLIP H67S29025   3.460   0.783  10.116
    1ECLIP  C6829026   3.323   0.616  10.134
    1ECLIP H68R29027   3.225   0.667  10.119
    1ECLIP H68S29028   3.307   0.532  10.205
    1ECLIP  C6929029   3.371   0.561   9.999
    1ECLIP H69R29030   3.476   0.527  10.009
    1ECLIP H69S29031   3.370   0.645   9.925
    1ECLIP C61029032   3.285   0.445   9.948
    1ECLIPH610R29033   3.179   0.477   9.942
    1ECLIPH610S29034   3.290   0.362  10.022
    1ECLIP C61129035   3.328   0.390   9.812
    1ECLIPH611R29036   3.434   0.356   9.820
    1ECLIPH611S29037   3.267   0.301   9.788
    1ECLIP C61229038   3.315   0.491   9.697
    1ECLIPH612R29039   3.210   0.526   9.688
    1ECLIPH612S29040   3.380   0.579   9.714
    1ECLIPH612T29041   3.345   0.444   9.601
    1ECLIP  C5429042   2.802   0.619  10.869
    1ECLIP H54R29043   2.803   0.727  10.842
    1ECLIP H54S29044   2.718   0.604  10.941
    1ECLIP  C5529045   2.769   0.533  10.746
    1ECLIP H55R29046   2.659   0.519  10.740
    1ECLIP H55S29047   2.814   0.432  10.760
    1ECLIP  C5629048   2.816   0.593  10.612
    1ECLIP H56R29049   2.925   0.616  10.618
    1ECLIP H56S29050   2.764   0.689  10.594
    1ECLIP  C5729051   2.794   0.496  10.495
    1ECLIP H57R29052   2.684   0.481  10.482
    1ECLIP H57S29053   2.839   0.398  10.522
    1ECLIP  C5829054   2.856   0.545  10.364
    1ECLIP H58R29055   2.817   0.648  10.344
    1ECLIP H58S29056   2.966   0.553  10.376
    1ECLIP  C5929057   2.822   0.455  10.245
    1ECLIP H59R29058   2.711   0.455  10.235
    1ECLIP H59S29059   2.855   0.351  10.265
    1ECLIP C51029060   2.883   0.505  10.113
    1ECLIPH510R29061   2.992   0.483  10.108
    1ECLIPH510S29062   2.873   0.615  10.115
    1ECLIP C51129063   2.811   0.456   9.988
    1ECLIPH511R29064   2.863   0.367   9.946
    1ECLIPH511S29065   2.708   0.423  10.016
    1ECLIP C51229066   2.792   0.565   9.881
    1ECLIPH512R29067   2.734   0.520   9.797
    1ECLIPH512S29068   2.731   0.647   9.922
    1ECLIP C51329069   2.922   0.623   9.824
    1ECLIPH513R29070   2.996   0.541   9.810
    1ECLIPH513S29071   2.969   0.693   9.897
    1ECLIP C51429072   2.899   0.694   9.691
    1ECLIPH514R29073   2.838   0.786   9.706
    1ECLIPH514S29074   2.996   0.723   9.645
    1ECLIPH514T29075   2.846   0.627   9.620
    1ECLIP  C3329076   3.419   0.693  11.166
    1ECLIP H33R29077   3.500   0.760  11.201
    1ECLIP  O3329078   3.330   0.670  11.274
    1ECLIP HO3329079   3.347   0.593  11.329
    1ECLIP  C3429080   3.342   0.765  11.054
    1ECLIP H34R29081   3.266   0.694  11.017
    1ECLIP H34S29082   3.412   0.786  10.970
    1ECLIP  C3529083   3.266   0.895  11.088
    1ECLIP H35R29084   3.335   0.977  11.117
    1ECLIP H35S29085   3.195   0.875  11.171
    1ECLIP  C3629086   3.187   0.931  10.962
    1ECLIP H36R29087   3.137   0.837  10.931
    1ECLIP H36S29088   3.258   0.960  10.881
    1ECLIP  C3729089   3.075   1.035  10.972
    1ECLIP H37R29090   3.120   1.136  10.980
    1ECLIP H37S29091   3.015   1.018  11.064
    1ECLIP  C3829092   2.979   1.029  10.850
    1ECLIP H38R29093   2.890   0.969  10.878
    1ECLIP H38S29094   2.943   1.132  10.827
    1ECLIP  C3929095   3.039   0.965  10.723
    1ECLIP H39R29096   3.054   0.857  10.743
    1ECLIP H39S29097   3.138   1.011  10.700
    1ECLIP C31029098   2.949   0.974  10.599
    1ECLIPH310R29099   2.928   1.081  10.579
    1ECLIPH310S29100   2.854   0.922  10.622
    1ECLIP C31129101   3.008   0.911  10.471
    1ECLIPH311R29102   3.105   0.958  10.448
    1ECLIPH311S29103   3.023   0.802  10.488
    1ECLIP C31229104   2.913   0.930  10.352
    1ECLIPH312R29105   2.814   0.890  10.381
    1ECLIPH312S29106   2.904   1.040  10.337
    1ECLIP C31329107   2.955   0.869  10.219
    1ECLIPH313R29108   3.037   0.929  10.175
    1ECLIPH313S29109   2.995   0.767  10.237
    1ECLIP C31429110   2.837   0.859  10.120
    1ECLIPH314R29111   2.788   0.957  10.098
    1ECLIPH314S29112   2.871   0.819  10.022
    1ECLIPH314T29113   2.758   0.793  10.161
    1ECLIP  C1129114   3.113   0.149  10.924
    1ECLIP  O1129115   2.998   0.191  10.915
    1ECLIP  C1229116   3.168   0.054  10.819
    1ECLIP H12R29117   3.111   8.103  10.831
    1ECLIP H12S29118   3.276   0.033  10.839
    1ECLIP  C1329119   3.150   0.104  10.674
    1ECLIP H13R29120   3.050   0.150  10.662
    1ECLIP  O1329121   3.157   8.134  10.589
    1ECLIP HO1329122   3.142   0.012  10.497
    1ECLIP  C1429123   3.260   0.201  10.627
    1ECLIP H14R29124   3.358   0.162  10.662
    1ECLIP H14S29125   3.243   0.298  10.679
    1ECLIP  C1529126   3.271   0.223  10.474
    1ECLIP H15R29127   3.307   0.128  10.429
    1ECLIP H15S29128   3.351   0.298  10.455
    1ECLIP  C1629129   3.143   0.269  10.401
    1ECLIP H16R29130   3.132   0.379  10.414
    1ECLIP H16S29131   3.053   0.223  10.445
    1ECLIP  C1729132   3.148   0.236  10.250
    1ECLIP H17R29133   3.249   0.262  10.212
    1ECLIP H17S29134   3.074   0.298  10.195
    1ECLIP  C1829135   3.117   0.088  10.221
    1ECLIP H18R29136   3.172   0.027  10.297
    1ECLIP H18S29137   3.009   0.067  10.236
    1ECLIP  C1929138   3.165   0.039  10.084
    1ECLIP H19R29139   3.184   8.074  10.092
    1ECLIP H19S29140   3.263   0.088  10.060
    1ECLIP C11029141   3.067   0.059   9.967
    1ECLIPH110R29142   2.972   0.007   9.991
    1ECLIPH110S29143   3.044   0.167   9.953
    1ECLIP C11129144   3.128   0.000   9.839
    1ECLIPH111R29145   3.211   0.066   9.806
    1ECLIPH111S29146   3.170   8.045   9.865
    1ECLIP C11229147   3.031   8.120   9.722
    1ECLIPH112R29148   2.982   8.022   9.737
    1ECLIPH112S29149   2.952   0.054   9.722
    1ECLIP C11329150   3.104   8.120   9.587
    1ECLIPH113R29151   3.147   0.077   9.571
    1ECLIPH113S29152   3.188   8.049   9.593
    1ECLIP C11429153   3.016   8.083   9.468
    1ECLIPH114R29154   2.933   0.013   9.456
    1ECLIPH114S29155   3.075   8.082   9.374
    1ECLIPH114T29156   2.970   7.983   9.483
    2AKDO    C129157   2.841   0.717  11.997
    2AKDO   O1129158   2.748   0.795  11.964
    2AKDO   O1229159   2.961   0.749  12.022
    2AKDO    C229160   2.797   0.576  12.047
    2AKDO    C629161   2.620   0.456  12.156
    2AKDO    H629162   2.627   0.389  12.067
    2AKDO    O629163   2.669   0.584  12.114
    2AKDO    C329164   2.894   0.511  12.148
    2AKDO   H3129165   2.905   0.578  12.236
    2AKDO   H3229166   2.992   0.500  12.099
    2AKDO    C429167   2.845   0.377  12.195
    2AKDO    H429168   2.831   0.316  12.103
    2AKDO    O429169   2.937   0.312  12.283
    2AKDO    C529170   2.709   0.388  12.262
    2AKDO    H529171   2.672   0.284  12.273
    2AKDO    O529172   2.714   0.449  12.395
    2AKDO    C729173   2.470   0.469  12.175
    2AKDO    H729174   2.447   0.533  12.263
    2AKDO    O729175   2.410   0.340  12.189
    2AKDO   HO729176   2.325   0.352  12.145
    2AKDO    C829177   2.412   0.535  12.049
    2AKDO   H8129178   2.456   0.636  12.035
    2AKDO   H8229179   2.441   0.474  11.960
    2AKDO    O829180   2.270   0.549  12.047
    2AKDO   HO829181   2.254   0.582  11.958
    3AKDO    C129182   3.020   0.139  12.119
    3AKDO   O1129183   3.121   0.079  12.072
    3AKDO   O1229184   2.901   0.096  12.110
    3AKDO    C229185   3.052   0.245  12.233
    3AKDO    C629186   3.193   0.435  12.298
    3AKDO    H629187   3.100   0.490  12.324
    3AKDO    O629188   3.159   0.338  12.194
    3AKDO    C329189   3.099   0.175  12.361
    3AKDO   H3129190   3.189   0.114  12.336
    3AKDO   H3229191   3.021   0.104  12.395
    3AKDO    C429192   3.133   0.270  12.472
    3AKDO    H429193   3.045   0.333  12.497
    3AKDO    O429194   3.168   0.198  12.590
    3AKDO   HO429195   3.094   0.196  12.651
    3AKDO    C529196   3.242   0.363  12.424
    3AKDO    H529197   3.262   0.439  12.503
    3AKDO    O529198   3.364   0.295  12.396
    3AKDO   HO529199   3.351   0.250  12.312
    3AKDO    C729200   3.295   0.540  12.253
    3AKDO    H729201   3.396   0.494  12.246
    3AKDO    O729202   3.299   0.647  12.349
    3AKDO   HO729203   3.287   0.722  12.291
    3AKDO    C829204   3.263   0.600  12.118
    3AKDO   H8129205   3.261   0.521  12.040
    3AKDO   H8229206   3.163   0.648  12.119
    3AKDO    O829207   3.362   0.700  12.083
    3AKDO   HO829208   3.410   0.667  12.007
    4AHEP    C129209   2.620   0.396  12.486
    4AHEP    H129210   2.520   0.411  12.439
    4AHEP    C529211   2.747   0.215  12.582
    4AHEP    H529212   2.833   0.267  12.534
    4AHEP    O529213   2.631   0.254  12.504
    4AHEP    C229214   2.611   0.461  12.625
    4AHEP    H229215   2.626   0.569  12.606
    4AHEP    O229216   2.480   0.453  12.683
    4AHEP   HO229217   2.425   0.514  12.633
    4AHEP    C329218   2.727   0.420  12.717
    4AHEP    H329219   2.821   0.463  12.676
    4AHEP    O329220   2.700   0.467  12.852
    4AHEP    C429221   2.737   0.269  12.727
    4AHEP    H429222   2.646   0.228  12.776
    4AHEP    O429223   2.856   0.238  12.800
    4AHEP    P429224   2.873   0.121  12.917
    4AHEP  OP4229225   3.002   0.148  12.992
    4AHEP  OP4329226   2.876   8.132  12.845
    4AHEP  OP4429227   2.754   0.126  13.011
    4AHEP    C629228   2.776   0.066  12.563
    4AHEP    H629229   2.884   0.050  12.586
    4AHEP    O629230   2.700   8.130  12.654
    4AHEP   HO629231   2.754   8.135  12.733
    4AHEP    C729232   2.751   0.018  12.420
    4AHEP   H7129233   2.787   8.058  12.407
    4AHEP   H7229234   2.809   0.083  12.351
    4AHEP    O729235   2.612   0.025  12.382
    4AHEP   HO729236   2.581   0.097  12.439
    5AHEP    C129237   2.810   0.517  12.924
    5AHEP    H129238   2.904   0.481  12.876
    5AHEP    C529239   2.695   0.719  12.984
    5AHEP    H529240   2.606   0.673  12.937
    5AHEP    O529241   2.811   0.660  12.921
    5AHEP    C229242   2.812   0.479  13.070
    5AHEP    H229243   2.795   0.369  13.073
    5AHEP    O229244   2.944   0.499  13.123
    5AHEP   HO229245   2.989   0.421  13.092
    5AHEP    C329246   2.693   0.540  13.146
    5AHEP    H329247   2.599   0.496  13.107
    5AHEP    O329248   2.703   0.522  13.289
    5AHEP    C429249   2.689   0.690  13.133
    5AHEP    H429250   2.771   0.741  13.187
    5AHEP    O429251   2.558   0.736  13.174
    5AHEP    P429252   2.512   0.820  13.308
    5AHEP  OP4229253   2.359   0.820  13.308
    5AHEP  OP4329254   2.563   0.962  13.293
    5AHEP  OP4429255   2.568   0.750  13.430
    5AHEP    C629256   2.700   0.865  12.944
    5AHEP    H629257   2.616   0.918  12.995
    5AHEP    O629258   2.823   0.927  12.984
    5AHEP   HO629259   2.812   1.022  12.972
    5AHEP    C729260   2.679   0.869  12.792
    5AHEP   H7129261   2.603   0.948  12.776
    5AHEP   H7229262   2.633   0.776  12.754
    5AHEP    O729263   2.794   0.903  12.713
    6AHEP    C129264   2.873   0.792  12.673
    6AHEP    H129265   2.825   0.695  12.700
    6AHEP    C529266   2.948   0.906  12.477
    6AHEP    H529267   2.885   0.991  12.510
    6AHEP    O529268   2.891   0.786  12.532
    6AHEP    C229269   3.009   0.806  12.737
    6AHEP    H229270   2.993   0.813  12.847
    6AHEP    O229271   3.096   0.694  12.716
    6AHEP   HO229272   3.088   0.667  12.624
    6AHEP    C329273   3.069   0.935  12.687
    6AHEP    H329274   2.996   1.016  12.709
    6AHEP    O329275   3.190   0.974  12.752
    6AHEP   HO329276   3.238   1.012  12.678
    6AHEP    C429277   3.086   0.927  12.537
    6AHEP    H429278   3.150   0.840  12.510
    6AHEP    O429279   3.149   1.044  12.484
    6AHEP   HO429280   3.165   1.028  12.391
    6AHEP    C629281   2.944   0.906  12.325
    6AHEP    H629282   2.984   1.002  12.287
    6AHEP    O629283   3.029   0.803  12.275
    6AHEP   HO629284   2.997   0.784  12.186
    6AHEP    C729285   2.801   0.895  12.274
    6AHEP   H7129286   2.798   0.912  12.165
    6AHEP   H7229287   2.746   0.981  12.319
    6AHEP    O729288   2.728   0.777  12.309
    6AHEP   HO729289   2.727   0.723  12.230
    7AGLC    C129290   2.655   0.402  13.340
    7AGLC    H129291   2.558   0.376  13.293
    7AGLC    C529292   2.879   0.325  13.375
    7AGLC    H529293   2.913   0.425  13.341
    7AGLC    O529294   2.749   0.296  13.320
    7AGLC    C229295   2.639   0.418  13.491
    7AGLC    H229296   2.604   0.320  13.530
    7AGLC    O229297   2.535   0.511  13.522
    7AGLC   HO229298   2.555   0.595  13.482
    7AGLC    C329299   2.772   0.450  13.559
    7AGLC    H329300   2.808   0.546  13.516
    7AGLC    O329301   2.764   0.460  13.703
    7AGLC    C429302   2.868   0.338  13.525
    7AGLC    H429303   2.824   0.243  13.562
    7AGLC    O429304   2.997   0.354  13.583
    7AGLC   HO429305   3.031   0.265  13.594
    7AGLC    C629306   2.978   0.224  13.323
    7AGLC   H6129307   2.951   0.201  13.217
    7AGLC   H6229308   3.080   0.266  13.322
    7AGLC    O629309   2.980   0.101  13.396
    7AGLC   HO629310   3.003   0.034  13.331
    8AGLC    C129311   2.808   0.583  13.757
    8AGLC    H129312   2.900   0.618  13.705
    8AGLC    C529313   2.581   0.647  13.801
    8AGLC    H529314   2.549   0.549  13.759
    8AGLC    O529315   2.708   0.684  13.743
    8AGLC    C229316   2.831   0.570  13.907
    8AGLC    H229317   2.855   0.673  13.942
    8AGLC    O229318   2.938   0.486  13.951
    8AGLC    C329319   2.703   0.522  13.975
    8AGLC    H329320   2.672   0.429  13.923
    8AGLC    O329321   2.726   0.485  14.113
    8AGLC    C429322   2.596   0.627  13.952
    8AGLC    H429323   2.626   0.724  13.996
    8AGLC    O429324   2.471   0.586  14.009
    8AGLC   HO429325   2.404   0.641  13.969
    8AGLC    C629326   2.479   0.750  13.756
    8AGLC   H6129327   2.517   0.803  13.666
    8AGLC   H6229328   2.387   0.697  13.722
    8AGLC    O629329   2.443   0.844  13.858
    8AGLC   HO629330   2.364   0.890  13.830
    9AGAL    C129331   3.064   0.492  13.888
    9AGAL    H129332   3.055   0.494  13.777
    9AGAL    C529333   3.163   0.608  14.073
    9AGAL    H529334   3.064   0.613  14.121
    9AGAL    O529335   3.143   0.605  13.931
    9AGAL    C229336   3.131   0.363  13.930
    9AGAL    H229337   3.229   0.355  13.878
    9AGAL    O229338   3.043   0.264  13.876
    9AGAL    C329339   3.152   0.361  14.080
    9AGAL    H329340   3.053   0.366  14.129
    9AGAL    O329341   3.218   0.243  14.125
    9AGAL   HO329342   3.307   0.251  14.092
    9AGAL    C429343   3.234   0.482  14.121
    9AGAL    H429344   3.239   0.487  14.232
    9AGAL    O429345   3.369   0.472  14.075
    9AGAL   HO429346   3.398   0.561  14.056
    9AGAL    C629347   3.235   0.738  14.106
    9AGAL   H6129348   3.176   0.824  14.069
    9AGAL   H6229349   3.244   0.747  14.217
    9AGAL    O629350   3.366   0.745  14.050
    9AGAL   HO629351   3.359   0.760  13.955
   10AGAL    C129352   3.047   0.129  13.909
   10AGAL    H129353   3.152   0.093  13.910
   10AGAL    C529354   2.846   0.156  14.038
   10AGAL    H529355   2.846   0.263  14.008
   10AGAL    O529356   2.982   0.104  14.037
   10AGAL    C229357   2.969   0.059  13.799
   10AGAL    H229358   2.967   8.094  13.818
   10AGAL    O229359   3.036   0.079  13.674
   10AGAL   HO229360   2.990   0.037  13.601
   10AGAL    C329361   2.824   0.106  13.796
   10AGAL    H329362   2.819   0.214  13.775
   10AGAL    O329363   2.749   0.035  13.698
   10AGAL   HO329364   2.736   0.083  13.616
   10AGAL    C429365   2.765   0.081  13.934
   10AGAL    H429366   2.660   0.119  13.934
   10AGAL    O429367   2.764   8.087  13.966
   10AGAL   HO429368   2.707   8.047  13.899
   10AGAL    C629369   2.788   0.153  14.179
   10AGAL   H6129370   2.829   0.241  14.234
   10AGAL   H6229371   2.678   0.167  14.173
   10AGAL    O629372   2.820   0.034  14.252
   10AGAL   HO629373   2.797   0.044  14.345
   11BGLC    C129374   2.719   0.588  14.208
   11BGLC    H129375   2.615   0.624  14.218
   11BGLC    C529376   2.802   0.806  14.260
   11BGLC    H529377   2.699   0.847  14.265
   11BGLC    O529378   2.806   0.694  14.170
   11BGLC    C229379   2.768   0.535  14.343
   11BGLC    H229380   2.874   0.504  14.328
   11BGLC    O229381   2.698   0.419  14.389
   11BGLC   HO229382   2.608   0.420  14.356
   11BGLC    C329383   2.766   0.646  14.445
   11BGLC    H329384   2.661   0.678  14.467
   11BGLC    O329385   2.834   0.602  14.563
   11BGLC    C429386   2.850   0.760  14.396
   11BGLC    H429387   2.955   0.726  14.386
   11BGLC    O429388   2.847   0.868  14.488
   11BGLC   HO429389   2.808   0.837  14.570
   11BGLC    C629390   2.895   0.908  14.198
   11BGLC   H6129391   2.893   1.002  14.257
   11BGLC   H6229392   2.999   0.869  14.200
   11BGLC    O629393   2.860   0.935  14.062
   11BGLC   HO629394   2.832   0.854  14.019
   12BGLCN   C129395   2.768   0.606  14.686
   12BGLCN   H129396   2.694   0.522  14.691
   12BGLCN   C529397   2.648   0.740  14.843
   12BGLCN   H529398   2.570   0.661  14.855
   12BGLCN   O529399   2.705   0.732  14.711
   12BGLCN   C229400   2.882   0.587  14.784
   12BGLCN   H229401   2.940   0.681  14.777
   12BGLCN    N29402   2.972   0.479  14.745
   12BGLCN   HN29403   2.931   0.396  14.706
   12BGLCN    C29404   3.106   0.493  14.744
   12BGLCN    O29405   3.162   0.593  14.785
   12BGLCN   CT29406   3.187   0.376  14.693
   12BGLCN  HT129407   3.258   0.344  14.772
   12BGLCN  HT229408   3.245   0.409  14.605
   12BGLCN  HT329409   3.121   0.292  14.665
   12BGLCN   C329410   2.827   0.581  14.925
   12BGLCN   H329411   2.751   0.500  14.930
   12BGLCN   O329412   2.929   0.556  15.024
   12BGLCN   C429413   2.758   0.715  14.948
   12BGLCN   H429414   2.834   0.795  14.935
   12BGLCN   O429415   2.709   0.729  15.081
   12BGLCN  HO429416   2.615   0.708  15.086
   12BGLCN   C629417   2.581   0.876  14.854
   12BGLCN  H6129418   2.574   0.906  14.960
   12BGLCN  H6229419   2.642   0.953  14.802
   12BGLCN   O629420   2.448   0.878  14.801
   12BGLCN  HO629421   2.447   0.882  14.705
   13AGAL    C129422   2.897   0.462  15.126
   13AGAL    H129423   2.791   0.476  15.158
   13AGAL    C529424   3.052   0.301  15.041
   13AGAL    H529425   3.079   0.375  14.963
   13AGAL    O529426   2.917   0.327  15.082
   13AGAL    C229427   2.989   0.480  15.245
   13AGAL    H229428   2.969   0.394  15.313
   13AGAL    O229429   2.961   0.601  15.317
   13AGAL    C329430   3.135   0.465  15.204
   13AGAL    H329431   3.155   0.536  15.122
   13AGAL    O329432   3.225   0.498  15.311
   13AGAL   HO329433   3.295   0.554  15.278
   13AGAL    C429434   3.154   0.322  15.153
   13AGAL    H429435   3.255   0.318  15.107
   13AGAL    O429436   3.152   0.221  15.254
   13AGAL   HO429437   3.062   0.195  15.276
   13AGAL    C629438   3.058   0.164  14.974
   13AGAL   H6129439   2.996   0.167  14.882
   13AGAL   H6229440   3.162   0.141  14.943
   13AGAL    O629441   3.009   0.057  15.056
   13AGAL   HO629442   3.065   0.050  15.133
   14ARHM    C129443   2.897   0.585  15.442
   14ARHM    H129444   2.843   0.488  15.447
   14ARHM    C529445   2.856   0.815  15.457
   14ARHM    H529446   2.896   0.837  15.356
   14ARHM    O529447   2.798   0.685  15.462
   14ARHM    C229448   3.003   0.592  15.551
   14ARHM    H229449   3.076   0.510  15.536
   14ARHM    O229450   2.952   0.587  15.686
   14ARHM    C329451   3.072   0.725  15.541
   14ARHM    H329452   3.118   0.737  15.441
   14ARHM    O329453   3.177   0.737  15.638
   14ARHM   HO329454   3.140   0.719  15.725
   14ARHM    C429455   2.967   0.833  15.561
   14ARHM    H429456   2.923   0.824  15.662
   14ARHM    O429457   3.026   0.961  15.552
   14ARHM   HO429458   3.116   0.956  15.585
   14ARHM    C629459   2.733   0.902  15.484
   14ARHM   H6129460   2.665   0.900  15.397
   14ARHM   H6229461   2.679   0.868  15.575
   14ARHM   H6329462   2.765   1.007  15.503
   15ARHM    C129463   2.861   0.486  15.719
   15ARHM    H129464   2.881   0.394  15.660
   15ARHM    C529465   2.688   0.641  15.783
   15ARHM    H529466   2.749   0.728  15.750
   15ARHM    O529467   2.724   0.526  15.704
   15ARHM    C229468   2.887   0.458  15.865
   15ARHM    H229469   2.994   0.431  15.877
   15ARHM    O229470   2.804   0.346  15.899
   15ARHM    C329471   2.857   0.579  15.949
   15ARHM    H329472   2.921   0.663  15.915
   15ARHM    O329473   2.891   0.546  16.083
   15ARHM    C429474   2.712   0.615  15.931
   15ARHM    H429475   2.648   0.530  15.963
   15ARHM    O429476   2.676   0.728  16.011
   15ARHM   HO429477   2.604   0.776  15.969
   15ARHM    C629478   2.540   0.670  15.749
   15ARHM   H6129479   2.506   0.764  15.798
   15ARHM   H6229480   2.528   0.682  15.639
   15ARHM   H6329481   2.476   0.586  15.782
   16BMANN   C129482   2.828   0.279  16.020
   16BMANN   H129483   2.775   0.331  16.102
   16BMANN   C529484   2.988   0.191  16.172
   16BMANN   H529485   2.931   0.240  16.254
   16BMANN   O529486   2.967   0.265  16.051
   16BMANN   C229487   2.767   0.143  15.995
   16BMANN   H229488   2.658   0.157  15.983
   16BMANN    N29489   2.822   0.086  15.872
   16BMANN   HN29490   2.921   0.072  15.868
   16BMANN    C29491   2.752   0.074  15.758
   16BMANN    O29492   2.630   0.084  15.752
   16BMANN   CT29493   2.832   0.049  15.634
   16BMANN  HT129494   2.799   8.099  15.585
   16BMANN  HT229495   2.940   0.041  15.658
   16BMANN  HT329496   2.817   0.134  15.563
   16BMANN   C329497   2.787   0.057  16.119
   16BMANN   H329498   2.734   0.106  16.204
   16BMANN   O329499   2.730   8.072  16.100
   16BMANN  HO329500   2.655   8.060  16.159
   16BMANN   C429501   2.935   0.050  16.153
   16BMANN   H429502   2.989   0.002  16.069
   16BMANN   O429503   2.960   8.117  16.270
   16BMANN  HO429504   2.906   8.038  16.271
   16BMANN   C629505   3.135   0.195  16.211
   16BMANN  H6129506   3.151   0.138  16.305
   16BMANN  H6229507   3.197   0.147  16.132
   16BMANN   O629508   3.181   0.329  16.233
   16BMANN  HO629509   3.187   0.374  16.148
   17BGLCN   C129510   2.952   0.650  16.155
   17BGLCN   H129511   2.899   0.746  16.137
   17BGLCN   C529512   3.157   0.761  16.207
   17BGLCN   H529513   3.106   0.859  16.192
   17BGLCN   O529514   3.091   0.661  16.126
   17BGLCN   C229515   2.936   0.605  16.298
   17BGLCN   H229516   3.001   0.516  16.309
   17BGLCN    N29517   2.800   0.561  16.327
   17BGLCN   HN29518   2.729   0.599  16.270
   17BGLCN    C29519   2.771   0.466  16.417
   17BGLCN    O29520   2.857   0.408  16.482
   17BGLCN   CT29521   2.625   0.432  16.434
   17BGLCN  HT129522   2.603   0.338  16.379
   17BGLCN  HT229523   2.561   0.514  16.395
   17BGLCN  HT329524   2.604   0.417  16.542
   17BGLCN   C329525   2.994   0.714  16.387
   17BGLCN   H329526   2.950   0.810  16.352
   17BGLCN   O329527   2.957   0.697  16.525
   17BGLCN   C429528   3.143   0.721  16.354
   17BGLCN   H429529   3.187   0.620  16.366
   17BGLCN   O429530   3.215   0.809  16.440
   17BGLCN  HO429531   3.267   0.758  16.502
   17BGLCN   C629532   3.300   0.776  16.157
   17BGLCN  H6129533   3.354   0.848  16.223
   17BGLCN  H6229534   3.352   0.678  16.161
   17BGLCN   O629535   3.304   0.826  16.023
   17BGLCN  HO629536   3.378   0.885  16.010
   18AGAL    C129537   2.933   0.817  16.597
   18AGAL    H129538   3.029   0.872  16.610
   18AGAL    C529539   2.708   0.846  16.517
   18AGAL    H529540   2.722   0.749  16.466
   18AGAL    O529541   2.839   0.905  16.531
   18AGAL    C229542   2.876   0.789  16.734
   18AGAL    H229543   2.858   0.889  16.779
   18AGAL    O229544   2.970   0.720  16.818
   18AGAL    C329545   2.742   0.717  16.723
   18AGAL    H329546   2.758   0.626  16.660
   18AGAL    O329547   2.692   0.670  16.849
   18AGAL   HO329548   2.617   0.611  16.835
   18AGAL    C429549   2.645   0.810  16.652
   18AGAL    H429550   2.551   0.754  16.632
   18AGAL    O429551   2.612   0.925  16.730
   18AGAL   HO429552   2.517   0.936  16.728
   18AGAL    C629553   2.624   0.927  16.420
   18AGAL   H6129554   2.680   0.938  16.325
   18AGAL   H6229555   2.530   0.873  16.398
   18AGAL    O629556   2.591   1.057  16.468
   18AGAL   HO629557   2.672   1.101  16.495
   19ARHM    C129558   2.963   0.766  16.951
   19ARHM    H129559   2.860   0.798  16.977
   19ARHM    C529560   3.187   0.847  16.948
   19ARHM    H529561   3.198   0.810  16.843
   19ARHM    O529562   3.050   0.879  16.974
   19ARHM    C229563   3.002   0.651  17.040
   19ARHM    H229564   2.945   0.562  17.007
   19ARHM    O229565   2.969   0.679  17.178
   19ARHM    C329566   3.147   0.614  17.019
   19ARHM    H329567   3.162   0.582  16.914
   19ARHM    O329568   3.185   0.506  17.103
   19ARHM   HO329569   3.280   0.512  17.117
   19ARHM    C429570   3.231   0.738  17.044
   19ARHM    H429571   3.209   0.773  17.147
   19ARHM    O429572   3.371   0.714  17.037
   19ARHM   HO429573   3.396   0.681  16.950
   19ARHM    C629574   3.265   0.980  16.958
   19ARHM   H6129575   3.228   1.051  16.882
   19ARHM   H6229576   3.252   1.025  17.059
   19ARHM   H6329577   3.373   0.962  16.940
   20ARHM    C129578   2.834   0.654  17.210
   20ARHM    H129579   2.784   0.596  17.129
   20ARHM    C529580   2.803   0.854  17.337
   20ARHM    H529581   2.907   0.887  17.315
   20ARHM    O529582   2.756   0.773  17.229
   20ARHM    C229583   2.832   0.572  17.337
   20ARHM    H229584   2.899   0.484  17.324
   20ARHM    O229585   2.699   0.527  17.367
   20ARHM    C329586   2.884   0.652  17.454
   20ARHM    H329587   2.991   0.678  17.436
   20ARHM    O329588   2.872   0.567  17.569
   20ARHM    C429589   2.800   0.776  17.468
   20ARHM    H429590   2.695   0.747  17.489
   20ARHM    O429591   2.846   0.859  17.575
   20ARHM   HO429592   2.809   0.947  17.563
   20ARHM    C629593   2.710   0.977  17.338
   20ARHM   H6129594   2.606   0.946  17.362
   20ARHM   H6229595   2.742   1.052  17.414
   20ARHM   H6329596   2.710   1.025  17.238
   21BMANN   C129597   2.651   0.426  17.283
   21BMANN   H129598   2.733   0.384  17.220
   21BMANN   C529599   2.493   0.373  17.113
   21BMANN   H529600   2.576   0.334  17.051
   21BMANN   O529601   2.545   0.476  17.200
   21BMANN   C229602   2.596   0.320  17.375
   21BMANN   H229603   2.683   0.281  17.433
   21BMANN    N29604   2.502   0.376  17.472
   21BMANN   HN29605   2.468   0.467  17.451
   21BMANN    C29606   2.473   0.320  17.591
   21BMANN    O29607   2.514   0.209  17.622
   21BMANN   CT29608   2.387   0.401  17.684
   21BMANN  HT129609   2.280   0.376  17.667
   21BMANN  HT229610   2.404   0.509  17.668
   21BMANN  HT329611   2.414   0.376  17.789
   21BMANN   C329612   2.543   0.207  17.289
   21BMANN   H329613   2.626   0.170  17.225
   21BMANN   O329614   2.502   0.097  17.370
   21BMANN  HO329615   2.481   0.130  17.458
   21BMANN   C429616   2.435   0.259  17.197
   21BMANN   H429617   2.350   0.298  17.258
   21BMANN   O429618   2.385   0.158  17.110
   21BMANN  HO429619   2.289   0.164  17.104
   21BMANN   C629620   2.392   0.438  17.021
   21BMANN  H6129621   2.351   0.362  16.950
   21BMANN  H6229622   2.306   0.477  17.080
   21BMANN   O629623   2.450   0.543  16.944
   21BMANN  HO629624   2.480   0.612  17.004
   22BGLCN   C129625   2.968   0.577  17.670
   22BGLCN   H129626   3.022   0.674  17.667
   22BGLCN   C529627   3.146   0.456  17.777
   22BGLCN   H529628   3.201   0.552  17.790
   22BGLCN   O529629   3.059   0.466  17.662
   22BGLCN   C229630   2.883   0.565  17.795
   22BGLCN   H229631   2.828   0.469  17.789
   22BGLCN    N29632   2.784   0.673  17.799
   22BGLCN   HN29633   2.806   0.752  17.742
   22BGLCN    C29634   2.663   0.665  17.856
   22BGLCN    O29635   2.622   0.565  17.913
   22BGLCN   CT29636   2.577   0.787  17.845
   22BGLCN  HT129637   2.513   0.780  17.754
   22BGLCN  HT229638   2.639   0.879  17.838
   22BGLCN  HT329639   2.511   0.794  17.934
   22BGLCN   C329640   2.973   0.558  17.918
   22BGLCN   H329641   3.038   0.648  17.917
   22BGLCN   O329642   2.891   0.563  18.036
   22BGLCN   C429643   3.061   0.435  17.902
   22BGLCN   H429644   2.995   0.347  17.887
   22BGLCN   O429645   3.143   0.406  18.015
   22BGLCN  HO429646   3.152   0.311  18.022
   22BGLCN   C629647   3.249   0.347  17.750
   22BGLCN  H6129648   3.300   0.318  17.845
   22BGLCN  H6229649   3.199   0.256  17.710
   22BGLCN   O629650   3.351   0.391  17.660
   22BGLCN  HO629651   3.313   0.401  17.572
   23AGAL    C129652   2.954   0.606  18.154
   23AGAL    H129653   3.030   0.532  18.186
   23AGAL    C529654   2.925   0.839  18.109
   23AGAL    H529655   2.867   0.809  18.020
   23AGAL    O529656   3.019   0.734  18.139
   23AGAL    C229657   2.853   0.616  18.267
   23AGAL    H229658   2.909   0.638  18.361
   23AGAL    O229659   2.783   0.491  18.281
   23AGAL    C329660   2.753   0.726  18.243
   23AGAL    H329661   2.695   0.701  18.152
   23AGAL    O329662   2.661   0.737  18.352
   23AGAL   HO329663   2.703   0.797  18.414
   23AGAL    C429664   2.827   0.857  18.224
   23AGAL    H429665   2.753   0.935  18.196
   23AGAL    O429666   2.892   0.900  18.343
   23AGAL   HO429667   2.969   0.950  18.314
   23AGAL    C629668   3.001   0.964  18.069
   23AGAL   H6129669   3.066   0.941  17.982
   23AGAL   H6229670   2.929   1.043  18.038
   23AGAL    O629671   3.083   1.016  18.175
   23AGAL   HO629672   3.174   0.991  18.158
   24ARHM    C129673   2.839   0.397  18.368
   24ARHM    H129674   2.949   0.413  18.376
   24ARHM    C529675   2.684   0.230  18.302
   24ARHM    H529676   2.639   0.299  18.228
   24ARHM    O529677   2.822   0.263  18.319
   24ARHM    C229678   2.772   0.416  18.502
   24ARHM    H229679   2.779   0.523  18.530
   24ARHM    O229680   2.835   0.336  18.603
   24ARHM    C329681   2.625   0.384  18.487
   24ARHM    H329682   2.580   0.453  18.413
   24ARHM    O329683   2.554   0.402  18.610
   24ARHM   HO329684   2.475   0.349  18.602
   24ARHM    C429685   2.610   0.242  18.435
   24ARHM    H429686   2.657   0.173  18.507
   24ARHM    O429687   2.472   0.205  18.420
   24ARHM   HO429688   2.464   0.111  18.436
   24ARHM    C629689   2.682   0.088  18.241
   24ARHM   H6129690   2.578   0.056  18.218
   24ARHM   H6229691   2.741   0.087  18.147
   24ARHM   H6329692   2.727   0.015  18.312
   25ARHM    C129693   2.951   0.395  18.658
   25ARHM    H129694   2.992   0.471  18.587
   25ARHM    C529695   3.024   0.202  18.776
   25ARHM    H529696   2.937   0.144  18.740
   25ARHM    O529697   3.057   0.301  18.678
   25ARHM    C229698   2.912   0.465  18.785
   25ARHM    H229699   2.824   0.529  18.767
   25ARHM    O229700   3.020   0.545  18.837
   25ARHM    C329701   2.874   0.364  18.889
   25ARHM    H329702   2.785   0.308  18.854
   25ARHM    O329703   2.841   0.439  19.007
   25ARHM    C429704   2.990   0.268  18.909
   25ARHM    H429705   3.078   0.327  18.942
   25ARHM    O429706   2.964   0.169  19.009
   25ARHM   HO429707   3.048   0.128  19.032
   25ARHM    C629708   3.146   0.109  18.782
   25ARHM   H6129709   3.168   0.069  18.681
   25ARHM   H6229710   3.236   0.165  18.817
   25ARHM   H6329711   3.128   0.023  18.850
   26BMANN   C129712   3.028   0.676  18.788
   26BMANN   H129713   2.927   0.717  18.766
   26BMANN   C529714   3.127   0.815  18.621
   26BMANN   H529715   3.027   0.854  18.592
   26BMANN   O529716   3.111   0.681  18.672
   26BMANN   C229717   3.094   0.756  18.898
   26BMANN   H229718   3.025   0.752  18.985
   26BMANN    N29719   3.222   0.699  18.937
   26BMANN   HN29720   3.278   0.666  18.861
   26BMANN    C29721   3.268   0.692  19.063
   26BMANN    O29722   3.202   0.725  19.161
   26BMANN   CT29723   3.408   0.641  19.079
   26BMANN  HT129724   3.441   0.586  18.988
   26BMANN  HT229725   3.412   0.572  19.166
   26BMANN  HT329726   3.476   0.726  19.098
   26BMANN   C329727   3.102   0.900  18.853
   26BMANN   H329728   3.000   0.936  18.828
   26BMANN   O329729   3.153   0.982  18.958
   26BMANN  HO329730   3.114   1.069  18.958
   26BMANN   C429731   3.187   0.907  18.727
   26BMANN   H429732   3.291   0.873  18.750
   26BMANN   O429733   3.194   1.041  18.678
   26BMANN  HO429734   3.275   1.078  18.715
   26BMANN   C629735   3.211   0.805  18.494
   26BMANN  H6129736   3.164   0.732  18.425
   26BMANN  H6229737   3.214   0.904  18.443
   26BMANN   O629738   3.346   0.763  18.521
   26BMANN  HO629739   3.386   0.727  18.442
   27BGLCN   C129740   2.742   0.384  19.088
   27BGLCN   H129741   2.745   0.273  19.085
   27BGLCN   C529742   2.510   0.376  19.135
   27BGLCN   H529743   2.517   0.265  19.131
   27BGLCN   O529744   2.612   0.431  19.050
   27BGLCN   C229745   2.773   0.434  19.227
   27BGLCN   H229746   2.763   0.545  19.226
   27BGLCN    N29747   2.912   0.403  19.261
   27BGLCN   HN29748   2.954   0.330  19.209
   27BGLCN    C29749   2.988   0.475  19.344
   27BGLCN    O29750   2.948   0.572  19.406
   27BGLCN   CT29751   3.131   0.429  19.358
   27BGLCN  HT129752   3.152   0.346  19.286
   27BGLCN  HT229753   3.149   0.392  19.461
   27BGLCN  HT329754   3.199   0.514  19.337
   27BGLCN   C329755   2.672   0.377  19.323
   27BGLCN   H329756   2.678   0.266  19.311
   27BGLCN   O329757   2.710   0.413  19.457
   27BGLCN   C429758   2.532   0.420  19.280
   27BGLCN   H429759   2.526   0.531  19.286
   27BGLCN   O429760   2.430   0.366  19.363
   27BGLCN  HO429761   2.420   0.272  19.347
   27BGLCN   C629762   2.375   0.414  19.077
   27BGLCN  H6129763   2.294   0.372  19.141
   27BGLCN  H6229764   2.363   0.524  19.075
   27BGLCN   O629765   2.360   0.361  18.945
   27BGLCN  HO629766   2.420   0.406  18.886
   28AGAL    C129767   2.655   0.335   0.088
   28AGAL    H129768   2.549   0.365   0.102
   28AGAL    C529769   2.795   0.145   0.049
   28AGAL    H529770   2.853   0.211  19.452
   28AGAL    O529771   2.660   0.195   0.055
   28AGAL    C229772   2.723   0.358   0.222
   28AGAL    H229773   2.665   0.294   0.292
   28AGAL    O229774   2.719   0.494   0.271
   28AGAL    C329775   2.865   0.306   0.219
   28AGAL    H329776   2.920   0.361   0.139
   28AGAL    O329777   2.935   0.329   0.341
   28AGAL   HO329778   2.978   0.415   0.338
   28AGAL    C429779   2.863   0.159   0.184
   28AGAL    H429780   2.968   0.122   0.176
   28AGAL    O429781   2.795   0.080   0.281
   28AGAL   HO429782   2.847   0.075   0.362
   28AGAL    C629783   2.806   0.006  19.460
   28AGAL   H6129784   2.834   0.016  19.353
   28AGAL   H6229785   2.889   8.094   0.037
   28AGAL    O629786   2.687   8.071  19.467
   28AGAL   HO629787   2.680   8.033   0.082
   29ARHM    C129788   2.681   0.502   0.406
   29ARHM    H129789   2.704   0.406   0.457
   29ARHM    C529790   2.504   0.657   0.363
   29ARHM    H529791   2.530   0.660   0.255
   29ARHM    O529792   2.540   0.529   0.418
   29ARHM    C229793   2.760   0.610   0.479
   29ARHM    H229794   2.868   0.591   0.460
   29ARHM    O229795   2.734   0.605   0.621
   29ARHM    C329796   2.727   0.746   0.423
   29ARHM    H329797   2.755   0.748   0.315
   29ARHM    O329798   2.800   0.849   0.489
   29ARHM   HO329799   2.749   0.929   0.473
   29ARHM    C429800   2.579   0.768   0.435
   29ARHM    H429801   2.551   0.763   0.543
   29ARHM    O429802   2.540   0.898   0.390
   29ARHM   HO429803   2.538   0.903   0.295
   29ARHM    C629804   2.351   0.667   0.375
   29ARHM   H6129805   2.301   0.583   0.322
   29ARHM   H6229806   2.320   0.665   0.482
   29ARHM   H6329807   2.315   0.763   0.331
   30ARHM    C129808   2.835   0.541   0.696
   30ARHM    H129809   2.934   0.583   0.669
   30ARHM    C529810   2.714   0.335   0.711
   30ARHM    H529811   2.628   0.380   0.657
   30ARHM    O529812   2.837   0.400   0.673
   30ARHM    C229813   2.812   0.566   0.845
   30ARHM    H229814   2.802   0.675   0.861
   30ARHM    O229815   2.920   0.514   0.924
   30ARHM    C329816   2.684   0.499   0.890
   30ARHM    H329817   2.602   0.542   0.828
   30ARHM    O329818   2.650   0.529   1.026
   30ARHM    C429819   2.689   0.351   0.860
   30ARHM    H429820   2.774   0.303   0.913
   30ARHM    O429821   2.568   0.287   0.900
   30ARHM   HO429822   2.554   0.312   0.992
   30ARHM    C629823   2.728   0.190   0.666
   30ARHM   H6129824   2.635   0.133   0.690
   30ARHM   H6229825   2.746   0.185   0.557
   30ARHM   H6329826   2.814   0.142   0.718
   31BMANN   C129827   3.032   0.595   0.945
   31BMANN   H129828   3.002   0.701   0.961
   31BMANN   C529829   3.247   0.660   0.864
   31BMANN   H529830   3.218   0.766   0.882
   31BMANN   O529831   3.127   0.583   0.840
   31BMANN   C229832   3.096   0.537   1.070
   31BMANN   H229833   3.023   0.553   1.153
   31BMANN    N29834   3.118   0.393   1.059
   31BMANN   HN29835   3.124   0.357   0.966
   31BMANN    C29836   3.128   0.311   1.163
   31BMANN    O29837   3.120   0.353   1.278
   31BMANN   CT29838   3.149   0.165   1.135
   31BMANN  HT129839   3.246   0.151   1.082
   31BMANN  HT229840   3.067   0.126   1.071
   31BMANN  HT329841   3.152   0.109   1.231
   31BMANN   C329842   3.220   0.618   1.104
   31BMANN   H329843   3.190   0.724   1.115
   31BMANN   O329844   3.276   0.578   1.229
   31BMANN  HO329845   3.233   0.497   1.257
   31BMANN   C429846   3.318   0.610   0.989
   31BMANN   H429847   3.352   0.505   0.974
   31BMANN   O429848   3.432   0.691   1.015
   31BMANN  HO429849   3.459   0.682   1.107
   31BMANN   C629850   3.333   0.654   0.739
   31BMANN  H6129851   3.438   0.683   0.763
   31BMANN  H6229852   3.335   0.550   0.699
   31BMANN   O629853   3.285   0.743   0.637
   31BMANN  HO629854   3.312   0.832   0.658
   32BGLCN   C129855   2.710   0.453   1.129
   32BGLCN   H129856   2.813   0.422   1.103
   32BGLCN   C529857   2.692   0.261   1.270
   32BGLCN   H529858   2.795   0.231   1.242
   32BGLCN   O529859   2.632   0.337   1.163
   32BGLCN   C229860   2.712   0.544   1.249
   32BGLCN   H229861   2.607   0.559   1.279
   32BGLCN    N29862   2.765   0.675   1.214
   32BGLCN   HN29863   2.819   0.680   1.131
   32BGLCN    C29864   2.725   0.786   1.275
   32BGLCN    O29865   2.656   0.787   1.375
   32BGLCN   CT29866   2.773   0.914   1.212
   32BGLCN  HT129867   2.820   0.895   1.113
   32BGLCN  HT229868   2.847   0.962   1.279
   32BGLCN  HT329869   2.686   0.981   1.198
   32BGLCN   C329870   2.784   0.473   1.362
   32BGLCN   H329871   2.882   0.439   1.321
   32BGLCN   O329872   2.811   0.554   1.479
   32BGLCN   C429873   2.700   0.351   1.393
   32BGLCN   H429874   2.597   0.384   1.420
   32BGLCN   O429875   2.752   0.280   1.504
   32BGLCN  HO429876   2.755   0.339   1.580
   32BGLCN   C629877   2.611   0.134   1.291
   32BGLCN  H6129878   2.654   0.076   1.376
   32BGLCN  H6229879   2.507   0.160   1.318
   32BGLCN   O629880   2.612   0.051   1.175
   32BGLCN  HO629881   2.583   0.103   1.099
   33AGAL    C129882   2.942   0.536   1.530
   33AGAL    H129883   2.973   0.430   1.519
   33AGAL    C529884   3.018   0.760   1.482
   33AGAL    H529885   2.915   0.786   1.450
   33AGAL    O529886   3.038   0.619   1.461
   33AGAL    C229887   2.948   0.570   1.679
   33AGAL    H229888   3.051   0.546   1.712
   33AGAL    O229889   2.856   0.486   1.752
   33AGAL    C329890   2.923   0.717   1.703
   33AGAL    H329891   2.822   0.742   1.662
   33AGAL    O329892   2.920   0.751   1.841
   33AGAL   HO329893   3.010   0.770   1.867
   33AGAL    C429894   3.027   0.798   1.629
   33AGAL    H429895   3.004   0.906   1.640
   33AGAL    O429896   3.158   0.775   1.680
   33AGAL   HO429897   3.219   0.791   1.609
   33AGAL    C629898   3.113   0.839   1.394
   33AGAL   H6129899   3.087   0.823   1.287
   33AGAL   H6229900   3.100   0.948   1.415
   33AGAL    O629901   3.250   0.805   1.415
   33AGAL   HO629902   3.270   0.723   1.368
   34ARHM    C129903   2.907   0.437   1.875
   34ARHM    H129904   2.954   0.520   1.934
   34ARHM    C529905   2.952   0.225   1.777
   34ARHM    H529906   2.927   0.263   1.676
   34ARHM    O529907   3.004   0.333   1.856
   34ARHM    C229908   2.789   0.381   1.952
   34ARHM    H229909   2.714   0.461   1.965
   34ARHM    O229910   2.825   0.328   2.081
   34ARHM    C329911   2.726   0.271   1.870
   34ARHM    H329912   2.692   0.312   1.773
   34ARHM    O329913   2.610   0.220   1.936
   34ARHM   HO329914   2.637   0.177   2.017
   34ARHM    C429915   2.830   0.163   1.844
   34ARHM    H429916   2.860   0.116   1.940
   34ARHM    O429917   2.776   0.064   1.757
   34ARHM   HO429918   2.802   8.120   1.784
   34ARHM    C629919   3.069   0.126   1.761
   34ARHM   H6129920   3.100   0.087   1.860
   34ARHM   H6229921   3.039   0.041   1.697
   34ARHM   H6329922   3.156   0.177   1.715
   35ARHM    C129923   2.859   0.425   2.177
   35ARHM    H129924   2.797   0.516   2.161
   35ARHM    C529925   3.084   0.345   2.189
   35ARHM    H529926   3.062   0.270   2.110
   35ARHM    O529927   2.999   0.459   2.173
   35ARHM    C229928   2.828   0.365   2.313
   35ARHM    H229929   2.722   0.333   2.313
   35ARHM    O229930   2.847   0.456   2.424
   35ARHM    C329931   2.915   0.243   2.337
   35ARHM    H329932   2.893   0.169   2.258
   35ARHM    O329933   2.884   0.181   2.462
   35ARHM   HO329934   2.914   0.237   2.533
   35ARHM    C429935   3.061   0.283   2.326
   35ARHM    H429936   3.083   0.361   2.402
   35ARHM    O429937   3.151   0.174   2.351
   35ARHM   HO429938   3.105   0.091   2.339
   35ARHM    C629939   3.229   0.394   2.166
   35ARHM   H6129940   3.237   0.443   2.066
   35ARHM   H6229941   3.258   0.467   2.244
   35ARHM   H6329942   3.300   0.308   2.168
   36BMANN   C129943   2.776   0.577   2.417
   36BMANN   H129944   2.672   0.560   2.381
   36BMANN   C529945   2.777   0.799   2.327
   36BMANN   H529946   2.676   0.783   2.284
   36BMANN   O529947   2.844   0.672   2.334
   36BMANN   C229948   2.775   0.635   2.557
   36BMANN   H229949   2.720   0.561   2.620
   36BMANN    N29950   2.909   0.648   2.612
   36BMANN   HN29951   2.982   0.664   2.547
   36BMANN    C29952   2.936   0.644   2.744
   36BMANN    O29953   2.851   0.617   2.827
   36BMANN   CT29954   3.078   0.674   2.783
   36BMANN  HT129955   3.112   0.768   2.735
   36BMANN  HT229956   3.145   0.591   2.754
   36BMANN  HT329957   3.083   0.687   2.894
   36BMANN   C329958   2.695   0.764   2.555
   36BMANN   H329959   2.595   0.743   2.514
   36BMANN   O329960   2.675   0.818   2.686
   36BMANN  HO329961   2.637   0.751   2.743
   36BMANN   C429962   2.766   0.863   2.464
   36BMANN   H429963   2.866   0.884   2.506
   36BMANN   O429964   2.695   0.986   2.456
   36BMANN  HO429965   2.656   0.999   2.543
   36BMANN   C629966   2.858   0.882   2.229
   36BMANN  H6129967   2.877   0.823   2.137
   36BMANN  H6229968   2.799   0.971   2.198
   36BMANN   O629969   2.984   0.925   2.283
   36BMANN  HO629970   2.971   1.005   2.335
    1ECLIP HB6S29971   7.556   6.092  11.832
    1ECLIP  OB629972   7.415   6.006  11.958
    1ECLIP  CB629973   7.522   5.991  11.862
    1ECLIP HB6R29974   7.608   5.939  11.909
    1ECLIP  CB529975   7.493   5.912  11.736
    1ECLIP  OB529976   7.372   5.965  11.683
    1ECLIP  HB529977   7.478   5.805  11.761
    1ECLIP  CB129978   7.333   5.905  11.559
    1ECLIP  HB129979   7.316   5.796  11.574
    1ECLIP  OA629980   7.213   5.961  11.513
    1ECLIP  CA629981   7.206   6.100  11.546
    1ECLIP HA6R29982   7.303   6.145  11.573
    1ECLIP HA6S29983   7.138   6.114  11.633
    1ECLIP  CB429984   7.605   5.929  11.632
    1ECLIP  HB429985   7.618   6.038  11.611
    1ECLIP  OB429986   7.721   5.875  11.694
    1ECLIP   PB29987   7.867   5.946  11.710
    1ECLIP OPB429988   7.926   5.859  11.819
    1ECLIP OPB329989   7.858   6.093  11.742
    1ECLIP OPB229990   7.941   5.903  11.585
    1ECLIP  CB329991   7.563   5.860  11.502
    1ECLIP  OB329992   7.656   5.867  11.396
    1ECLIP  HB329993   7.538   5.754  11.523
    1ECLIP  C7129994   7.761   5.790  11.395
    1ECLIP  O7129995   7.788   5.703  11.479
    1ECLIP  C7229996   7.813   5.785  11.252
    1ECLIP H72R29997   7.727   5.782  11.183
    1ECLIP H72S29998   7.873   5.691  11.243
    1ECLIP  CB229999   7.437   5.929  11.452
    1ECLIP  HB230000   7.459   6.038  11.448
    1ECLIP  NB230001   7.391   5.892  11.317
    1ECLIP HNB230002   7.314   5.828  11.317
    1ECLIP  CA430003   7.046   6.115  11.346
    1ECLIP  HA430004   7.086   6.022  11.301
    1ECLIP  OA430005   6.937   6.086  11.434
    1ECLIP HOA430006   6.977   6.069  11.520
    1ECLIP  CA530007   7.158   6.175  11.426
    1ECLIP  HA530008   7.125   6.273  11.467
    1ECLIP  OA530009   7.271   6.195  11.340
    1ECLIP  CA130010   7.246   6.292  11.238
    1ECLIP  HA130011   7.337   6.302  11.176
    1ECLIP  OA130012   7.218   6.416  11.302
    1ECLIP OPA230013   7.269   6.620  11.444
    1ECLIP OPA330014   7.348   6.401  11.529
    1ECLIP OPA430015   7.456   6.506  11.322
    1ECLIP   PA30016   7.331   6.486  11.405
    1ECLIP  CA330017   7.010   6.211  11.236
    1ECLIP  HA330018   6.985   6.307  11.285
    1ECLIP  OA330019   6.892   6.175  11.162
    1ECLIP  C3130020   6.881   6.061  11.089
    1ECLIP  O3130021   6.836   6.066  10.975
    1ECLIP  C3230022   6.810   5.954  11.176
    1ECLIP H32R30023   6.718   5.931  11.119
    1ECLIP H32S30024   6.777   5.999  11.272
    1ECLIP  CA230025   7.132   6.239  11.148
    1ECLIP  HA230026   7.167   6.142  11.106
    1ECLIP  NA230027   7.094   6.325  11.037
    1ECLIP HNA230028   7.015   6.381  11.059
    1ECLIP  C7330029   7.900   5.908  11.225
    1ECLIP H73R30030   7.981   5.911  11.301
    1ECLIP  O7330031   7.818   6.023  11.235
    1ECLIP  C8130032   7.878   6.139  11.260
    1ECLIP  O8130033   8.000   6.155  11.259
    1ECLIP  C8230034   7.780   6.252  11.227
    1ECLIP H82R30035   7.821   6.346  11.270
    1ECLIP H82S30036   7.683   6.230  11.276
    1ECLIP  C8330037   7.761   6.266  11.074
    1ECLIP H83R30038   7.702   6.178  11.041
    1ECLIP H83S30039   7.859   6.264  11.022
    1ECLIP  C8430040   7.684   6.391  11.032
    1ECLIP H84R30041   7.748   6.481  11.046
    1ECLIP H84S30042   7.595   6.404  11.097
    1ECLIP  C8530043   7.638   6.380  10.886
    1ECLIP H85R30044   7.559   6.302  10.882
    1ECLIP H85S30045   7.725   6.343  10.826
    1ECLIP  C8630046   7.585   6.510  10.826
    1ECLIP H86R30047   7.669   6.583  10.820
    1ECLIP H86S30048   7.509   6.552  10.896
    1ECLIP  C8730049   7.521   6.493  10.687
    1ECLIP H87R30050   7.511   6.593  10.640
    1ECLIP H87S30051   7.420   6.450  10.700
    1ECLIP  C8830052   7.601   6.400  10.595
    1ECLIP H88R30053   7.590   6.296  10.634
    1ECLIP H88S30054   7.709   6.425  10.601
    1ECLIP  C8930055   7.556   6.401  10.448
    1ECLIP H89R30056   7.452   6.438  10.440
    1ECLIP H89S30057   7.556   6.295  10.413
    1ECLIP C81030058   7.651   6.479  10.358
    1ECLIPH810R30059   7.756   6.453  10.385
    1ECLIPH810S30060   7.640   6.588  10.379
    1ECLIP C81130061   7.627   6.449  10.209
    1ECLIPH811R30062   7.659   6.536  10.147
    1ECLIPH811S30063   7.518   6.434  10.195
    1ECLIP C81230064   7.703   6.324  10.162
    1ECLIPH812R30065   7.662   6.289  10.065
    1ECLIPH812S30066   7.686   6.243  10.236
    1ECLIP C81330067   7.853   6.348  10.147
    1ECLIPH813R30068   7.872   6.404  10.053
    1ECLIPH813S30069   7.890   6.412  10.231
    1ECLIP C81430070   7.935   6.218  10.150
    1ECLIPH814R30071   7.906   6.152  10.065
    1ECLIPH814S30072   7.916   6.165  10.246
    1ECLIPH814T30073   8.044   6.239  10.145
    1ECLIP  C7430074   7.966   5.904  11.083
    1ECLIP H74R30075   8.022   5.810  11.071
    1ECLIP H74S30076   8.041   5.986  11.082
    1ECLIP  C7530077   7.873   5.927  10.961
    1ECLIP H75R30078   7.934   5.982  10.886
    1ECLIP H75S30079   7.788   5.993  10.989
    1ECLIP  C7630080   7.819   5.801  10.892
    1ECLIP H76R30081   7.721   5.773  10.935
    1ECLIP H76S30082   7.886   5.715  10.911
    1ECLIP  C7730083   7.807   5.819  10.739
    1ECLIP H77R30084   7.897   5.872  10.701
    1ECLIP H77S30085   7.719   5.883  10.718
    1ECLIP  C7830086   7.795   5.686  10.663
    1ECLIP H78R30087   7.894   5.635  10.664
    1ECLIP H78S30088   7.725   5.620  10.719
    1ECLIP  C7930089   7.746   5.696  10.518
    1ECLIP H79R30090   7.639   5.729  10.519
    1ECLIP H79S30091   7.750   5.595  10.473
    1ECLIP C71030092   7.817   5.795  10.425
    1ECLIPH710R30093   7.796   5.899  10.459
    1ECLIPH710S30094   7.927   5.780  10.430
    1ECLIP C71130095   7.769   5.778  10.280
    1ECLIPH711R30096   7.785   5.672  10.248
    1ECLIPH711S30097   7.659   5.797  10.277
    1ECLIP C71230098   7.838   5.872  10.182
    1ECLIPH712R30099   7.942   5.836  10.164
    1ECLIPH712S30100   7.845   5.971  10.231
    1ECLIP C71330101   7.764   5.890  10.048
    1ECLIPH713R30102   7.671   5.947  10.067
    1ECLIPH713S30103   7.828   5.953   9.982
    1ECLIP C71430104   7.728   5.760   9.976
    1ECLIPH714R30105   7.818   5.696   9.963
    1ECLIPH714S30106   7.653   5.703  10.034
    1ECLIPH714T30107   7.685   5.782   9.876
    1ECLIP  C5130108   7.429   5.948  11.200
    1ECLIP  O5130109   7.518   6.031  11.190
    1ECLIP  C5230110   7.354   5.898  11.077
    1ECLIP H52R30111   7.394   5.797  11.055
    1ECLIP H52S30112   7.247   5.892  11.106
    1ECLIP  C5330113   7.362   5.981  10.945
    1ECLIP H53R30114   7.326   6.084  10.964
    1ECLIP  O5330115   7.285   5.912  10.847
    1ECLIP  C6130116   7.162   5.952  10.822
    1ECLIP  O6130117   7.096   6.026  10.891
    1ECLIP  C6230118   7.102   5.851  10.721
    1ECLIP H62R30119   7.088   5.754  10.775
    1ECLIP H62S30120   7.177   5.836  10.641
    1ECLIP  C6330121   6.965   5.886  10.658
    1ECLIP H63R30122   6.978   5.976  10.594
    1ECLIP H63S30123   6.891   5.912  10.737
    1ECLIP  C6430124   6.910   5.773  10.570
    1ECLIP H64R30125   6.825   5.814  10.511
    1ECLIP H64S30126   6.869   5.692  10.635
    1ECLIP  C6530127   7.015   5.711  10.476
    1ECLIP H65R30128   7.089   5.655  10.538
    1ECLIP H65S30129   7.071   5.792  10.425
    1ECLIP  C6630130   6.959   5.613  10.371
    1ECLIP H66R30131   6.911   5.528  10.424
    1ECLIP H66S30132   7.045   5.572  10.313
    1ECLIP  C6730133   6.859   5.675  10.273
    1ECLIP H67R30134   6.767   5.705  10.328
    1ECLIP H67S30135   6.830   5.598  10.199
    1ECLIP  C6830136   6.915   5.797  10.199
    1ECLIP H68R30137   7.009   5.767  10.149
    1ECLIP H68S30138   6.939   5.879  10.270
    1ECLIP  C6930139   6.816   5.850  10.095
    1ECLIP H69R30140   6.731   5.900  10.146
    1ECLIP H69S30141   6.775   5.762  10.041
    1ECLIP C61030142   6.881   5.945   9.995
    1ECLIPH610R30143   6.987   5.915   9.979
    1ECLIPH610S30144   6.882   6.048  10.038
    1ECLIP C61130145   6.812   5.947   9.858
    1ECLIPH611R30146   6.703   5.966   9.874
    1ECLIPH611S30147   6.854   6.031   9.799
    1ECLIP C61230148   6.829   5.818   9.779
    1ECLIPH612R30149   6.937   5.800   9.760
    1ECLIPH612S30150   6.788   5.731   9.834
    1ECLIPH612T30151   6.777   5.824   9.681
    1ECLIP  C5430152   7.503   5.990  10.883
    1ECLIP H54R30153   7.543   5.887  10.873
    1ECLIP H54S30154   7.568   6.045  10.955
    1ECLIP  C5530155   7.511   6.062  10.746
    1ECLIP H55R30156   7.616   6.094  10.731
    1ECLIP H55S30157   7.447   6.153  10.750
    1ECLIP  C5630158   7.470   5.975  10.626
    1ECLIP H56R30159   7.363   5.944  10.637
    1ECLIP H56S30160   7.530   5.882  10.626
    1ECLIP  C5730161   7.480   6.042  10.488
    1ECLIP H57R30162   7.586   6.068  10.466
    1ECLIP H57S30163   7.419   6.135  10.489
    1ECLIP  C5830164   7.425   5.945  10.383
    1ECLIP H58R30165   7.483   5.851  10.388
    1ECLIP H58S30166   7.320   5.920  10.412
    1ECLIP  C5930167   7.423   5.995  10.238
    1ECLIP H59R30168   7.524   6.026  10.205
    1ECLIP H59S30169   7.356   6.084  10.232
    1ECLIP C51030170   7.369   5.881  10.149
    1ECLIPH510R30171   7.289   5.835  10.210
    1ECLIPH510S30172   7.448   5.805  10.132
    1ECLIP C51130173   7.299   5.921  10.019
    1ECLIPH511R30174   7.259   6.024  10.030
    1ECLIPH511S30175   7.212   5.852  10.007
    1ECLIP C51230176   7.383   5.909   9.891
    1ECLIPH512R30177   7.442   6.002   9.877
    1ECLIPH512S30178   7.453   5.824   9.900
    1ECLIP C51330179   7.292   5.884   9.770
    1ECLIPH513R30180   7.208   5.957   9.774
    1ECLIPH513S30181   7.247   5.783   9.780
    1ECLIP C51430182   7.363   5.894   9.635
    1ECLIPH514R30183   7.447   5.821   9.631
    1ECLIPH514S30184   7.294   5.872   9.551
    1ECLIPH514T30185   7.404   5.996   9.621
    1ECLIP  C3330186   6.883   5.818  11.197
    1ECLIP H33R30187   6.807   5.738  11.210
    1ECLIP  O3330188   6.957   5.825  11.317
    1ECLIP HO3330189   6.928   5.891  11.380
    1ECLIP  C3430190   6.981   5.780  11.084
    1ECLIP H34R30191   7.041   5.870  11.059
    1ECLIP H34S30192   6.922   5.751  10.994
    1ECLIP  C3530193   7.084   5.671  11.120
    1ECLIP H35R30194   7.030   5.584  11.165
    1ECLIP H35S30195   7.151   5.710  11.199
    1ECLIP  C3630196   7.169   5.633  10.997
    1ECLIP H36R30197   7.199   5.729  10.952
    1ECLIP H36S30198   7.105   5.580  10.922
    1ECLIP  C3730199   7.300   5.555  11.021
    1ECLIP H37R30200   7.276   5.449  11.041
    1ECLIP H37S30201   7.350   5.593  11.113
    1ECLIP  C3830202   7.401   5.562  10.904
    1ECLIP H38R30203   7.473   5.644  10.922
    1ECLIP H38S30204   7.459   5.467  10.902
    1ECLIP  C3930205   7.339   5.586  10.765
    1ECLIP H39R30206   7.299   5.690  10.762
    1ECLIP H39S30207   7.253   5.518  10.748
    1ECLIP C31030208   7.437   5.574  10.648
    1ECLIPH310R30209   7.492   5.478  10.655
    1ECLIPH310S30210   7.511   5.656  10.658
    1ECLIP C31130211   7.365   5.583  10.512
    1ECLIPH311R30212   7.276   5.516  10.516
    1ECLIPH311S30213   7.328   5.686  10.497
    1ECLIP C31230214   7.451   5.539  10.392
    1ECLIPH312R30215   7.536   5.609  10.381
    1ECLIPH312S30216   7.492   5.438  10.411
    1ECLIP C31330217   7.374   5.540  10.260
    1ECLIPH313R30218   7.286   5.472  10.268
    1ECLIPH313S30219   7.332   5.641  10.246
    1ECLIP C31430220   7.460   5.501  10.140
    1ECLIPH314R30221   7.484   5.393  10.143
    1ECLIPH314S30222   7.408   5.525  10.045
    1ECLIPH314T30223   7.556   5.558  10.143
    1ECLIP  C1130224   7.140   6.331  10.910
    1ECLIP  O1130225   7.241   6.276  10.868
    1ECLIP  C1230226   7.059   6.419  10.816
    1ECLIP H12R30227   7.099   6.523  10.828
    1ECLIP H12S30228   6.952   6.418  10.847
    1ECLIP  C1330229   7.069   6.378  10.667
    1ECLIP H13R30230   7.175   6.367  10.636
    1ECLIP  O1330231   7.008   6.482  10.592
    1ECLIP HO1330232   7.056   6.565  10.596
    1ECLIP  C1430233   6.993   6.248  10.633
    1ECLIP H14R30234   6.893   6.255  10.681
    1ECLIP H14S30235   7.046   6.163  10.682
    1ECLIP  C1530236   6.972   6.218  10.483
    1ECLIP H15R30237   6.936   6.310  10.432
    1ECLIP H15S30238   6.891   6.143  10.473
    1ECLIP  C1630239   7.096   6.164  10.408
    1ECLIP H16R30240   7.118   6.062  10.446
    1ECLIP H16S30241   7.184   6.227  10.430
    1ECLIP  C1730242   7.073   6.158  10.256
    1ECLIP H17R30243   6.965   6.139  10.237
    1ECLIP H17S30244   7.130   6.073  10.213
    1ECLIP  C1830245   7.116   6.288  10.187
    1ECLIP H18R30246   7.080   6.372  10.250
    1ECLIP H18S30247   7.227   6.295  10.186
    1ECLIP  C1930248   7.059   6.309  10.046
    1ECLIP H19R30249   7.081   6.414  10.019
    1ECLIP H19S30250   6.949   6.296  10.047
    1ECLIP C11030251   7.120   6.221   9.936
    1ECLIPH110R30252   7.231   6.227   9.944
    1ECLIPH110S30253   7.091   6.115   9.951
    1ECLIP C11130254   7.078   6.265   9.795
    1ECLIPH111R30255   6.989   6.207   9.763
    1ECLIPH111S30256   7.046   6.372   9.800
    1ECLIP C11230257   7.190   6.254   9.691
    1ECLIPH112R30258   7.279   6.311   9.724
    1ECLIPH112S30259   7.222   6.148   9.682
    1ECLIP C11330260   7.146   6.305   9.554
    1ECLIPH113R30261   7.061   6.242   9.523
    1ECLIPH113S30262   7.103   6.407   9.562
    1ECLIP C11430263   7.257   6.305   9.449
    1ECLIPH114R30264   7.329   6.387   9.467
    1ECLIPH114S30265   7.313   6.209   9.454
    1ECLIPH114T30266   7.215   6.317   9.347
    2AKDO    C130267   7.416   5.782  12.041
    2AKDO   O1130268   7.520   5.711  12.043
    2AKDO   O1230269   7.297   5.741  12.043
    2AKDO    C230270   7.434   5.933  12.078
    2AKDO    C630271   7.592   6.089  12.165
    2AKDO    H630272   7.565   6.149  12.075
    2AKDO    O630273   7.565   5.952  12.135
    2AKDO    C330274   7.333   5.984  12.182
    2AKDO   H3130275   7.340   5.918  12.271
    2AKDO   H3230276   7.232   5.975  12.137
    2AKDO    C430277   7.354   6.127  12.223
    2AKDO    H430278   7.339   6.194  12.136
    2AKDO    O430279   7.266   6.163  12.331
    2AKDO    C530280   7.497   6.140  12.276
    2AKDO    H530281   7.514   6.249  12.285
    2AKDO    O530282   7.511   6.077  12.407
    2AKDO    C730283   7.744   6.100  12.176
    2AKDO    H730284   7.782   6.052  12.268
    2AKDO    O730285   7.788   6.237  12.165
    2AKDO   HO730286   7.829   6.234  12.079
    2AKDO    C830287   7.805   6.025  12.057
    2AKDO   H8130288   7.773   5.919  12.057
    2AKDO   H8230289   7.766   6.071  11.964
    2AKDO    O830290   7.948   6.023  12.050
    2AKDO   HO830291   7.960   5.976  11.967
    3AKDO    C130292   7.114   6.341  12.229
    3AKDO   O1130293   6.995   6.384  12.223
    3AKDO   O1230294   7.218   6.412  12.217
    3AKDO    C230295   7.132   6.211  12.316
    3AKDO    C630296   7.041   5.989  12.354
    3AKDO    H630297   7.142   5.944  12.352
    3AKDO    O630298   7.038   6.109  12.274
    3AKDO    C330299   7.101   6.244  12.463
    3AKDO   H3130300   7.000   6.288  12.468
    3AKDO   H3230301   7.173   6.322  12.497
    3AKDO    C430302   7.109   6.123  12.552
    3AKDO    H430303   7.211   6.078  12.546
    3AKDO    O430304   7.088   6.164  12.687
    3AKDO   HO430305   7.155   6.230  12.707
    3AKDO    C530306   7.010   6.020  12.501
    3AKDO    H530307   7.029   5.927  12.559
    3AKDO    O530308   6.873   6.053  12.525
    3AKDO   HO530309   6.848   6.123  12.464
    3AKDO    C730310   6.945   5.890  12.287
    3AKDO    H730311   6.848   5.941  12.273
    3AKDO    O730312   6.927   5.773  12.369
    3AKDO   HO730313   6.981   5.707  12.325
    3AKDO    C830314   6.997   5.846  12.151
    3AKDO   H8130315   7.013   5.935  12.086
    3AKDO   H8230316   7.095   5.796  12.164
    3AKDO    O830317   6.907   5.756  12.084
    3AKDO   HO830318   6.966   5.702  12.031
    4AHEP    C130319   7.610   6.130  12.493
    4AHEP    H130320   7.708   6.096  12.452
    4AHEP    C530321   7.500   6.331  12.559
    4AHEP    H530322   7.409   6.286  12.513
    4AHEP    O530323   7.615   6.273  12.494
    4AHEP    C230324   7.607   6.078  12.637
    4AHEP    H230325   7.585   5.969  12.629
    4AHEP    O230326   7.734   6.086  12.704
    4AHEP   HO230327   7.771   5.998  12.707
    4AHEP    C330328   7.490   6.138  12.715
    4AHEP    H330329   7.396   6.104  12.668
    4AHEP    O330330   7.500   6.091  12.852
    4AHEP    C430331   7.498   6.291  12.709
    4AHEP    H430332   7.593   6.324  12.758
    4AHEP    O430333   7.384   6.349  12.775
    4AHEP    P430334   7.385   6.484  12.872
    4AHEP  OP4230335   7.249   6.488  12.941
    4AHEP  OP4330336   7.407   6.606  12.783
    4AHEP  OP4430337   7.500   6.472  12.971
    4AHEP    C630338   7.492   6.480  12.524
    4AHEP    H630339   7.391   6.516  12.551
    4AHEP    O630340   7.589   6.553  12.598
    4AHEP   HO630341   7.540   6.563  12.681
    4AHEP    C730342   7.512   6.511  12.375
    4AHEP   H7130343   7.495   6.619  12.356
    4AHEP   H7230344   7.436   6.455  12.317
    4AHEP    O730345   7.643   6.472  12.331
    4AHEP   HO730346   7.653   6.392  12.385
    5AHEP    C130347   7.393   6.013  12.903
    5AHEP    H130348   7.300   6.041  12.850
    5AHEP    C530349   7.525   5.820  12.968
    5AHEP    H530350   7.617   5.869  12.929
    5AHEP    O530351   7.412   5.871  12.892
    5AHEP    C230352   7.375   6.047  13.051
    5AHEP    H230353   7.373   6.158  13.058
    5AHEP    O230354   7.249   5.998  13.100
    5AHEP   HO230355   7.180   6.049  13.058
    5AHEP    C330356   7.496   5.999  13.132
    5AHEP    H330357   7.586   6.050  13.092
    5AHEP    O330358   7.484   6.025  13.273
    5AHEP    C430359   7.512   5.850  13.118
    5AHEP    H430360   7.424   5.797  13.160
    5AHEP    O430361   7.633   5.804  13.178
    5AHEP    P430362   7.651   5.752  13.335
    5AHEP  OP4230363   7.758   5.845  13.393
    5AHEP  OP4330364   7.697   5.607  13.328
    5AHEP  OP4430365   7.518   5.768  13.407
    5AHEP    C630366   7.538   5.669  12.939
    5AHEP    H630367   7.626   5.630  12.995
    5AHEP    O630368   7.422   5.597  12.983
    5AHEP   HO630369   7.394   5.560  12.899
    5AHEP    C730370   7.558   5.642  12.790
    5AHEP   H7130371   7.646   5.575  12.780
    5AHEP   H7230372   7.584   5.734  12.735
    5AHEP    O730373   7.446   5.574  12.729
    6AHEP    C130374   7.358   5.662  12.662
    6AHEP    H130375   7.383   5.768  12.682
    6AHEP    C530376   7.326   5.514  12.475
    6AHEP    H530377   7.394   5.439  12.521
    6AHEP    O530378   7.365   5.646  12.520
    6AHEP    C230379   7.217   5.637  12.712
    6AHEP    H230380   7.219   5.641  12.823
    6AHEP    O230381   7.125   5.737  12.672
    6AHEP   HO230382   7.040   5.695  12.653
    6AHEP    C330383   7.173   5.498  12.671
    6AHEP    H330384   7.241   5.423  12.716
    6AHEP    O330385   7.040   5.469  12.716
    6AHEP   HO330386   6.997   5.427  12.641
    6AHEP    C430387   7.183   5.485  12.520
    6AHEP    H430388   7.116   5.561  12.472
    6AHEP    O430389   7.140   5.356  12.479
    6AHEP   HO430390   7.158   5.344  12.385
    6AHEP    C630391   7.342   5.500  12.324
    6AHEP    H630392   7.311   5.398  12.293
    6AHEP    O630393   7.251   5.591  12.260
    6AHEP   HO630394   7.295   5.633  12.185
    6AHEP    C730395   7.486   5.516  12.275
    6AHEP   H7130396   7.491   5.494  12.167
    6AHEP   H7230397   7.549   5.440  12.327
    6AHEP    O730398   7.545   5.644  12.299
    6AHEP   HO730399   7.534   5.688  12.215
    7AGLC    C130400   7.529   6.148  13.319
    7AGLC    H130401   7.622   6.180  13.267
    7AGLC    C530402   7.302   6.208  13.364
    7AGLC    H530403   7.267   6.112  13.322
    7AGLC    O530404   7.427   6.247  13.303
    7AGLC    C230405   7.554   6.137  13.470
    7AGLC    H230406   7.571   6.241  13.504
    7AGLC    O230407   7.674   6.069  13.506
    7AGLC   HO230408   7.679   5.984  13.464
    7AGLC    C330409   7.430   6.087  13.543
    7AGLC    H330410   7.401   5.989  13.497
    7AGLC    O330411   7.451   6.069  13.686
    7AGLC    C430412   7.322   6.190  13.514
    7AGLC    H430413   7.360   6.288  13.551
    7AGLC    O430414   7.199   6.165  13.581
    7AGLC   HO430415   7.180   6.241  13.636
    7AGLC    C630416   7.203   6.316  13.326
    7AGLC   H6130417   7.198   6.324  13.215
    7AGLC   H6230418   7.101   6.288  13.361
    7AGLC    O630419   7.238   6.444  13.380
    7AGLC   HO630420   7.302   6.479  13.318
    8AGLC    C130421   7.418   5.940  13.734
    8AGLC    H130422   7.328   5.901  13.682
    8AGLC    C530423   7.649   5.879  13.778
    8AGLC    H530424   7.679   5.979  13.741
    8AGLC    O530425   7.524   5.844  13.715
    8AGLC    C230426   7.396   5.941  13.885
    8AGLC    H230427   7.369   5.838  13.914
    8AGLC    O230428   7.293   6.029  13.931
    8AGLC    C330429   7.521   5.984  13.959
    8AGLC    H330430   7.553   6.082  13.917
    8AGLC    O330431   7.494   6.006  14.100
    8AGLC    C430432   7.631   5.885  13.929
    8AGLC    H430433   7.599   5.784  13.964
    8AGLC    O430434   7.754   5.919  13.993
    8AGLC   HO430435   7.818   5.859  13.955
    8AGLC    C630436   7.754   5.780  13.732
    8AGLC   H6130437   7.739   5.758  13.624
    8AGLC   H6230438   7.855   5.826  13.740
    8AGLC    O630439   7.752   5.657  13.805
    8AGLC   HO630440   7.721   5.593  13.741
    9AGAL    C130441   7.163   6.017  13.881
    9AGAL    H130442   7.161   6.013  13.770
    9AGAL    C530443   7.096   5.896  14.076
    9AGAL    H530444   7.202   5.898  14.109
    9AGAL    O530445   7.094   5.903  13.933
    9AGAL    C230446   7.098   6.145  13.931
    9AGAL    H230447   6.993   6.150  13.895
    9AGAL    O230448   7.175   6.246  13.864
    9AGAL    C330449   7.099   6.143  14.084
    9AGAL    H330450   7.204   6.137  14.118
    9AGAL    O330451   7.046   6.262  14.142
    9AGAL   HO330452   7.107   6.332  14.119
    9AGAL    C430453   7.028   6.018  14.136
    9AGAL    H430454   7.044   6.015  14.246
    9AGAL    O430455   6.887   6.017  14.116
    9AGAL   HO430456   6.869   5.995  14.024
    9AGAL    C630457   7.040   5.762  14.117
    9AGAL   H6130458   7.113   5.683  14.087
    9AGAL   H6230459   7.026   5.757  14.227
    9AGAL    O630460   6.917   5.730  14.052
    9AGAL   HO630461   6.936   5.721  13.959
   10AGAL    C130462   7.184   6.379  13.907
   10AGAL    H130463   7.081   6.420  13.917
   10AGAL    C530464   7.389   6.342  14.026
   10AGAL    H530465   7.390   6.239  13.986
   10AGAL    O530466   7.253   6.389  14.034
   10AGAL    C230467   7.259   6.461  13.802
   10AGAL    H230468   7.258   6.568  13.830
   10AGAL    O230469   7.191   6.452  13.677
   10AGAL   HO230470   7.249   6.482  13.606
   10AGAL    C330471   7.404   6.416  13.793
   10AGAL    H330472   7.407   6.309  13.762
   10AGAL    O330473   7.474   6.493  13.694
   10AGAL   HO330474   7.550   6.445  13.660
   10AGAL    C430475   7.472   6.427  13.929
   10AGAL    H430476   7.572   6.381  13.920
   10AGAL    O430477   7.490   6.560  13.978
   10AGAL   HO430478   7.405   6.594  14.005
   10AGAL    C630479   7.446   6.333  14.167
   10AGAL   H6130480   7.397   6.247  14.218
   10AGAL   H6230481   7.555   6.313  14.163
   10AGAL    O630482   7.422   6.449  14.247
   10AGAL   HO630483   7.346   6.494  14.208
   11BGLC    C130484   7.499   5.896  14.189
   11BGLC    H130485   7.605   5.865  14.204
   11BGLC    C530486   7.422   5.673  14.229
   11BGLC    H530487   7.529   5.645  14.247
   11BGLC    O530488   7.421   5.786  14.141
   11BGLC    C230489   7.438   5.944  14.320
   11BGLC    H230490   7.334   5.977  14.299
   11BGLC    O230491   7.508   6.057  14.373
   11BGLC   HO230492   7.562   6.093  14.302
   11BGLC    C330493   7.433   5.832  14.421
   11BGLC    H330494   7.537   5.800  14.447
   11BGLC    O330495   7.360   5.871  14.540
   11BGLC    C430496   7.357   5.716  14.361
   11BGLC    H430497   7.255   5.751  14.336
   11BGLC    O430498   7.344   5.607  14.453
   11BGLC   HO430499   7.425   5.603  14.505
   11BGLC    C630500   7.351   5.560  14.156
   11BGLC   H6130501   7.249   5.547  14.197
   11BGLC   H6230502   7.341   5.586  14.049
   11BGLC    O630503   7.421   5.435  14.164
   11BGLC   HO630504   7.432   5.402  14.074
   12BGLCN   C130505   7.434   5.895  14.657
   12BGLCN   H130506   7.497   5.985  14.644
   12BGLCN   C530507   7.585   5.800  14.814
   12BGLCN   H530508   7.645   5.893  14.809
   12BGLCN   O530509   7.514   5.781  14.691
   12BGLCN   C230510   7.329   5.917  14.765
   12BGLCN   H230511   7.270   5.823  14.771
   12BGLCN    N30512   7.240   6.026  14.725
   12BGLCN   HN30513   7.284   6.104  14.681
   12BGLCN    C30514   7.106   6.022  14.731
   12BGLCN    O30515   7.044   5.930  14.782
   12BGLCN   CT30516   7.034   6.139  14.671
   12BGLCN  HT130517   6.970   6.187  14.748
   12BGLCN  HT230518   6.969   6.104  14.588
   12BGLCN  HT330519   7.106   6.214  14.630
   12BGLCN   C330520   7.395   5.936  14.902
   12BGLCN   H330521   7.457   6.029  14.899
   12BGLCN   O330522   7.295   5.947  15.006
   12BGLCN   C430523   7.484   5.815  14.928
   12BGLCN   H430524   7.419   5.725  14.929
   12BGLCN   O430525   7.550   5.821  15.054
   12BGLCN  HO430526   7.627   5.878  15.047
   12BGLCN   C630527   7.681   5.683  14.829
   12BGLCN  H6130528   7.718   5.675  14.934
   12BGLCN  H6230529   7.629   5.588  14.805
   12BGLCN   O630530   7.795   5.698  14.744
   12BGLCN  HO630531   7.842   5.614  14.738
   13AGAL    C130532   7.328   6.031  15.115
   13AGAL    H130533   7.436   6.024  15.141
   13AGAL    C530534   7.158   6.189  15.053
   13AGAL    H530535   7.133   6.118  14.971
   13AGAL    O530536   7.296   6.169  15.086
   13AGAL    C230537   7.245   5.994  15.239
   13AGAL    H230538   7.268   6.070  15.316
   13AGAL    O230539   7.279   5.864  15.293
   13AGAL    C330540   7.097   6.007  15.206
   13AGAL    H330541   7.075   5.944  15.118
   13AGAL    O330542   7.012   5.960  15.311
   13AGAL   HO330543   6.989   5.869  15.295
   13AGAL    C430544   7.067   6.152  15.170
   13AGAL    H430545   6.961   6.159  15.137
   13AGAL    O430546   7.085   6.242  15.280
   13AGAL   HO430547   7.176   6.237  15.309
   13AGAL    C630548   7.135   6.328  14.994
   13AGAL   H6130549   7.213   6.348  14.917
   13AGAL   H6230550   7.036   6.330  14.943
   13AGAL    O630551   7.138   6.432  15.091
   13AGAL   HO630552   7.106   6.395  15.173
   14ARHM    C130553   7.339   5.863  15.422
   14ARHM    H130554   7.401   5.954  15.434
   14ARHM    C530555   7.362   5.626  15.430
   14ARHM    H530556   7.317   5.616  15.328
   14ARHM    O530557   7.429   5.752  15.439
   14ARHM    C230558   7.231   5.861  15.530
   14ARHM    H230559   7.161   5.946  15.512
   14ARHM    O230560   7.278   5.871  15.666
   14ARHM    C330561   7.153   5.731  15.517
   14ARHM    H330562   7.109   5.724  15.416
   14ARHM    O330563   7.045   5.727  15.610
   14ARHM   HO330564   7.078   5.685  15.690
   14ARHM    C430565   7.251   5.616  15.534
   14ARHM    H430566   7.298   5.624  15.634
   14ARHM    O430567   7.187   5.488  15.529
   14ARHM   HO430568   7.194   5.451  15.441
   14ARHM    C630569   7.471   5.519  15.446
   14ARHM   H6130570   7.546   5.527  15.364
   14ARHM   H6230571   7.522   5.531  15.544
   14ARHM   H6330572   7.427   5.417  15.442
   15ARHM    C130573   7.352   5.986  15.696
   15ARHM    H130574   7.319   6.071  15.631
   15ARHM    C530575   7.544   5.860  15.762
   15ARHM    H530576   7.493   5.764  15.739
   15ARHM    O530577   7.492   5.964  15.678
   15ARHM    C230578   7.327   6.023  15.840
   15ARHM    H230579   7.218   6.040  15.855
   15ARHM    O230580   7.395   6.148  15.860
   15ARHM    C330581   7.373   5.913  15.932
   15ARHM    H330582   7.320   5.819  15.905
   15ARHM    O330583   7.341   5.947  16.067
   15ARHM    C430584   7.522   5.894  15.910
   15ARHM    H430585   7.574   5.990  15.929
   15ARHM    O430586   7.578   5.798  15.998
   15ARHM   HO430587   7.669   5.821  16.012
   15ARHM    C630588   7.692   5.845  15.724
   15ARHM   H6130589   7.739   5.762  15.782
   15ARHM   H6230590   7.702   5.822  15.616
   15ARHM   H6330591   7.747   5.940  15.745
   16BMANN   C130592   7.396   6.202  15.990
   16BMANN   H130593   7.456   6.139  16.059
   16BMANN   C530594   7.263   6.273  16.174
   16BMANN   H530595   7.317   6.202  16.241
   16BMANN   O530596   7.263   6.221  16.040
   16BMANN   C230597   7.466   6.334  15.977
   16BMANN   H230598   7.569   6.311  15.944
   16BMANN    N30599   7.401   6.414  15.874
   16BMANN   HN30600   7.302   6.405  15.869
   16BMANN    C30601   7.465   6.474  15.773
   16BMANN    O30602   7.587   6.492  15.769
   16BMANN   CT30603   7.377   6.515  15.658
   16BMANN  HT130604   7.431   6.587  15.592
   16BMANN  HT230605   7.284   6.561  15.696
   16BMANN  HT330606   7.351   6.425  15.598
   16BMANN   C330607   7.474   6.395  16.116
   16BMANN   H330608   7.532   6.326  16.181
   16BMANN   O330609   7.545   6.518  16.110
   16BMANN  HO330610   7.597   6.531  16.190
   16BMANN   C430611   7.333   6.407  16.173
   16BMANN   H430612   7.274   6.472  16.105
   16BMANN   O430613   7.333   6.463  16.305
   16BMANN  HO430614   7.246   6.456  16.345
   16BMANN   C630615   7.119   6.285  16.223
   16BMANN  H6130616   7.117   6.313  16.330
   16BMANN  H6230617   7.068   6.365  16.165
   16BMANN   O630618   7.043   6.165  16.207
   16BMANN  HO630619   7.024   6.158  16.113
   17BGLCN   C130620   7.283   5.848  16.147
   17BGLCN   H130621   7.336   5.752  16.133
   17BGLCN   C530622   7.077   5.743  16.208
   17BGLCN   H530623   7.121   5.642  16.193
   17BGLCN   O530624   7.143   5.837  16.122
   17BGLCN   C230625   7.301   5.900  16.288
   17BGLCN   H230626   7.234   5.989  16.296
   17BGLCN    N30627   7.435   5.951  16.316
   17BGLCN   HN30628   7.507   5.923  16.253
   17BGLCN    C30629   7.462   6.041  16.412
   17BGLCN    O30630   7.376   6.090  16.484
   17BGLCN   CT30631   7.606   6.080  16.430
   17BGLCN  HT130632   7.626   6.175  16.375
   17BGLCN  HT230633   7.674   6.001  16.390
   17BGLCN  HT330634   7.627   6.096  16.538
   17BGLCN   C330635   7.244   5.795  16.384
   17BGLCN   H330636   7.290   5.698  16.354
   17BGLCN   O330637   7.279   5.820  16.521
   17BGLCN   C430638   7.095   5.784  16.354
   17BGLCN   H430639   7.049   5.885  16.368
   17BGLCN   O430640   7.027   5.694  16.441
   17BGLCN  HO430641   6.998   5.741  16.520
   17BGLCN   C630642   6.932   5.739  16.165
   17BGLCN  H6130643   6.876   5.663  16.223
   17BGLCN  H6230644   6.885   5.838  16.185
   17BGLCN   O630645   6.919   5.709  16.026
   17BGLCN  HO630646   6.970   5.775  15.978
   18AGAL    C130647   7.307   5.704  16.598
   18AGAL    H130648   7.214   5.645  16.609
   18AGAL    C530649   7.535   5.684  16.527
   18AGAL    H530650   7.516   5.782  16.477
   18AGAL    O530651   7.407   5.619  16.538
   18AGAL    C230652   7.356   5.742  16.738
   18AGAL    H230653   7.372   5.644  16.788
   18AGAL    O230654   7.257   5.814  16.814
   18AGAL    C330655   7.491   5.814  16.731
   18AGAL    H330656   7.477   5.905  16.670
   18AGAL    O330657   7.536   5.854  16.860
   18AGAL   HO330658   7.606   5.920  16.855
   18AGAL    C430659   7.592   5.722  16.664
   18AGAL    H430660   7.686   5.777  16.648
   18AGAL    O430661   7.620   5.608  16.745
   18AGAL   HO430662   7.646   5.643  16.831
   18AGAL    C630663   7.627   5.614  16.428
   18AGAL   H6130664   7.571   5.592  16.335
   18AGAL   H6230665   7.709   5.685  16.401
   18AGAL    O630666   7.688   5.494  16.475
   18AGAL   HO630667   7.623   5.423  16.477
   19ARHM    C130668   7.257   5.775  16.950
   19ARHM    H130669   7.359   5.741  16.979
   19ARHM    C530670   7.033   5.697  16.952
   19ARHM    H530671   7.019   5.730  16.847
   19ARHM    O530672   7.170   5.665  16.976
   19ARHM    C230673   7.218   5.892  17.038
   19ARHM    H230674   7.278   5.979  17.006
   19ARHM    O230675   7.245   5.866  17.178
   19ARHM    C330676   7.073   5.930  17.020
   19ARHM    H330677   7.057   5.962  16.914
   19ARHM    O330678   7.040   6.041  17.104
   19ARHM   HO330679   7.067   6.019  17.194
   19ARHM    C430680   6.988   5.808  17.047
   19ARHM    H430681   7.008   5.774  17.151
   19ARHM    O430682   6.848   5.831  17.037
   19ARHM   HO430683   6.819   5.829  16.946
   19ARHM    C630684   6.956   5.565  16.971
   19ARHM   H6130685   6.994   5.490  16.899
   19ARHM   H6230686   6.971   5.527  17.074
   19ARHM   H6330687   6.848   5.580  16.952
   20ARHM    C130688   7.383   5.864  17.206
   20ARHM    H130689   7.439   5.921  17.129
   20ARHM    C530690   7.381   5.649  17.309
   20ARHM    H530691   7.271   5.645  17.294
   20ARHM    O530692   7.440   5.732  17.208
   20ARHM    C230693   7.405   5.930  17.341
   20ARHM    H230694   7.344   6.023  17.343
   20ARHM    O230695   7.542   5.968  17.360
   20ARHM    C330696   7.350   5.846  17.452
   20ARHM    H330697   7.240   5.840  17.441
   20ARHM    O330698   7.384   5.912  17.574
   20ARHM    C430699   7.411   5.708  17.446
   20ARHM    H430700   7.521   5.717  17.459
   20ARHM    O430701   7.360   5.624  17.550
   20ARHM   HO430702   7.408   5.541  17.546
   20ARHM    C630703   7.436   5.507  17.288
   20ARHM   H6130704   7.546   5.505  17.301
   20ARHM   H6230705   7.391   5.435  17.360
   20ARHM   H6330706   7.412   5.472  17.185
   21BMANN   C130707   7.575   6.083  17.284
   21BMANN   H130708   7.488   6.116  17.224
   21BMANN   C530709   7.704   6.165  17.104
   21BMANN   H530710   7.608   6.190  17.054
   21BMANN   O530711   7.680   6.054  17.192
   21BMANN   C230712   7.613   6.197  17.376
   21BMANN   H230713   7.520   6.221  17.431
   21BMANN    N30714   7.715   6.163  17.475
   21BMANN   HN30715   7.787   6.100  17.446
   21BMANN    C30716   7.711   6.205  17.603
   21BMANN    O30717   7.627   6.285  17.643
   21BMANN   CT30718   7.813   6.149  17.698
   21BMANN  HT130719   7.907   6.207  17.690
   21BMANN  HT230720   7.833   6.042  17.674
   21BMANN  HT330721   7.774   6.156  17.801
   21BMANN   C330722   7.643   6.318  17.288
   21BMANN   H330723   7.551   6.345  17.233
   21BMANN   O330724   7.678   6.429  17.370
   21BMANN  HO330725   7.750   6.402  17.427
   21BMANN   C430726   7.750   6.285  17.185
   21BMANN   H430727   7.845   6.258  17.237
   21BMANN   O430728   7.775   6.394  17.096
   21BMANN  HO430729   7.836   6.456  17.136
   21BMANN   C630730   7.799   6.126  16.992
   21BMANN  H6130731   7.791   6.200  16.909
   21BMANN  H6230732   7.904   6.128  17.029
   21BMANN   O630733   7.772   5.996  16.939
   21BMANN  HO630734   7.813   5.932  16.998
   22BGLCN   C130735   7.283   5.913  17.670
   22BGLCN   H130736   7.233   5.814  17.675
   22BGLCN   C530737   7.085   6.021  17.744
   22BGLCN   H530738   7.036   5.921  17.748
   22BGLCN   O530739   7.188   6.016  17.644
   22BGLCN   C230740   7.354   5.944  17.799
   22BGLCN   H230741   7.395   6.046  17.790
   22BGLCN    N30742   7.466   5.853  17.819
   22BGLCN   HN30743   7.461   5.766  17.771
   22BGLCN    C30744   7.579   5.885  17.882
   22BGLCN    O30745   7.599   5.995  17.932
   22BGLCN   CT30746   7.684   5.778  17.889
   22BGLCN  HT130747   7.772   5.809  17.829
   22BGLCN  HT230748   7.646   5.682  17.849
   22BGLCN  HT330749   7.716   5.764  17.995
   22BGLCN   C330750   7.251   5.943  17.911
   22BGLCN   H330751   7.201   5.844  17.912
   22BGLCN   O330752   7.323   5.960  18.034
   22BGLCN   C430753   7.147   6.049  17.880
   22BGLCN   H430754   7.196   6.149  17.878
   22BGLCN   O430755   7.044   6.051  17.978
   22BGLCN  HO430756   7.044   6.136  18.023
   22BGLCN   C630757   6.982   6.122  17.699
   22BGLCN  H6130758   6.908   6.139  17.781
   22BGLCN  H6230759   7.030   6.219  17.676
   22BGLCN   O630760   6.910   6.076  17.584
   22BGLCN  HO630761   6.830   6.127  17.573
   23AGAL    C130762   7.259   5.926  18.154
   23AGAL    H130763   7.177   5.999  18.175
   23AGAL    C530764   7.304   5.692  18.130
   23AGAL    H530765   7.359   5.717  18.037
   23AGAL    O530766   7.203   5.793  18.152
   23AGAL    C230767   7.358   5.935  18.268
   23AGAL    H230768   7.304   5.915  18.363
   23AGAL    O230769   7.419   6.065  18.272
   23AGAL    C330770   7.467   5.830  18.253
   23AGAL    H330771   7.524   5.851  18.160
   23AGAL    O330772   7.558   5.835  18.362
   23AGAL   HO330773   7.515   5.792  18.436
   23AGAL    C430774   7.405   5.692  18.245
   23AGAL    H430775   7.485   5.619  18.220
   23AGAL    O430776   7.345   5.651  18.368
   23AGAL   HO430777   7.269   5.600  18.341
   23AGAL    C630778   7.234   5.559  18.104
   23AGAL   H6130779   7.158   5.574  18.024
   23AGAL   H6230780   7.308   5.485  18.068
   23AGAL    O630781   7.168   5.506  18.220
   23AGAL   HO630782   7.104   5.439  18.194
   24ARHM    C130783   7.366   6.157  18.364
   24ARHM    H130784   7.257   6.140  18.373
   24ARHM    C530785   7.520   6.329  18.306
   24ARHM    H530786   7.568   6.261  18.233
   24ARHM    O530787   7.382   6.293  18.321
   24ARHM    C230788   7.433   6.133  18.498
   24ARHM    H230789   7.432   6.025  18.521
   24ARHM    O230790   7.365   6.204  18.603
   24ARHM    C330791   7.579   6.172  18.486
   24ARHM    H330792   7.627   6.109  18.408
   24ARHM    O330793   7.651   6.150  18.608
   24ARHM   HO330794   7.715   6.222  18.608
   24ARHM    C430795   7.589   6.317  18.441
   24ARHM    H430796   7.535   6.381  18.514
   24ARHM    O430797   7.725   6.360  18.436
   24ARHM   HO430798   7.729   6.453  18.411
   24ARHM    C630799   7.523   6.471  18.246
   24ARHM   H6130800   7.627   6.503  18.225
   24ARHM   H6230801   7.466   6.473  18.151
   24ARHM   H6330802   7.476   6.544  18.316
   25ARHM    C130803   7.255   6.134  18.656
   25ARHM    H130804   7.220   6.058  18.582
   25ARHM    C530805   7.168   6.316  18.780
   25ARHM    H530806   7.254   6.378  18.747
   25ARHM    O530807   7.141   6.217  18.679
   25ARHM    C230808   7.300   6.063  18.781
   25ARHM    H230809   7.393   6.006  18.761
   25ARHM    O230810   7.198   5.974  18.829
   25ARHM    C330811   7.328   6.163  18.889
   25ARHM    H330812   7.410   6.230  18.854
   25ARHM    O330813   7.372   6.093  19.006
   25ARHM    C430814   7.202   6.245  18.911
   25ARHM    H430815   7.119   6.176  18.936
   25ARHM    O430816   7.214   6.337  19.019
   25ARHM   HO430817   7.189   6.424  18.986
   25ARHM    C630818   7.044   6.407  18.786
   25ARHM   H6130819   7.023   6.447  18.685
   25ARHM   H6230820   6.954   6.349  18.819
   25ARHM   H6330821   7.060   6.493  18.855
   26BMANN   C130822   7.192   5.848  18.769
   26BMANN   H130823   7.293   5.815  18.735
   26BMANN   C530824   7.084   5.713  18.604
   26BMANN   H530825   7.185   5.683  18.569
   26BMANN   O530826   7.097   5.845  18.662
   26BMANN   C230827   7.142   5.757  18.880
   26BMANN   H230828   7.220   5.758  18.958
   26BMANN    N30829   7.018   5.807  18.938
   26BMANN   HN30830   6.956   5.852  18.874
   26BMANN    C30831   6.987   5.801  19.068
   26BMANN    O30832   7.065   5.758  19.153
   26BMANN   CT30833   6.851   5.851  19.107
   26BMANN  HT130834   6.800   5.898  19.021
   26BMANN  HT230835   6.862   5.927  19.188
   26BMANN  HT330836   6.791   5.767  19.147
   26BMANN   C330837   7.135   5.616  18.824
   26BMANN   H330838   7.235   5.588  18.787
   26BMANN   O330839   7.100   5.521  18.925
   26BMANN  HO330840   7.161   5.447  18.919
   26BMANN   C430841   7.038   5.613  18.708
   26BMANN   H430842   6.937   5.641  18.745
   26BMANN   O430843   7.030   5.482  18.651
   26BMANN  HO430844   7.046   5.418  18.720
   26BMANN   C630845   6.996   5.720  18.480
   26BMANN  H6130846   7.024   5.808  18.418
   26BMANN  H6230847   7.015   5.629  18.419
   26BMANN   O630848   6.856   5.724  18.508
   26BMANN  HO630849   6.808   5.701  18.428
   27BGLCN   C130850   7.467   6.159  19.084
   27BGLCN   H130851   7.458   6.270  19.073
   27BGLCN   C530852   7.698   6.177  19.136
   27BGLCN   H530853   7.695   6.287  19.122
   27BGLCN   O530854   7.599   6.115  19.052
   27BGLCN   C230855   7.435   6.118  19.226
   27BGLCN   H230856   7.451   6.008  19.233
   27BGLCN    N30857   7.295   6.144  19.253
   27BGLCN   HN30858   7.253   6.212  19.193
   27BGLCN    C30859   7.217   6.072  19.335
   27BGLCN    O30860   7.259   5.983  19.408
   27BGLCN   CT30861   7.071   6.104  19.332
   27BGLCN  HT130862   7.046   6.167  19.243
   27BGLCN  HT230863   7.043   6.157  19.425
   27BGLCN  HT330864   7.013   6.009  19.326
   27BGLCN   C330865   7.532   6.187  19.321
   27BGLCN   H330866   7.522   6.296  19.307
   27BGLCN   O330867   7.493   6.152  19.456
   27BGLCN   C430868   7.673   6.144  19.282
   27BGLCN   H430869   7.684   6.035  19.299
   27BGLCN   O430870   7.771   6.213  19.360
   27BGLCN  HO430871   7.756   6.308  19.352
   27BGLCN   C630872   7.830   6.122  19.085
   27BGLCN  H6130873   7.907   6.125  19.165
   27BGLCN  H6230874   7.819   6.015  19.057
   27BGLCN   O630875   7.878   6.196  18.972
   27BGLCN  HO630876   7.810   6.194  18.905
   28AGAL    C130877   7.554   6.220   0.092
   28AGAL    H130878   7.658   6.184   0.105
   28AGAL    C530879   7.420   6.417   0.065
   28AGAL    H530880   7.367   6.370  19.452
   28AGAL    O530881   7.554   6.363   0.073
   28AGAL    C230882   7.480   6.190   0.222
   28AGAL    H230883   7.530   6.256   0.295
   28AGAL    O230884   7.490   6.054   0.270
   28AGAL    C330885   7.336   6.236   0.210
   28AGAL    H330886   7.292   6.190   0.119
   28AGAL    O330887   7.255   6.193   0.319
   28AGAL   HO330888   7.216   6.108   0.296
   28AGAL    C430889   7.336   6.387   0.190
   28AGAL    H430890   7.232   6.419   0.172
   28AGAL    O430891   7.382   6.458   0.305
   28AGAL   HO430892   7.332   6.539   0.309
   28AGAL    C630893   7.432   6.565   0.031
   28AGAL   H6130894   7.473   6.575  19.401
   28AGAL   H6230895   7.331   6.612   0.030
   28AGAL    O630896   7.518   6.638   0.120
   28AGAL   HO630897   7.599   6.587   0.131
   29ARHM    C130898   7.522   6.050   0.408
   29ARHM    H130899   7.482   6.140   0.458
   29ARHM    C530900   7.720   5.925   0.364
   29ARHM    H530901   7.697   5.926   0.256
   29ARHM    O530902   7.664   6.042   0.427
   29ARHM    C230903   7.457   5.930   0.476
   29ARHM    H230904   7.348   5.935   0.455
   29ARHM    O230905   7.479   5.931   0.619
   29ARHM    C330906   7.511   5.803   0.413
   29ARHM    H330907   7.485   5.806   0.305
   29ARHM    O330908   7.449   5.688   0.470
   29ARHM   HO330909   7.418   5.633   0.398
   29ARHM    C430910   7.661   5.799   0.427
   29ARHM    H430911   7.688   5.797   0.535
   29ARHM    O430912   7.716   5.681   0.366
   29ARHM   HO430913   7.647   5.644   0.310
   29ARHM    C630914   7.873   5.935   0.380
   29ARHM   H6130915   7.910   6.030   0.334
   29ARHM   H6230916   7.902   5.933   0.487
   29ARHM   H6330917   7.923   5.851   0.328
   30ARHM    C130918   7.372   5.983   0.696
   30ARHM    H130919   7.278   5.933   0.666
   30ARHM    C530920   7.474   6.199   0.716
   30ARHM    H530921   7.562   6.166   0.657
   30ARHM    O530922   7.357   6.125   0.677
   30ARHM    C230923   7.399   5.956   0.843
   30ARHM    H230924   7.417   5.848   0.858
   30ARHM    O230925   7.289   5.999   0.925
   30ARHM    C330926   7.522   6.032   0.889
   30ARHM    H330927   7.606   5.996   0.825
   30ARHM    O330928   7.557   5.993   1.024
   30ARHM    C430929   7.505   6.180   0.863
   30ARHM    H430930   7.419   6.221   0.922
   30ARHM    O430931   7.622   6.256   0.896
   30ARHM   HO430932   7.696   6.207   0.859
   30ARHM    C630933   7.441   6.344   0.678
   30ARHM   H6130934   7.527   6.411   0.701
   30ARHM   H6230935   7.416   6.351   0.570
   30ARHM   H6330936   7.352   6.378   0.736
   31BMANN   C130937   7.176   5.916   0.936
   31BMANN   H130938   7.203   5.808   0.938
   31BMANN   C530939   6.956   5.875   0.848
   31BMANN   H530940   6.977   5.766   0.855
   31BMANN   O530941   7.081   5.945   0.832
   31BMANN   C230942   7.116   5.962   1.067
   31BMANN   H230943   7.187   5.933   1.147
   31BMANN    N30944   7.103   6.107   1.072
   31BMANN   HN30945   7.112   6.153   0.984
   31BMANN    C30946   7.086   6.179   1.183
   31BMANN    O30947   7.076   6.128   1.293
   31BMANN   CT30948   7.081   6.328   1.168
   31BMANN  HT130949   7.031   6.356   1.072
   31BMANN  HT230950   7.185   6.367   1.169
   31BMANN  HT330951   7.026   6.373   1.253
   31BMANN   C330952   6.987   5.886   1.091
   31BMANN   H330953   7.009   5.777   1.085
   31BMANN   O330954   6.936   5.907   1.223
   31BMANN  HO330955   6.964   5.994   1.254
   31BMANN   C430956   6.890   5.919   0.979
   31BMANN   H430957   6.875   6.029   0.974
   31BMANN   O430958   6.761   5.862   0.994
   31BMANN  HO430959   6.768   5.770   1.022
   31BMANN   C630960   6.867   5.896   0.726
   31BMANN  H6130961   6.771   5.841   0.740
   31BMANN  H6230962   6.842   6.004   0.717
   31BMANN   O630963   6.927   5.852   0.604
   31BMANN  HO630964   6.965   5.765   0.613
   32BGLCN   C130965   7.499   6.064   1.130
   32BGLCN   H130966   7.393   6.090   1.107
   32BGLCN   C530967   7.512   6.261   1.266
   32BGLCN   H530968   7.408   6.288   1.237
   32BGLCN   O530969   7.572   6.184   1.160
   32BGLCN   C230970   7.503   5.976   1.254
   32BGLCN   H230971   7.610   5.968   1.282
   32BGLCN    N30972   7.452   5.842   1.228
   32BGLCN   HN30973   7.367   5.835   1.175
   32BGLCN    C30974   7.514   5.729   1.264
   32BGLCN    O30975   7.619   5.727   1.329
   32BGLCN   CT30976   7.450   5.600   1.219
   32BGLCN  HT130977   7.402   5.614   1.120
   32BGLCN  HT230978   7.375   5.566   1.293
   32BGLCN  HT330979   7.529   5.522   1.209
   32BGLCN   C330980   7.430   6.051   1.365
   32BGLCN   H330981   7.331   6.078   1.324
   32BGLCN   O330982   7.410   5.975   1.485
   32BGLCN   C430983   7.508   6.178   1.392
   32BGLCN   H430984   7.612   6.151   1.421
   32BGLCN   O430985   7.452   6.252   1.499
   32BGLCN  HO430986   7.455   6.198   1.578
   32BGLCN   C630987   7.592   6.390   1.277
   32BGLCN  H6130988   7.543   6.459   1.349
   32BGLCN  H6230989   7.694   6.367   1.314
   32BGLCN   O630990   7.602   6.454   1.150
   32BGLCN  HO630991   7.610   6.384   1.085
   33AGAL    C130992   7.280   5.993   1.538
   33AGAL    H130993   7.245   6.097   1.523
   33AGAL    C530994   7.213   5.766   1.498
   33AGAL    H530995   7.315   5.743   1.461
   33AGAL    O530996   7.186   5.905   1.474
   33AGAL    C230997   7.279   5.966   1.688
   33AGAL    H230998   7.175   5.985   1.722
   33AGAL    O230999   7.366   6.060   1.756
   33AGAL    C331000   7.313   5.820   1.716
   33AGAL    H331001   7.414   5.799   1.676
   33AGAL    O331002   7.315   5.790   1.856
   33AGAL   HO331003   7.224   5.795   1.885
   33AGAL    C431004   7.211   5.733   1.646
   33AGAL    H431005   7.240   5.626   1.659
   33AGAL    O431006   7.081   5.748   1.702
   33AGAL   HO431007   7.018   5.748   1.630
   33AGAL    C631008   7.116   5.682   1.416
   33AGAL   H6131009   7.138   5.693   1.307
   33AGAL   H6231010   7.131   5.575   1.442
   33AGAL    O631011   6.978   5.715   1.437
   33AGAL   HO631012   6.956   5.790   1.381
   34ARHM    C131013   7.314   6.107   1.878
   34ARHM    H131014   7.271   6.022   1.936
   34ARHM    C531015   7.255   6.323   1.793
   34ARHM    H531016   7.288   6.297   1.690
   34ARHM    O531017   7.210   6.204   1.859
   34ARHM    C231018   7.428   6.168   1.958
   34ARHM    H231019   7.509   6.093   1.967
   34ARHM    O231020   7.389   6.210   2.090
   34ARHM    C331021   7.482   6.288   1.884
   34ARHM    H331022   7.515   6.257   1.783
   34ARHM    O331023   7.595   6.346   1.950
   34ARHM   HO331024   7.594   6.438   1.922
   34ARHM    C431025   7.369   6.389   1.869
   34ARHM    H431026   7.332   6.417   1.970
   34ARHM    O431027   7.414   6.507   1.803
   34ARHM   HO431028   7.349   6.577   1.813
   34ARHM    C631029   7.130   6.412   1.780
   34ARHM   H6131030   7.092   6.439   1.881
   34ARHM   H6231031   7.152   6.505   1.724
   34ARHM   H6331032   7.049   6.357   1.727
   35ARHM    C131033   7.351   6.107   2.179
   35ARHM    H131034   7.414   6.018   2.162
   35ARHM    C531035   7.124   6.185   2.179
   35ARHM    H531036   7.149   6.264   2.105
   35ARHM    O531037   7.212   6.073   2.163
   35ARHM    C231038   7.372   6.161   2.319
   35ARHM    H231039   7.477   6.196   2.326
   35ARHM    O231040   7.349   6.066   2.424
   35ARHM    C331041   7.283   6.281   2.342
   35ARHM    H331042   7.310   6.361   2.270
   35ARHM    O331043   7.303   6.334   2.473
   35ARHM   HO331044   7.292   6.262   2.536
   35ARHM    C431045   7.138   6.242   2.319
   35ARHM    H431046   7.109   6.164   2.392
   35ARHM    O431047   7.053   6.355   2.337
   35ARHM   HO431048   7.088   6.404   2.412
   35ARHM    C631049   6.982   6.133   2.147
   35ARHM   H6131050   6.979   6.092   2.044
   35ARHM   H6231051   6.954   6.053   2.218
   35ARHM   H6331052   6.908   6.216   2.155
   36BMANN   C131053   7.440   5.960   2.426
   36BMANN   H131054   7.541   5.996   2.397
   36BMANN   C531055   7.490   5.744   2.337
   36BMANN   H531056   7.588   5.784   2.306
   36BMANN   O531057   7.397   5.853   2.340
   36BMANN   C231058   7.446   5.906   2.567
   36BMANN   H231059   7.484   5.988   2.631
   36BMANN    N31060   7.313   5.871   2.618
   36BMANN   HN31061   7.240   5.873   2.550
   36BMANN    C31062   7.283   5.847   2.746
   36BMANN    O31063   7.367   5.846   2.835
   36BMANN   CT31064   7.138   5.820   2.777
   36BMANN  HT131065   7.111   5.717   2.744
   36BMANN  HT231066   7.073   5.894   2.726
   36BMANN  HT331067   7.122   5.828   2.887
   36BMANN   C331068   7.549   5.794   2.569
   36BMANN   H331069   7.644   5.835   2.530
   36BMANN   O331070   7.577   5.748   2.700
   36BMANN  HO331071   7.502   5.767   2.756
   36BMANN   C431072   7.505   5.683   2.475
   36BMANN   H431073   7.406   5.644   2.509
   36BMANN   O431074   7.597   5.575   2.472
   36BMANN  HO431075   7.581   5.518   2.548
   36BMANN   C631076   7.449   5.645   2.228
   36BMANN  H6131077   7.432   5.701   2.134
   36BMANN  H6231078   7.532   5.573   2.210
   36BMANN   O631079   7.330   5.571   2.259
   36BMANN  HO631080   7.347   5.512   2.332
    1ECLIP HB6S31081   6.771   0.967  11.813
    1ECLIP  OB631082   6.654   1.089  11.935
    1ECLIP  CB631083   6.664   0.978  11.842
    1ECLIP HB6R31084   6.633   0.883  11.889
    1ECLIP  CB531085   6.584   0.993  11.714
    1ECLIP  OB531086   6.613   1.125  11.667
    1ECLIP  HB531087   6.476   0.986  11.738
    1ECLIP  CB131088   6.537   1.157  11.550
    1ECLIP  HB131089   6.429   1.142  11.573
    1ECLIP  OA631090   6.552   1.289  11.509
    1ECLIP  CA631091   6.681   1.345  11.533
    1ECLIP HA6R31092   6.760   1.266  11.540
    1ECLIP HA6S31093   6.679   1.400  11.630
    1ECLIP  CB431094   6.622   0.889  11.606
    1ECLIP  HB431095   6.732   0.892  11.589
    1ECLIP  OB431096   6.581   0.763  11.660
    1ECLIP   PB31097   6.657   0.618  11.663
    1ECLIP OPB431098   6.553   0.522  11.719
    1ECLIP OPB331099   6.787   0.622  11.740
    1ECLIP OPB231100   6.661   0.578  11.517
    1ECLIP  CB331101   6.548   0.924  11.477
    1ECLIP  OB331102   6.594   0.851  11.362
    1ECLIP  HB331103   6.438   0.914  11.493
    1ECLIP  C7131104   6.526   0.749  11.319
    1ECLIP  O7131105   6.436   0.691  11.380
    1ECLIP  C7231106   6.568   0.707  11.180
    1ECLIP H72R31107   6.554   0.793  11.111
    1ECLIP H72S31108   6.503   0.624  11.148
    1ECLIP  CB231109   6.576   1.067  11.436
    1ECLIP  HB231110   6.686   1.078  11.420
    1ECLIP  NB231111   6.507   1.106  11.313
    1ECLIP HNB231112   6.411   1.131  11.324
    1ECLIP  CA431113   6.592   1.509  11.361
    1ECLIP  HA431114   6.520   1.432  11.326
    1ECLIP  OA431115   6.529   1.589  11.462
    1ECLIP HOA431116   6.441   1.610  11.430
    1ECLIP  CA531117   6.713   1.439  11.420
    1ECLIP  HA531118   6.787   1.514  11.455
    1ECLIP  OA531119   6.772   1.357  11.319
    1ECLIP  CA131120   6.820   1.431  11.207
    1ECLIP  HA131121   6.851   1.350  11.137
    1ECLIP  OA131122   6.926   1.517  11.246
    1ECLIP OPA231123   7.165   1.522  11.341
    1ECLIP OPA331124   7.078   1.320  11.210
    1ECLIP OPA431125   7.116   1.519  11.088
    1ECLIP   PA31126   7.081   1.471  11.228
    1ECLIP  CA331127   6.634   1.592  11.240
    1ECLIP  HA331128   6.707   1.668  11.274
    1ECLIP  OA331129   6.514   1.661  11.200
    1ECLIP  C3131130   6.427   1.613  11.112
    1ECLIP  O3131131   6.455   1.549  11.012
    1ECLIP  C3231132   6.285   1.647  11.154
    1ECLIP H32R31133   6.237   1.702  11.070
    1ECLIP H32S31134   6.289   1.716  11.241
    1ECLIP  CA231135   6.704   1.502  11.138
    1ECLIP  HA231136   6.633   1.421  11.108
    1ECLIP  NA231137   6.742   1.574  11.017
    1ECLIP HNA231138   6.700   1.665  11.011
    1ECLIP  C7331139   6.715   0.662  11.181
    1ECLIP H73R31140   6.734   0.601  11.272
    1ECLIP  O7331141   6.792   0.781  11.182
    1ECLIP  C8131142   6.915   0.774  11.228
    1ECLIP  O8131143   6.973   0.673  11.264
    1ECLIP  C8231144   6.986   0.903  11.188
    1ECLIP H82R31145   7.093   0.893  11.219
    1ECLIP H82S31146   6.940   0.986  11.245
    1ECLIP  C8331147   6.975   0.931  11.037
    1ECLIP H83R31148   6.869   0.954  11.013
    1ECLIP H83S31149   7.005   0.842  10.978
    1ECLIP  C8431150   7.062   1.050  10.994
    1ECLIP H84R31151   7.168   1.017  10.993
    1ECLIP H84S31152   7.052   1.125  11.075
    1ECLIP  C8531153   7.021   1.102  10.856
    1ECLIP H85R31154   6.928   1.162  10.861
    1ECLIP H85S31155   6.995   1.013  10.796
    1ECLIP  C8631156   7.133   1.173  10.777
    1ECLIP H86R31157   7.206   1.095  10.747
    1ECLIP H86S31158   7.192   1.247  10.836
    1ECLIP  C8731159   7.082   1.240  10.648
    1ECLIP H87R31160   7.168   1.279  10.590
    1ECLIP H87S31161   7.016   1.327  10.671
    1ECLIP  C8831162   7.003   1.143  10.558
    1ECLIP H88R31163   6.910   1.113  10.610
    1ECLIP H88S31164   7.062   1.050  10.541
    1ECLIP  C8931165   6.963   1.201  10.422
    1ECLIP H89R31166   6.925   1.305  10.434
    1ECLIP H89S31167   6.878   1.140  10.385
    1ECLIP C81031168   7.074   1.196  10.316
    1ECLIPH810R31169   7.146   1.116  10.340
    1ECLIPH810S31170   7.129   1.293  10.317
    1ECLIP C81131171   7.017   1.170  10.175
    1ECLIPH811R31172   7.094   1.196  10.099
    1ECLIPH811S31173   6.931   1.238  10.159
    1ECLIP C81231174   6.972   1.025  10.153
    1ECLIPH812R31175   6.905   1.023  10.064
    1ECLIPH812S31176   6.911   0.989  10.238
    1ECLIP C81331177   7.089   0.928  10.129
    1ECLIPH813R31178   7.160   0.974  10.057
    1ECLIPH813S31179   7.144   0.913  10.224
    1ECLIP C81431180   7.044   0.792  10.073
    1ECLIPH814R31181   6.989   0.805   9.978
    1ECLIPH814S31182   6.977   0.741  10.145
    1ECLIPH814T31183   7.132   0.727  10.054
    1ECLIP  C7431184   6.752   0.578  11.057
    1ECLIP H74R31185   6.689   0.486  11.054
    1ECLIP H74S31186   6.857   0.543  11.072
    1ECLIP  C7531187   6.745   0.648  10.919
    1ECLIP H75R31188   6.822   0.601  10.854
    1ECLIP H75S31189   6.771   0.756  10.930
    1ECLIP  C7631190   6.611   0.634  10.847
    1ECLIP H76R31191   6.531   0.688  10.902
    1ECLIP H76S31192   6.582   0.527  10.845
    1ECLIP  C7731193   6.615   0.685  10.702
    1ECLIP H77R31194   6.701   0.638  10.649
    1ECLIP H77S31195   6.629   0.795  10.701
    1ECLIP  C7831196   6.486   0.649  10.627
    1ECLIP H78R31197   6.480   0.538  10.622
    1ECLIP H78S31198   6.400   0.685  10.687
    1ECLIP  C7931199   6.472   0.704  10.485
    1ECLIP H79R31200   6.467   0.815  10.487
    1ECLIP H79S31201   6.376   0.668  10.443
    1ECLIP C71031202   6.584   0.662  10.389
    1ECLIPH710R31203   6.680   0.709  10.420
    1ECLIPH710S31204   6.597   0.551  10.394
    1ECLIP C71131205   6.552   0.701  10.244
    1ECLIPH711R31206   6.458   0.650  10.214
    1ECLIPH711S31207   6.534   0.810  10.239
    1ECLIP C71231208   6.664   0.663  10.146
    1ECLIPH712R31209   6.679   0.553  10.150
    1ECLIPH712S31210   6.758   0.711  10.181
    1ECLIP C71331211   6.636   0.706  10.001
    1ECLIPH713R31212   6.629   0.817   9.998
    1ECLIPH713S31213   6.724   0.677   9.939
    1ECLIP C71431214   6.509   0.646   9.940
    1ECLIPH714R31215   6.513   0.535   9.943
    1ECLIPH714S31216   6.419   0.680   9.996
    1ECLIPH714T31217   6.497   0.678   9.834
    1ECLIP  C5131218   6.561   1.118  11.190
    1ECLIP  O5131219   6.679   1.100  11.165
    1ECLIP  C5231220   6.462   1.159  11.082
    1ECLIP H52R31221   6.386   1.079  11.071
    1ECLIP H52S31222   6.412   1.252  11.116
    1ECLIP  C5331223   6.527   1.185  10.944
    1ECLIP H53R31224   6.612   1.256  10.957
    1ECLIP  O5331225   6.421   1.241  10.867
    1ECLIP  C6131226   6.448   1.347  10.791
    1ECLIP  O6131227   6.561   1.384  10.761
    1ECLIP  C6231228   6.321   1.373  10.707
    1ECLIP H62R31229   6.236   1.388  10.777
    1ECLIP H62S31230   6.302   1.281  10.649
    1ECLIP  C6331231   6.330   1.495  10.612
    1ECLIP H63R31232   6.428   1.495  10.560
    1ECLIP H63S31233   6.325   1.588  10.672
    1ECLIP  C6431234   6.220   1.498  10.504
    1ECLIP H64R31235   6.227   1.594  10.449
    1ECLIP H64S31236   6.120   1.494  10.553
    1ECLIP  C6531237   6.231   1.383  10.402
    1ECLIP H65R31238   6.218   1.287  10.456
    1ECLIP H65S31239   6.332   1.382  10.357
    1ECLIP  C6631240   6.125   1.386  10.291
    1ECLIP H66R31241   6.024   1.391  10.337
    1ECLIP H66S31242   6.130   1.291  10.234
    1ECLIP  C6731243   6.139   1.502  10.190
    1ECLIP H67R31244   6.121   1.599  10.241
    1ECLIP H67S31245   6.059   1.490  10.113
    1ECLIP  C6831246   6.275   1.505  10.119
    1ECLIP H68R31247   6.301   1.402  10.087
    1ECLIP H68S31248   6.353   1.540  10.190
    1ECLIP  C6931249   6.274   1.595   9.994
    1ECLIP H69R31250   6.246   1.699  10.023
    1ECLIP H69S31251   6.196   1.557   9.925
    1ECLIP C61031252   6.411   1.597   9.923
    1ECLIPH610R31253   6.441   1.492   9.904
    1ECLIPH610S31254   6.486   1.642   9.991
    1ECLIP C61131255   6.412   1.671   9.788
    1ECLIPH611R31256   6.396   1.780   9.807
    1ECLIPH611S31257   6.514   1.661   9.745
    1ECLIP C61231258   6.309   1.622   9.686
    1ECLIPH612R31259   6.316   1.511   9.676
    1ECLIPH612S31260   6.206   1.647   9.719
    1ECLIPH612T31261   6.327   1.668   9.587
    1ECLIP  C5431262   6.577   1.055  10.876
    1ECLIP H54R31263   6.492   0.985  10.864
    1ECLIP H54S31264   6.649   1.006  10.945
    1ECLIP  C5531265   6.648   1.074  10.741
    1ECLIP H55R31266   6.723   0.994  10.728
    1ECLIP H55S31267   6.702   1.171  10.740
    1ECLIP  C5631268   6.551   1.068  10.622
    1ECLIP H56R31269   6.473   1.146  10.631
    1ECLIP H56S31270   6.499   0.970  10.623
    1ECLIP  C5731271   6.622   1.088  10.487
    1ECLIP H57R31272   6.694   1.005  10.471
    1ECLIP H57S31273   6.678   1.183  10.490
    1ECLIP  C5831274   6.523   1.092  10.370
    1ECLIP H58R31275   6.459   1.001  10.373
    1ECLIP H58S31276   6.456   1.180  10.382
    1ECLIP  C5931277   6.594   1.100  10.235
    1ECLIP H59R31278   6.665   1.015  10.226
    1ECLIP H59S31279   6.652   1.194  10.228
    1ECLIP C51031280   6.494   1.091  10.119
    1ECLIPH510R31281   6.418   1.172  10.131
    1ECLIPH510S31282   6.440   0.994  10.124
    1ECLIP C51131283   6.562   1.104   9.983
    1ECLIPH511R31284   6.607   1.205   9.976
    1ECLIPH511S31285   6.645   1.031   9.976
    1ECLIP C51231286   6.466   1.083   9.865
    1ECLIPH512R31287   6.524   1.098   9.771
    1ECLIPH512S31288   6.430   0.978   9.865
    1ECLIP C51331289   6.346   1.178   9.864
    1ECLIPH513R31290   6.379   1.280   9.894
    1ECLIPH513S31291   6.272   1.145   9.940
    1ECLIP C51431292   6.279   1.187   9.727
    1ECLIPH514R31293   6.241   1.087   9.697
    1ECLIPH514S31294   6.193   1.257   9.730
    1ECLIPH514T31295   6.351   1.222   9.651
    1ECLIP  C3331296   6.201   1.523  11.192
    1ECLIP H33R31297   6.104   1.558  11.232
    1ECLIP  O3331298   6.269   1.450  11.292
    1ECLIP HO3331299   6.211   1.406  11.355
    1ECLIP  C3431300   6.175   1.429  11.071
    1ECLIP H34R31301   6.272   1.403  11.024
    1ECLIP H34S31302   6.115   1.485  10.996
    1ECLIP  C3531303   6.105   1.295  11.101
    1ECLIP H35R31304   6.002   1.311  11.141
    1ECLIP H35S31305   6.163   1.241  11.178
    1ECLIP  C3631306   6.099   1.207  10.974
    1ECLIP H36R31307   6.194   1.224  10.919
    1ECLIP H36S31308   6.016   1.239  10.908
    1ECLIP  C3731309   6.092   1.055  10.999
    1ECLIP H37R31310   5.987   1.027  11.021
    1ECLIP H37S31311   6.152   1.029  11.089
    1ECLIP  C3831312   6.144   0.971  10.880
    1ECLIP H38R31313   6.255   0.972  10.881
    1ECLIP H38S31314   6.111   0.866  10.894
    1ECLIP  C3931315   6.098   1.020  10.741
    1ECLIP H39R31316   6.144   1.120  10.722
    1ECLIP H39S31317   5.988   1.033  10.741
    1ECLIP C31031318   6.139   0.925  10.627
    1ECLIPH310R31319   6.077   0.833  10.633
    1ECLIPH310S31320   6.245   0.896  10.639
    1ECLIP C31131321   6.122   0.991  10.489
    1ECLIPH311R31322   6.020   1.035  10.482
    1ECLIPH311S31323   6.195   1.074  10.481
    1ECLIP C31231324   6.143   0.895  10.371
    1ECLIPH312R31325   6.241   0.843  10.384
    1ECLIPH312S31326   6.064   0.817  10.373
    1ECLIP C31331327   6.142   0.967  10.236
    1ECLIPH313R31328   6.044   1.017  10.223
    1ECLIPH313S31329   6.220   1.046  10.237
    1ECLIP C31431330   6.167   0.873  10.117
    1ECLIPH314R31331   6.087   0.797  10.110
    1ECLIPH314S31332   6.170   0.931  10.022
    1ECLIPH314T31333   6.264   0.821  10.129
    1ECLIP  C1131334   6.822   1.534  10.917
    1ECLIP  O1131335   6.873   1.421  10.911
    1ECLIP  C1231336   6.860   1.637  10.814
    1ECLIP H12R31337   6.970   1.651  10.822
    1ECLIP H12S31338   6.812   1.735  10.837
    1ECLIP  C1331339   6.823   1.593  10.671
    1ECLIP H13R31340   6.816   1.483  10.663
    1ECLIP  O1331341   6.927   1.635  10.585
    1ECLIP HO1331342   6.906   1.625  10.492
    1ECLIP  C1431343   6.692   1.656  10.620
    1ECLIP H14R31344   6.691   1.764  10.649
    1ECLIP H14S31345   6.607   1.608  10.673
    1ECLIP  C1531346   6.668   1.650  10.467
    1ECLIP H15R31347   6.742   1.716  10.417
    1ECLIP H15S31348   6.568   1.694  10.445
    1ECLIP  C1631349   6.674   1.510  10.404
    1ECLIP H16R31350   6.587   1.451  10.439
    1ECLIP H16S31351   6.765   1.455  10.438
    1ECLIP  C1731352   6.673   1.514  10.251
    1ECLIP H17R31353   6.604   1.593  10.216
    1ECLIP H17S31354   6.633   1.417  10.214
    1ECLIP  C1831355   6.813   1.534  10.190
    1ECLIP H18R31356   6.858   1.627  10.233
    1ECLIP H18S31357   6.878   1.449  10.220
    1ECLIP  C1931358   6.815   1.547  10.037
    1ECLIP H19R31359   6.921   1.557  10.003
    1ECLIP H19S31360   6.762   1.641  10.009
    1ECLIP C11031361   6.749   1.429   9.963
    1ECLIPH110R31362   6.799   1.334   9.991
    1ECLIPH110S31363   6.643   1.423   9.997
    1ECLIP C11131364   6.749   1.445   9.810
    1ECLIPH111R31365   6.716   1.549   9.788
    1ECLIPH111S31366   6.852   1.432   9.771
    1ECLIP C11231367   6.653   1.349   9.739
    1ECLIPH112R31368   6.698   1.248   9.734
    1ECLIPH112S31369   6.561   1.341   9.802
    1ECLIP C11331370   6.607   1.395   9.600
    1ECLIPH113R31371   6.496   1.405   9.601
    1ECLIPH113S31372   6.646   1.496   9.579
    1ECLIP C11431373   6.646   1.299   9.487
    1ECLIPH114R31374   6.754   1.275   9.493
    1ECLIPH114S31375   6.589   1.204   9.496
    1ECLIPH114T31376   6.624   1.344   9.388
    2AKDO    C131377   6.436   1.031  12.010
    2AKDO   O1131378   6.385   0.917  12.034
    2AKDO   O1231379   6.377   1.133  11.964
    2AKDO    C231380   6.583   1.056  12.054
    2AKDO    C631381   6.779   0.966  12.157
    2AKDO    H631382   6.830   1.009  12.068
    2AKDO    O631383   6.642   0.941  12.118
    2AKDO    C331384   6.593   1.173  12.155
    2AKDO   H3131385   6.529   1.148  12.242
    2AKDO   H3231386   6.551   1.264  12.107
    2AKDO    C431387   6.732   1.201  12.202
    2AKDO    H431388   6.795   1.231  12.115
    2AKDO    O431389   6.735   1.303  12.302
    2AKDO    C531390   6.792   1.076  12.265
    2AKDO    H531391   6.901   1.097  12.276
    2AKDO    O531392   6.736   1.050  12.397
    2AKDO    C731393   6.845   0.829  12.172
    2AKDO    H731394   6.805   0.777  12.261
    2AKDO    O731395   6.988   0.841  12.182
    2AKDO   HO731396   7.015   0.778  12.115
    2AKDO    C831397   6.815   0.750  12.044
    2AKDO   H8131398   6.705   0.731  12.038
    2AKDO   H8231399   6.842   0.812  11.956
    2AKDO    O831400   6.880   0.623  12.027
    2AKDO   HO831401   6.857   0.603  11.936
    3AKDO    C131402   6.827   1.493  12.165
    3AKDO   O1131403   6.803   1.607  12.117
    3AKDO   O1231404   6.940   1.436  12.164
    3AKDO    C231405   6.724   1.442  12.273
    3AKDO    C631406   6.489   1.447  12.337
    3AKDO    H631407   6.491   1.336  12.350
    3AKDO    O631408   6.589   1.485  12.239
    3AKDO    C331409   6.758   1.500  12.410
    3AKDO   H3131410   6.761   1.611  12.403
    3AKDO   H3231411   6.860   1.466  12.439
    3AKDO    C431412   6.660   1.459  12.515
    3AKDO    H431413   6.655   1.348  12.522
    3AKDO    O431414   6.703   1.507  12.642
    3AKDO   HO431415   6.749   1.437  12.689
    3AKDO    C531416   6.523   1.508  12.474
    3AKDO    H531417   6.450   1.471  12.549
    3AKDO    O531418   6.512   1.651  12.471
    3AKDO   HO531419   6.552   1.680  12.389
    3AKDO    C731420   6.349   1.483  12.288
    3AKDO    H731421   6.346   1.592  12.267
    3AKDO    O731422   6.252   1.453  12.390
    3AKDO   HO731423   6.180   1.512  12.370
    3AKDO    C831424   6.313   1.408  12.161
    3AKDO   H8131425   6.391   1.427  12.083
    3AKDO   H8231426   6.311   1.299  12.180
    3AKDO    O831427   6.186   1.450  12.108
    3AKDO   HO831428   6.163   1.383  12.043
    4AHEP    C131429   6.824   0.989  12.490
    4AHEP    H131430   6.845   0.887  12.450
    4AHEP    C531431   6.945   1.179  12.572
    4AHEP    H531432   6.868   1.241  12.521
    4AHEP    O531433   6.953   1.053  12.502
    4AHEP    C231434   6.767   0.967  12.632
    4AHEP    H231435   6.664   0.929  12.619
    4AHEP    O231436   6.838   0.868  12.707
    4AHEP   HO231437   6.846   0.908  12.794
    4AHEP    C331438   6.759   1.095  12.715
    4AHEP    H331439   6.685   1.164  12.670
    4AHEP    O331440   6.725   1.061  12.852
    4AHEP    C431441   6.898   1.156  12.717
    4AHEP    H431442   6.968   1.082  12.762
    4AHEP    O431443   6.896   1.279  12.791
    4AHEP    P431444   7.000   1.300  12.919
    4AHEP  OP4231445   6.969   1.432  12.986
    4AHEP  OP4331446   7.141   1.299  12.862
    4AHEP  OP4431447   6.984   1.183  13.015
    4AHEP    C631448   7.077   1.257  12.559
    4AHEP    H631449   7.062   1.358  12.604
    4AHEP    O631450   7.182   1.193  12.633
    4AHEP   HO631451   7.166   1.227  12.721
    4AHEP    C731452   7.123   1.278  12.415
    4AHEP   H7131453   7.212   1.344  12.413
    4AHEP   H7231454   7.041   1.330  12.360
    4AHEP    O731455   7.153   1.157  12.345
    4AHEP   HO731456   7.099   1.093  12.391
    5AHEP    C131457   6.622   1.136  12.915
    5AHEP    H131458   6.615   1.236  12.867
    5AHEP    C531459   6.493   0.941  12.972
    5AHEP    H531460   6.572   0.877  12.927
    5AHEP    O531461   6.495   1.069  12.906
    5AHEP    C231462   6.647   1.157  13.065
    5AHEP    H231463   6.746   1.208  13.076
    5AHEP    O231464   6.547   1.245  13.119
    5AHEP   HO231465   6.466   1.194  13.116
    5AHEP    C331466   6.653   1.025  13.141
    5AHEP    H331467   6.737   0.965  13.099
    5AHEP    O331468   6.669   1.043  13.283
    5AHEP    C431469   6.521   0.954  13.123
    5AHEP    H431470   6.439   1.010  13.172
    5AHEP    O431471   6.521   0.820  13.170
    5AHEP    P431472   6.546   0.755  13.317
    5AHEP  OP4231473   6.690   0.706  13.313
    5AHEP  OP4331474   6.450   0.638  13.328
    5AHEP  OP4431475   6.524   0.855  13.428
    5AHEP    C631476   6.357   0.877  12.941
    5AHEP    H631477   6.351   0.777  12.990
    5AHEP    O631478   6.249   0.958  12.990
    5AHEP   HO631479   6.203   0.978  12.907
    5AHEP    C731480   6.341   0.857  12.790
    5AHEP   H7131481   6.304   0.754  12.773
    5AHEP   H7231482   6.440   0.863  12.738
    5AHEP    O731483   6.245   0.947  12.732
    6AHEP    C131484   6.304   1.048  12.653
    6AHEP    H131485   6.411   1.062  12.680
    6AHEP    C531486   6.163   1.003  12.463
    6AHEP    H531487   6.112   0.922  12.520
    6AHEP    O531488   6.298   1.016  12.513
    6AHEP    C231489   6.232   1.178  12.681
    6AHEP    H231490   6.230   1.190  12.791
    6AHEP    O231491   6.302   1.292  12.630
    6AHEP   HO231492   6.272   1.313  12.541
    6AHEP    C331493   6.088   1.168  12.633
    6AHEP    H331494   6.038   1.086  12.689
    6AHEP    O331495   6.015   1.289  12.659
    6AHEP   HO331496   5.930   1.277  12.617
    6AHEP    C431497   6.086   1.133  12.486
    6AHEP    H431498   6.136   1.214  12.428
    6AHEP    O431499   5.952   1.122  12.439
    6AHEP   HO431500   5.947   1.145  12.346
    6AHEP    C631501   6.164   0.961  12.316
    6AHEP    H631502   6.060   0.960  12.277
    6AHEP    O631503   6.238   1.058  12.240
    6AHEP   HO631504   6.270   1.017  12.159
    6AHEP    C731505   6.221   0.822  12.294
    6AHEP   H7131506   6.218   0.798  12.185
    6AHEP   H7231507   6.159   0.747  12.346
    6AHEP    O731508   6.356   0.811  12.340
    6AHEP   HO731509   6.385   0.903  12.342
    7AGLC    C131510   6.799   1.043  13.336
    7AGLC    H131511   6.859   0.961  13.290
    7AGLC    C531512   6.782   1.277  13.367
    7AGLC    H531513   6.679   1.271  13.326
    7AGLC    O531514   6.861   1.170  13.313
    7AGLC    C231515   6.794   1.026  13.488
    7AGLC    H231516   6.898   1.041  13.524
    7AGLC    O231517   6.760   0.894  13.531
    7AGLC   HO231518   6.675   0.876  13.490
    7AGLC    C331519   6.707   1.132  13.554
    7AGLC    H331520   6.606   1.125  13.508
    7AGLC    O331521   6.696   1.114  13.698
    7AGLC    C431522   6.771   1.264  13.517
    7AGLC    H431523   6.876   1.263  13.556
    7AGLC    O431524   6.706   1.377  13.572
    7AGLC   HO431525   6.766   1.450  13.557
    7AGLC    C631526   6.840   1.407  13.314
    7AGLC   H6131527   6.891   1.386  13.218
    7AGLC   H6231528   6.758   1.478  13.291
    7AGLC    O631529   6.932   1.471  13.404
    7AGLC   HO631530   7.002   1.505  13.348
    8AGLC    C131531   6.562   1.110  13.747
    8AGLC    H131532   6.500   1.184  13.694
    8AGLC    C531533   6.572   0.873  13.793
    8AGLC    H531534   6.678   0.874  13.758
    8AGLC    O531535   6.502   0.981  13.730
    8AGLC    C231536   6.559   1.136  13.897
    8AGLC    H231537   6.453   1.135  13.929
    8AGLC    O231538   6.618   1.261  13.935
    8AGLC    C331539   6.635   1.031  13.974
    8AGLC    H331540   6.739   1.030  13.934
    8AGLC    O331541   6.642   1.071  14.113
    8AGLC    C431542   6.574   0.895  13.944
    8AGLC    H431543   6.468   0.891  13.978
    8AGLC    O431544   6.649   0.792  14.009
    8AGLC   HO431545   6.715   0.759  13.948
    8AGLC    C631546   6.509   0.742  13.747
    8AGLC   H6131547   6.433   0.762  13.668
    8AGLC   H6231548   6.586   0.679  13.699
    8AGLC    O631549   6.447   0.668  13.853
    8AGLC   HO631550   6.504   0.673  13.931
    9AGAL    C131551   6.562   1.378  13.881
    9AGAL    H131552   6.562   1.375  13.770
    9AGAL    C531553   6.417   1.402  14.069
    9AGAL    H531554   6.460   1.308  14.111
    9AGAL    O531555   6.427   1.397  13.926
    9AGAL    C231556   6.650   1.493  13.928
    9AGAL    H231557   6.610   1.586  13.883
    9AGAL    O231558   6.779   1.466  13.867
    9AGAL    C331559   6.643   1.504  14.080
    9AGAL    H331560   6.685   1.412  14.125
    9AGAL    O331561   6.715   1.617  14.128
    9AGAL   HO331562   6.657   1.690  14.106
    9AGAL    C431563   6.497   1.520  14.122
    9AGAL    H431564   6.492   1.516  14.233
    9AGAL    O431565   6.443   1.645  14.081
    9AGAL   HO431566   6.351   1.628  14.058
    9AGAL    C631567   6.270   1.402  14.108
    9AGAL   H6131568   6.222   1.308  14.073
    9AGAL   H6231569   6.260   1.405  14.219
    9AGAL    O631570   6.198   1.513  14.054
    9AGAL   HO631571   6.149   1.482  13.978
   10AGAL    C131572   6.901   1.502  13.928
   10AGAL    H131573   6.899   1.610  13.953
   10AGAL    C531574   6.938   1.283  14.017
   10AGAL    H531575   6.847   1.255  13.961
   10AGAL    O531576   6.929   1.424  14.046
   10AGAL    C231577   7.015   1.480  13.828
   10AGAL    H231578   7.109   1.515  13.876
   10AGAL    O231579   6.997   1.559  13.710
   10AGAL   HO231580   7.028   1.510  13.633
   10AGAL    C331581   7.031   1.332  13.795
   10AGAL    H331582   6.936   1.296  13.751
   10AGAL    O331583   7.138   1.310  13.702
   10AGAL   HO331584   7.107   1.261  13.625
   10AGAL    C431585   7.055   1.254  13.923
   10AGAL    H431586   7.055   1.146  13.898
   10AGAL    O431587   7.182   1.286  13.981
   10AGAL   HO431588   7.243   1.293  13.907
   10AGAL    C631589   6.932   1.204  14.146
   10AGAL   H6131590   6.871   1.259  14.220
   10AGAL   H6231591   6.882   1.107  14.126
   10AGAL    O631592   7.060   1.175  14.202
   10AGAL   HO631593   7.123   1.231  14.157
   11BGLC    C131594   6.553   1.015  14.208
   11BGLC    H131595   6.584   0.911  14.229
   11BGLC    C531596   6.330   0.950  14.257
   11BGLC    H531597   6.376   0.851  14.278
   11BGLC    O531598   6.417   1.016  14.163
   11BGLC    C231599   6.561   1.096  14.338
   11BGLC    H231600   6.522   1.198  14.316
   11BGLC    O231601   6.696   1.110  14.382
   11BGLC   HO231602   6.751   1.099  14.305
   11BGLC    C331603   6.472   1.034  14.443
   11BGLC    H331604   6.508   0.931  14.467
   11BGLC    O331605   6.468   1.114  14.563
   11BGLC    C431606   6.331   1.026  14.389
   11BGLC    H431607   6.291   1.128  14.370
   11BGLC    O431608   6.245   0.960  14.481
   11BGLC   HO431609   6.214   1.024  14.546
   11BGLC    C631610   6.194   0.928  14.193
   11BGLC   H6131611   6.113   0.946  14.267
   11BGLC   H6231612   6.179   1.000  14.110
   11BGLC    O631613   6.181   0.794  14.143
   11BGLC   HO631614   6.103   0.788  14.089
   12BGLCN   C131615   6.517   1.055  14.681
   12BGLCN   H131616   6.626   1.036  14.671
   12BGLCN   C531617   6.489   0.875  14.836
   12BGLCN   H531618   6.598   0.853  14.834
   12BGLCN   O531619   6.447   0.934  14.712
   12BGLCN   C231620   6.490   1.159  14.790
   12BGLCN   H231621   6.380   1.172  14.794
   12BGLCN    N31622   6.550   1.286  14.752
   12BGLCN   HN31623   6.638   1.280  14.705
   12BGLCN    C31624   6.490   1.405  14.762
   12BGLCN    O31625   6.385   1.423  14.821
   12BGLCN   CT31626   6.561   1.521  14.697
   12BGLCN  HT131627   6.548   1.612  14.760
   12BGLCN  HT231628   6.516   1.540  14.598
   12BGLCN  HT331629   6.670   1.499  14.686
   12BGLCN   C331630   6.535   1.105  14.926
   12BGLCN   H331631   6.645   1.086  14.921
   12BGLCN   O331632   6.507   1.199  15.031
   12BGLCN   C431633   6.461   0.974  14.950
   12BGLCN   H431634   6.353   0.996  14.949
   12BGLCN   O431635   6.490   0.914  15.076
   12BGLCN  HO431636   6.583   0.913  15.097
   12BGLCN   C631637   6.412   0.744  14.849
   12BGLCN  H6131638   6.409   0.710  14.955
   12BGLCN  H6231639   6.307   0.759  14.815
   12BGLCN   O631640   6.473   0.640  14.772
   12BGLCN  HO631641   6.410   0.568  14.758
   13AGAL    C131642   6.602   1.204  15.136
   13AGAL    H131643   6.638   1.102  15.162
   13AGAL    C531644   6.678   1.422  15.073
   13AGAL    H531645   6.600   1.419  14.993
   13AGAL    O531646   6.716   1.285  15.101
   13AGAL    C231647   6.541   1.267  15.261
   13AGAL    H231648   6.624   1.277  15.334
   13AGAL    O231649   6.440   1.182  15.320
   13AGAL    C331650   6.492   1.408  15.231
   13AGAL    H331651   6.421   1.402  15.146
   13AGAL    O331652   6.422   1.466  15.341
   13AGAL   HO331653   6.342   1.506  15.308
   13AGAL    C431654   6.612   1.491  15.192
   13AGAL    H431655   6.578   1.591  15.159
   13AGAL    O431656   6.701   1.512  15.302
   13AGAL   HO431657   6.646   1.540  15.376
   13AGAL    C631658   6.796   1.497  15.013
   13AGAL   H6131659   6.836   1.440  14.926
   13AGAL   H6231660   6.761   1.596  14.977
   13AGAL    O631661   6.899   1.516  15.109
   13AGAL   HO631662   6.855   1.523  15.194
   14ARHM    C131663   6.472   1.125  15.446
   14ARHM    H131664   6.582   1.106  15.450
   14ARHM    C531665   6.269   1.004  15.464
   14ARHM    H531666   6.234   1.042  15.366
   14ARHM    O531667   6.412   0.997  15.464
   14ARHM    C231668   6.432   1.221  15.557
   14ARHM    H231669   6.477   1.320  15.537
   14ARHM    O231670   6.472   1.181  15.689
   14ARHM    C331671   6.281   1.234  15.558
   14ARHM    H331672   6.249   1.273  15.459
   14ARHM    O331673   6.237   1.326  15.658
   14ARHM   HO331674   6.150   1.357  15.631
   14ARHM    C431675   6.221   1.095  15.576
   14ARHM    H431676   6.257   1.053  15.672
   14ARHM    O431677   6.078   1.099  15.581
   14ARHM   HO431678   6.041   1.012  15.599
   14ARHM    C631679   6.222   0.858  15.479
   14ARHM   H6131680   6.264   0.796  15.397
   14ARHM   H6231681   6.258   0.816  15.576
   14ARHM   H6331682   6.111   0.852  15.476
   15ARHM    C131683   6.609   1.162  15.711
   15ARHM    H131684   6.670   1.220  15.638
   15ARHM    C531685   6.570   0.943  15.798
   15ARHM    H531686   6.461   0.952  15.775
   15ARHM    O531687   6.645   1.023  15.705
   15ARHM    C231688   6.638   1.212  15.851
   15ARHM    H231689   6.610   1.320  15.855
   15ARHM    O231690   6.779   1.202  15.871
   15ARHM    C331691   6.554   1.135  15.950
   15ARHM    H331692   6.448   1.144  15.920
   15ARHM    O331693   6.567   1.193  16.080
   15ARHM    C431694   6.595   0.990  15.942
   15ARHM    H431695   6.703   0.980  15.963
   15ARHM    O431696   6.525   0.910  16.037
   15ARHM   HO431697   6.532   0.818  16.012
   15ARHM    C631698   6.611   0.797  15.772
   15ARHM   H6131699   6.553   0.726  15.836
   15ARHM   H6231700   6.591   0.771  15.665
   15ARHM   H6331701   6.719   0.784  15.791
   16BMANN   C131702   6.833   1.241  15.994
   16BMANN   H131703   6.801   1.169  16.073
   16BMANN   C531704   6.852   1.409  16.160
   16BMANN   H531705   6.815   1.336  16.235
   16BMANN   O531706   6.798   1.375  16.031
   16BMANN   C231707   6.984   1.231  15.979
   16BMANN   H231708   7.006   1.125  15.956
   16BMANN    N31709   7.035   1.314  15.870
   16BMANN   HN31710   7.064   1.407  15.892
   16BMANN    C31711   7.048   1.270  15.745
   16BMANN    O31712   7.022   1.156  15.711
   16BMANN   CT31713   7.095   1.372  15.644
   16BMANN  HT131714   7.205   1.385  15.653
   16BMANN  HT231715   7.045   1.469  15.662
   16BMANN  HT331716   7.071   1.336  15.542
   16BMANN   C331717   7.047   1.263  16.113
   16BMANN   H331718   7.009   1.190  16.188
   16BMANN   O331719   7.188   1.248  16.105
   16BMANN  HO331720   7.226   1.260  16.193
   16BMANN   C431721   7.005   1.402  16.156
   16BMANN   H431722   7.039   1.477  16.081
   16BMANN   O431723   7.062   1.439  16.282
   16BMANN  HO431724   7.154   1.464  16.269
   16BMANN   C631725   6.802   1.545  16.202
   16BMANN  H6131726   6.834   1.562  16.307
   16BMANN  H6231727   6.846   1.624  16.138
   16BMANN   O631728   6.659   1.557  16.199
   16BMANN  HO631729   6.631   1.562  16.108
   17BGLCN   C131730   6.449   1.196  16.155
   17BGLCN   H131731   6.389   1.104  16.137
   17BGLCN   C531732   6.257   1.324  16.214
   17BGLCN   H531733   6.197   1.230  16.206
   17BGLCN   O531734   6.372   1.314  16.128
   17BGLCN   C231735   6.499   1.199  16.298
   17BGLCN   H231736   6.556   1.294  16.311
   17BGLCN    N31737   6.594   1.091  16.321
   17BGLCN   HN31738   6.592   1.018  16.253
   17BGLCN    C31739   6.687   1.090  16.417
   17BGLCN    O31740   6.701   1.179  16.500
   17BGLCN   CT31741   6.778   0.970  16.420
   17BGLCN  HT131742   6.867   0.989  16.356
   17BGLCN  HT231743   6.725   0.879  16.383
   17BGLCN  HT331744   6.812   0.952  16.524
   17BGLCN   C331745   6.377   1.204  16.390
   17BGLCN   H331746   6.312   1.121  16.355
   17BGLCN   O331747   6.407   1.177  16.527
   17BGLCN   C431748   6.304   1.333  16.359
   17BGLCN   H431749   6.375   1.418  16.368
   17BGLCN   O431750   6.197   1.361  16.449
   17BGLCN  HO431751   6.222   1.437  16.501
   17BGLCN   C631752   6.171   1.437  16.164
   17BGLCN  H6131753   6.105   1.476  16.245
   17BGLCN  H6231754   6.234   1.522  16.129
   17BGLCN   O631755   6.086   1.392  16.058
   17BGLCN  HO631756   6.138   1.342  15.995
   18AGAL    C131757   6.305   1.112  16.601
   18AGAL    H131758   6.219   1.181  16.616
   18AGAL    C531759   6.360   0.893  16.520
   18AGAL    H531760   6.441   0.936  16.457
   18AGAL    O531761   6.257   0.992  16.537
   18AGAL    C231762   6.357   1.073  16.737
   18AGAL    H231763   6.274   1.018  16.785
   18AGAL    O231764   6.385   1.187  16.820
   18AGAL    C331765   6.474   0.977  16.720
   18AGAL    H331766   6.547   1.024  16.651
   18AGAL    O331767   6.546   0.951  16.840
   18AGAL   HO331768   6.617   1.016  16.842
   18AGAL    C431769   6.422   0.851  16.653
   18AGAL    H431770   6.509   0.784  16.632
   18AGAL    O431771   6.331   0.778  16.735
   18AGAL   HO431772   6.373   0.762  16.820
   18AGAL    C631773   6.301   0.777  16.440
   18AGAL   H6131774   6.276   0.811  16.337
   18AGAL   H6231775   6.376   0.696  16.431
   18AGAL    O631776   6.182   0.726  16.500
   18AGAL   HO631777   6.190   0.746  16.593
   19ARHM    C131778   6.348   1.164  16.953
   19ARHM    H131779   6.372   1.059  16.981
   19ARHM    C531780   6.163   1.315  16.950
   19ARHM    H531781   6.186   1.343  16.845
   19ARHM    O531782   6.208   1.182  16.976
   19ARHM    C231783   6.427   1.258  17.042
   19ARHM    H231784   6.533   1.252  17.011
   19ARHM    O231785   6.418   1.224  17.181
   19ARHM    C331786   6.385   1.401  17.019
   19ARHM    H331787   6.406   1.428  16.914
   19ARHM    O331788   6.460   1.489  17.102
   19ARHM   HO331789   6.442   1.465  17.194
   19ARHM    C431790   6.236   1.412  17.043
   19ARHM    H431791   6.213   1.382  17.148
   19ARHM    O431792   6.189   1.546  17.026
   19ARHM   HO431793   6.254   1.593  16.974
   19ARHM    C631794   6.010   1.313  16.968
   19ARHM   H6131795   5.965   1.243  16.895
   19ARHM   H6231796   5.984   1.279  17.070
   19ARHM   H6331797   5.967   1.414  16.951
   20ARHM    C131798   6.486   1.105  17.212
   20ARHM    H131799   6.555   1.077  17.130
   20ARHM    C531800   6.308   1.009  17.339
   20ARHM    H531801   6.245   1.099  17.322
   20ARHM    O531802   6.398   0.993  17.229
   20ARHM    C231803   6.566   1.128  17.338
   20ARHM    H231804   6.624   1.222  17.326
   20ARHM    O231805   6.657   1.020  17.361
   20ARHM    C331806   6.474   1.148  17.456
   20ARHM    H331807   6.410   1.237  17.437
   20ARHM    O331808   6.556   1.172  17.572
   20ARHM    C431809   6.386   1.026  17.469
   20ARHM    H431810   6.450   0.936  17.483
   20ARHM    O431811   6.298   1.035  17.582
   20ARHM   HO431812   6.237   0.961  17.578
   20ARHM    C631813   6.217   0.885  17.336
   20ARHM   H6131814   6.277   0.793  17.354
   20ARHM   H6231815   6.137   0.892  17.414
   20ARHM   H6331816   6.168   0.876  17.237
   21BMANN   C131817   6.769   1.018  17.276
   21BMANN   H131818   6.767   1.103  17.204
   21BMANN   C531819   6.893   0.886  17.119
   21BMANN   H531820   6.892   0.970  17.046
   21BMANN   O531821   6.777   0.894  17.204
   21BMANN   C231822   6.888   1.030  17.367
   21BMANN   H231823   6.881   1.129  17.417
   21BMANN    N31824   6.884   0.929  17.471
   21BMANN   HN31825   6.822   0.853  17.454
   21BMANN    C31826   6.950   0.932  17.587
   21BMANN    O31827   7.034   1.019  17.613
   21BMANN   CT31828   6.918   0.823  17.684
   21BMANN  HT131829   7.011   0.774  17.719
   21BMANN  HT231830   6.852   0.747  17.635
   21BMANN  HT331831   6.863   0.865  17.771
   21BMANN   C331832   7.012   1.029  17.280
   21BMANN   H331833   7.002   1.110  17.206
   21BMANN   O331834   7.130   1.057  17.355
   21BMANN  HO331835   7.112   1.040  17.447
   21BMANN   C431836   7.019   0.898  17.204
   21BMANN   H431837   7.022   0.813  17.275
   21BMANN   O431838   7.136   0.892  17.124
   21BMANN  HO431839   7.210   0.914  17.182
   21BMANN   C631840   6.885   0.756  17.041
   21BMANN  H6131841   6.981   0.737  16.988
   21BMANN  H6231842   6.867   0.671  17.110
   21BMANN   O631843   6.781   0.761  16.943
   21BMANN  HO631844   6.697   0.771  16.987
   22BGLCN   C131845   6.502   1.258  17.670
   22BGLCN   H131846   6.391   1.263  17.664
   22BGLCN   C531847   6.519   1.475  17.768
   22BGLCN   H531848   6.408   1.483  17.767
   22BGLCN   O531849   6.562   1.388  17.662
   22BGLCN   C231850   6.548   1.195  17.799
   22BGLCN   H231851   6.659   1.199  17.798
   22BGLCN    N31852   6.510   1.055  17.807
   22BGLCN   HN31853   6.428   1.029  17.756
   22BGLCN    C31854   6.584   0.960  17.866
   22BGLCN    O31855   6.695   0.982  17.914
   22BGLCN   CT31856   6.524   0.823  17.870
   22BGLCN  HT131857   6.537   0.773  17.772
   22BGLCN  HT231858   6.416   0.829  17.895
   22BGLCN  HT331859   6.576   0.764  17.949
   22BGLCN   C331860   6.500   1.277  17.917
   22BGLCN   H331861   6.389   1.285  17.913
   22BGLCN   O331862   6.537   1.206  18.036
   22BGLCN   C431863   6.561   1.416  17.903
   22BGLCN   H431864   6.671   1.404  17.904
   22BGLCN   O431865   6.525   1.503  18.010
   22BGLCN  HO431866   6.604   1.549  18.040
   22BGLCN   C631867   6.579   1.612  17.741
   22BGLCN  H6131868   6.593   1.668  17.836
   22BGLCN  H6231869   6.680   1.603  17.694
   22BGLCN   O631870   6.495   1.692  17.658
   22BGLCN  HO631871   6.504   1.666  17.566
   23AGAL    C131872   6.476   1.238  18.159
   23AGAL    H131873   6.507   1.339  18.192
   23AGAL    C531874   6.281   1.104  18.122
   23AGAL    H531875   6.325   1.075  18.024
   23AGAL    O531876   6.332   1.234  18.155
   23AGAL    C231877   6.525   1.138  18.263
   23AGAL    H231878   6.485   1.168  18.361
   23AGAL    O231879   6.669   1.135  18.268
   23AGAL    C331880   6.476   0.998  18.231
   23AGAL    H331881   6.518   0.968  18.133
   23AGAL    O331882   6.520   0.904  18.328
   23AGAL   HO331883   6.457   0.909  18.400
   23AGAL    C431884   6.325   0.999  18.224
   23AGAL    H431885   6.290   0.900  18.189
   23AGAL    O431886   6.269   1.022  18.354
   23AGAL   HO431887   6.180   1.053  18.336
   23AGAL    C631888   6.130   1.113  18.098
   23AGAL   H6131889   6.107   1.208  18.045
   23AGAL   H6231890   6.100   1.030  18.030
   23AGAL    O631891   6.052   1.104  18.217
   23AGAL   HO631892   5.997   1.182  18.227
   24ARHM    C131893   6.731   1.223  18.357
   24ARHM    H131894   6.670   1.315  18.367
   24ARHM    C531895   6.948   1.153  18.288
   24ARHM    H531896   6.904   1.082  18.215
   24ARHM    O531897   6.859   1.264  18.306
   24ARHM    C231898   6.745   1.155  18.491
   24ARHM    H231899   6.646   1.113  18.520
   24ARHM    O231900   6.787   1.248  18.593
   24ARHM    C331901   6.837   1.035  18.477
   24ARHM    H331902   6.791   0.963  18.406
   24ARHM    O331903   6.853   0.969  18.602
   24ARHM   HO331904   6.909   0.892  18.585
   24ARHM    C431905   6.970   1.081  18.421
   24ARHM    H431906   7.015   1.154  18.492
   24ARHM    O431907   7.064   0.973  18.409
   24ARHM   HO431908   7.040   0.914  18.337
   24ARHM    C631909   7.076   1.211  18.227
   24ARHM   H6131910   7.151   1.130  18.211
   24ARHM   H6231911   7.055   1.258  18.129
   24ARHM   H6331912   7.120   1.288  18.295
   25ARHM    C131913   6.678   1.318  18.651
   25ARHM    H131914   6.593   1.319  18.580
   25ARHM    C531915   6.803   1.477  18.776
   25ARHM    H531916   6.898   1.427  18.749
   25ARHM    O531917   6.706   1.457  18.673
   25ARHM    C231918   6.631   1.249  18.777
   25ARHM    H231919   6.620   1.140  18.758
   25ARHM    O231920   6.508   1.305  18.825
   25ARHM    C331921   6.735   1.267  18.885
   25ARHM    H331922   6.830   1.222  18.850
   25ARHM    O331923   6.690   1.199  19.002
   25ARHM    C431924   6.753   1.416  18.907
   25ARHM    H431925   6.655   1.462  18.932
   25ARHM    O431926   6.842   1.447  19.015
   25ARHM   HO431927   6.844   1.543  19.021
   25ARHM    C631928   6.829   1.629  18.782
   25ARHM   H6131929   6.863   1.664  18.682
   25ARHM   H6231930   6.736   1.683  18.808
   25ARHM   H6331931   6.909   1.653  18.855
   26BMANN   C131932   6.391   1.248  18.773
   26BMANN   H131933   6.407   1.142  18.742
   26BMANN   C531934   6.215   1.269  18.612
   26BMANN   H531935   6.235   1.165  18.579
   26BMANN   O531936   6.338   1.324  18.663
   26BMANN   C231937   6.291   1.253  18.887
   26BMANN   H231938   6.334   1.193  18.969
   26BMANN    N31939   6.273   1.389  18.937
   26BMANN   HN31940   6.307   1.462  18.878
   26BMANN    C31941   6.217   1.422  19.054
   26BMANN    O31942   6.177   1.338  19.134
   26BMANN   CT31943   6.204   1.568  19.086
   26BMANN  HT131944   6.216   1.629  18.993
   26BMANN  HT231945   6.282   1.597  19.160
   26BMANN  HT331946   6.103   1.587  19.128
   26BMANN   C331947   6.164   1.186  18.838
   26BMANN   H331948   6.190   1.084  18.801
   26BMANN   O331949   6.073   1.164  18.946
   26BMANN  HO331950   6.077   1.239  19.006
   26BMANN   C431951   6.107   1.263  18.721
   26BMANN   H431952   6.081   1.367  18.752
   26BMANN   O431953   5.990   1.200  18.669
   26BMANN  HO431954   5.914   1.237  18.715
   26BMANN   C631955   6.174   1.347  18.488
   26BMANN  H6131956   6.260   1.352  18.418
   26BMANN  H6231957   6.092   1.293  18.437
   26BMANN   O631958   6.129   1.481  18.517
   26BMANN  HO631959   6.046   1.495  18.472
   27BGLCN   C131960   6.790   1.139  19.081
   27BGLCN   H131961   6.886   1.193  19.069
   27BGLCN   C531962   6.902   0.935  19.132
   27BGLCN   H531963   6.999   0.986  19.122
   27BGLCN   O531964   6.805   1.001  19.048
   27BGLCN   C231965   6.738   1.153  19.222
   27BGLCN   H231966   6.642   1.098  19.229
   27BGLCN    N31967   6.711   1.294  19.248
   27BGLCN   HN31968   6.755   1.358  19.186
   27BGLCN    C31969   6.618   1.342  19.331
   27BGLCN    O31970   6.551   1.272  19.406
   27BGLCN   CT31971   6.599   1.491  19.329
   27BGLCN  HT131972   6.677   1.540  19.267
   27BGLCN  HT231973   6.606   1.531  19.433
   27BGLCN  HT331974   6.499   1.514  19.287
   27BGLCN   C331975   6.837   1.089  19.318
   27BGLCN   H331976   6.934   1.141  19.306
   27BGLCN   O331977   6.788   1.109  19.451
   27BGLCN   C431978   6.856   0.943  19.277
   27BGLCN   H431979   6.758   0.892  19.287
   27BGLCN   O431980   6.949   0.874  19.360
   27BGLCN  HO431981   7.037   0.911  19.350
   27BGLCN   C631982   6.917   0.793  19.080
   27BGLCN  H6131983   6.983   0.735  19.148
   27BGLCN  H6231984   6.818   0.743  19.078
   27BGLCN   O631985   6.975   0.791  18.949
   27BGLCN  HO631986   6.910   0.823  18.886
   28AGAL    C131987   6.876   1.091   0.087
   28AGAL    H131988   6.895   0.982   0.102
   28AGAL    C531989   6.984   1.303   0.058
   28AGAL    H531990   6.917   1.324  19.445
   28AGAL    O531991   7.001   1.160   0.068
   28AGAL    C231992   6.815   1.144   0.216
   28AGAL    H231993   6.897   1.131   0.289
   28AGAL    O231994   6.700   1.071   0.264
   28AGAL    C331995   6.785   1.292   0.203
   28AGAL    H331996   6.720   1.308   0.114
   28AGAL    O331997   6.716   1.343   0.317
   28AGAL   HO331998   6.622   1.344   0.297
   28AGAL    C431999   6.917   1.363   0.182
   28AGAL    H432000   6.895   1.470   0.159
   28AGAL    O432001   6.995   1.360   0.300
   28AGAL   HO432002   6.934   1.389   0.369
   28AGAL    C632003   7.119   1.365   0.022
   28AGAL   H6132004   7.145   1.336  19.391
   28AGAL   H6232005   7.111   1.476   0.024
   28AGAL    O632006   7.224   1.323   0.109
   28AGAL   HO632007   7.221   1.227   0.112
   29ARHM    C132008   6.710   1.037   0.401
   29ARHM    H132009   6.785   1.101   0.451
   29ARHM    C532010   6.648   0.810   0.365
   29ARHM    H532011   6.633   0.831   0.257
   29ARHM    O532012   6.748   0.900   0.417
   29ARHM    C232013   6.579   1.065   0.473
   29ARHM    H232014   6.549   1.170   0.451
   29ARHM    O232015   6.598   1.048   0.615
   29ARHM    C332016   6.471   0.975   0.421
   29ARHM    H332017   6.455   0.996   0.313
   29ARHM    O332018   6.348   1.001   0.489
   29ARHM   HO332019   6.290   0.925   0.479
   29ARHM    C432020   6.515   0.831   0.438
   29ARHM    H432021   6.532   0.811   0.546
   29ARHM    O432022   6.415   0.740   0.391
   29ARHM   HO432023   6.389   0.763   0.302
   29ARHM    C632024   6.703   0.668   0.378
   29ARHM   H6132025   6.798   0.657   0.321
   29ARHM   H6232026   6.724   0.644   0.485
   29ARHM   H6332027   6.631   0.593   0.340
   30ARHM    C132028   6.609   1.167   0.689
   30ARHM    H132029   6.530   1.239   0.658
   30ARHM    C532030   6.846   1.139   0.714
   30ARHM    H532031   6.841   1.045   0.655
   30ARHM    O532032   6.739   1.227   0.675
   30ARHM    C232033   6.588   1.130   0.834
   30ARHM    H232034   6.492   1.077   0.843
   30ARHM    O232035   6.588   1.249   0.915
   30ARHM    C332036   6.699   1.037   0.881
   30ARHM    H332037   6.695   0.949   0.813
   30ARHM    O332038   6.672   0.984   1.012
   30ARHM    C432039   6.834   1.102   0.861
   30ARHM    H432040   6.841   1.195   0.921
   30ARHM    O432041   6.943   1.017   0.899
   30ARHM   HO432042   6.914   0.926   0.903
   30ARHM    C632043   6.977   1.211   0.678
   30ARHM   H6132044   7.065   1.146   0.700
   30ARHM   H6232045   6.979   1.236   0.570
   30ARHM   H6332046   6.987   1.305   0.737
   31BMANN   C132047   6.461   1.302   0.945
   31BMANN   H132048   6.386   1.222   0.961
   31BMANN   C532049   6.290   1.456   0.878
   31BMANN   H532050   6.214   1.376   0.892
   31BMANN   O532051   6.417   1.395   0.845
   31BMANN   C232052   6.483   1.382   1.072
   31BMANN   H232053   6.513   1.309   1.151
   31BMANN    N32054   6.593   1.477   1.057
   31BMANN   HN32055   6.623   1.492   0.963
   31BMANN    C32056   6.659   1.537   1.156
   31BMANN    O32057   6.631   1.523   1.275
   31BMANN   CT32058   6.775   1.624   1.115
   31BMANN  HT132059   6.744   1.693   1.034
   31BMANN  HT232060   6.859   1.560   1.079
   31BMANN  HT332061   6.810   1.683   1.202
   31BMANN   C332062   6.350   1.440   1.114
   31BMANN   H332063   6.277   1.357   1.121
   31BMANN   O332064   6.355   1.496   1.245
   31BMANN  HO332065   6.444   1.529   1.263
   31BMANN   C432066   6.300   1.536   1.008
   31BMANN   H432067   6.371   1.620   0.995
   31BMANN   O432068   6.172   1.590   1.044
   31BMANN  HO432069   6.178   1.627   1.132
   31BMANN   C632070   6.247   1.541   0.760
   31BMANN  H6132071   6.170   1.615   0.790
   31BMANN  H6232072   6.334   1.598   0.720
   31BMANN   O632073   6.191   1.462   0.654
   31BMANN  HO632074   6.097   1.451   0.671
   32BGLCN   C132075   6.709   1.063   1.122
   32BGLCN   H132076   6.693   1.170   1.100
   32BGLCN   C532077   6.889   1.127   1.264
   32BGLCN   H532078   6.873   1.234   1.235
   32BGLCN   O532079   6.846   1.043   1.157
   32BGLCN   C232080   6.625   1.022   1.241
   32BGLCN   H232081   6.658   0.921   1.270
   32BGLCN    N32082   6.485   1.010   1.202
   32BGLCN   HN32083   6.459   1.050   1.114
   32BGLCN    C32084   6.399   0.923   1.256
   32BGLCN    O32085   6.424   0.858   1.357
   32BGLCN   CT32086   6.266   0.908   1.187
   32BGLCN  HT132087   6.257   0.980   1.103
   32BGLCN  HT232088   6.183   0.927   1.260
   32BGLCN  HT332089   6.256   0.805   1.148
   32BGLCN   C332090   6.660   1.118   1.354
   32BGLCN   H332091   6.648   1.221   1.314
   32BGLCN   O332092   6.581   1.108   1.474
   32BGLCN   C432093   6.807   1.096   1.387
   32BGLCN   H432094   6.822   0.989   1.414
   32BGLCN   O432095   6.849   1.174   1.498
   32BGLCN  HO432096   6.785   1.161   1.568
   32BGLCN   C632097   7.038   1.104   1.275
   32BGLCN  H6132098   7.083   1.174   1.348
   32BGLCN  H6232099   7.058   1.000   1.310
   32BGLCN   O632100   7.101   1.122   1.147
   32BGLCN  HO632101   7.049   1.069   1.085
   33AGAL    C132102   6.537   1.233   1.525
   33AGAL    H132103   6.613   1.312   1.508
   33AGAL    C532104   6.309   1.175   1.486
   33AGAL    H532105   6.347   1.076   1.451
   33AGAL    O532106   6.413   1.273   1.465
   33AGAL    C232107   6.515   1.220   1.674
   33AGAL    H232108   6.478   1.319   1.710
   33AGAL    O232109   6.642   1.192   1.737
   33AGAL    C332110   6.409   1.114   1.702
   33AGAL    H332111   6.445   1.018   1.660
   33AGAL    O332112   6.390   1.095   1.842
   33AGAL   HO332113   6.325   1.159   1.871
   33AGAL    C432114   6.279   1.154   1.634
   33AGAL    H432115   6.213   1.065   1.641
   33AGAL    O432116   6.209   1.261   1.696
   33AGAL   HO432117   6.263   1.340   1.702
   33AGAL    C632118   6.191   1.208   1.396
   33AGAL   H6132119   6.222   1.193   1.290
   33AGAL   H6232120   6.107   1.137   1.416
   33AGAL    O632121   6.142   1.342   1.408
   33AGAL   HO632122   6.217   1.402   1.405
   34ARHM    C132123   6.659   1.259   1.860
   34ARHM    H132124   6.564   1.261   1.917
   34ARHM    C532125   6.828   1.405   1.772
   34ARHM    H532126   6.817   1.361   1.670
   34ARHM    O532127   6.704   1.394   1.842
   34ARHM    C232128   6.764   1.182   1.938
   34ARHM    H232129   6.731   1.076   1.944
   34ARHM    O232130   6.783   1.231   2.072
   34ARHM    C332131   6.897   1.186   1.866
   34ARHM    H332132   6.885   1.140   1.765
   34ARHM    O332133   6.999   1.114   1.935
   34ARHM   HO332134   6.980   1.020   1.938
   34ARHM    C432135   6.938   1.331   1.847
   34ARHM    H432136   6.949   1.378   1.947
   34ARHM    O432137   7.064   1.342   1.780
   34ARHM   HO432138   7.119   1.275   1.819
   34ARHM    C632139   6.853   1.556   1.755
   34ARHM   H6132140   6.858   1.606   1.854
   34ARHM   H6232141   6.948   1.574   1.701
   34ARHM   H6332142   6.770   1.601   1.698
   35ARHM    C132143   6.673   1.222   2.159
   35ARHM    H132144   6.615   1.130   2.139
   35ARHM    C532145   6.661   1.460   2.167
   35ARHM    H532146   6.738   1.467   2.088
   35ARHM    O532147   6.588   1.337   2.151
   35ARHM    C232148   6.734   1.218   2.298
   35ARHM    H232149   6.803   1.131   2.303
   35ARHM    O232150   6.636   1.205   2.403
   35ARHM    C332151   6.815   1.342   2.321
   35ARHM    H332152   6.897   1.347   2.246
   35ARHM    O332153   6.876   1.338   2.450
   35ARHM   HO332154   6.807   1.316   2.513
   35ARHM    C432155   6.726   1.464   2.305
   35ARHM    H432156   6.646   1.462   2.382
   35ARHM    O432157   6.800   1.585   2.318
   35ARHM   HO432158   6.816   1.618   2.229
   35ARHM    C632159   6.559   1.573   2.144
   35ARHM   H6132160   6.513   1.562   2.044
   35ARHM   H6232161   6.479   1.567   2.221
   35ARHM   H6332162   6.608   1.672   2.151
   36BMANN   C132163   6.570   1.081   2.405
   36BMANN   H132164   6.640   1.001   2.375
   36BMANN   C532165   6.389   0.954   2.317
   36BMANN   H532166   6.461   0.878   2.280
   36BMANN   O532167   6.455   1.081   2.319
   36BMANN   C232168   6.523   1.056   2.546
   36BMANN   H232169   6.612   1.055   2.612
   36BMANN    N32170   6.429   1.159   2.592
   36BMANN   HN32171   6.348   1.171   2.535
   36BMANN    C32172   6.439   1.229   2.706
   36BMANN    O32173   6.540   1.233   2.774
   36BMANN   CT32174   6.317   1.308   2.745
   36BMANN  HT132175   6.225   1.256   2.712
   36BMANN  HT232176   6.321   1.409   2.699
   36BMANN  HT332177   6.314   1.318   2.856
   36BMANN   C332178   6.461   0.917   2.549
   36BMANN   H332179   6.538   0.846   2.512
   36BMANN   O332180   6.428   0.879   2.682
   36BMANN  HO332181   6.477   0.800   2.706
   36BMANN   C432182   6.342   0.914   2.456
   36BMANN   H432183   6.264   0.985   2.492
   36BMANN   O432184   6.282   0.784   2.450
   36BMANN  HO432185   6.259   0.759   2.540
   36BMANN   C632186   6.276   0.962   2.215
   36BMANN  H6132187   6.314   1.010   2.122
   36BMANN  H6232188   6.242   0.860   2.187
   36BMANN   O632189   6.164   1.037   2.262
   36BMANN  HO632190   6.105   0.978   2.309
    1ECLIP HB6S32191   7.033   7.348  11.824
    1ECLIP  OB632192   7.125   7.246  11.976
    1ECLIP  CB632193   7.136   7.322  11.856
    1ECLIP HB6R32194   7.188   7.419  11.876
    1ECLIP  CB532195   7.205   7.248  11.741
    1ECLIP  OB532196   7.132   7.127  11.712
    1ECLIP  HB532197   7.310   7.224  11.768
    1ECLIP  CB132198   7.179   7.054  11.596
    1ECLIP  HB132199   7.283   7.016  11.612
    1ECLIP  OA632200   7.096   6.945  11.565
    1ECLIP  CA632201   6.956   6.963  11.589
    1ECLIP HA6R32202   6.931   7.059  11.640
    1ECLIP HA6S32203   6.923   6.881  11.656
    1ECLIP  CB432204   7.195   7.333  11.617
    1ECLIP  HB432205   7.085   7.346  11.605
    1ECLIP  OB432206   7.260   7.457  11.641
    1ECLIP   PB32207   7.200   7.592  11.574
    1ECLIP OPB432208   7.176   7.681  11.694
    1ECLIP OPB332209   7.085   7.552  11.483
    1ECLIP OPB232210   7.325   7.648  11.508
    1ECLIP  CB332211   7.252   7.266  11.495
    1ECLIP  OB332212   7.224   7.352  11.384
    1ECLIP  HB332213   7.359   7.240  11.510
    1ECLIP  C7132214   7.329   7.398  11.314
    1ECLIP  O7132215   7.444   7.367  11.334
    1ECLIP  C7232216   7.278   7.448  11.180
    1ECLIP H72R32217   7.222   7.369  11.126
    1ECLIP H72S32218   7.367   7.462  11.115
    1ECLIP  CB232219   7.172   7.141  11.472
    1ECLIP  HB232220   7.066   7.176  11.473
    1ECLIP  NB232221   7.196   7.078  11.341
    1ECLIP HNB232222   7.244   6.990  11.340
    1ECLIP  CA432223   6.914   6.839  11.373
    1ECLIP  HA432224   7.022   6.847  11.347
    1ECLIP  OA432225   6.893   6.718  11.445
    1ECLIP HOA432226   6.970   6.695  11.498
    1ECLIP  CA532227   6.877   6.956  11.460
    1ECLIP  HA532228   6.770   6.947  11.487
    1ECLIP  OA532229   6.894   7.079  11.386
    1ECLIP  CA132230   6.805   7.090  11.273
    1ECLIP  HA132231   6.840   7.176  11.212
    1ECLIP  OA132232   6.674   7.126  11.313
    1ECLIP OPA232233   6.665   7.204  11.556
    1ECLIP OPA332234   6.792   7.343  11.390
    1ECLIP OPA432235   6.540   7.336  11.380
    1ECLIP   PA32236   6.666   7.259  11.414
    1ECLIP  CA332237   6.828   6.841  11.249
    1ECLIP  HA332238   6.723   6.825  11.281
    1ECLIP  OA332239   6.871   6.731  11.166
    1ECLIP  C3132240   6.985   6.748  11.094
    1ECLIP  O3132241   6.982   6.785  10.978
    1ECLIP  C3232242   7.083   6.641  11.133
    1ECLIP H32R32243   7.082   6.566  11.051
    1ECLIP H32S32244   7.050   6.592  11.228
    1ECLIP  CA232245   6.838   6.974  11.177
    1ECLIP  HA232246   6.944   6.989  11.147
    1ECLIP  NA232247   6.757   6.971  11.056
    1ECLIP HNA232248   6.698   6.891  11.045
    1ECLIP  C7332249   7.193   7.575  11.188
    1ECLIP H73R32250   7.223   7.636  11.276
    1ECLIP  O7332251   7.056   7.531  11.202
    1ECLIP  C8132252   6.964   7.629  11.196
    1ECLIP  O8132253   6.984   7.747  11.214
    1ECLIP  C8232254   6.837   7.568  11.140
    1ECLIP H82R32255   6.756   7.643  11.155
    1ECLIP H82S32256   6.809   7.476  11.195
    1ECLIP  C8332257   6.849   7.536  10.990
    1ECLIP H83R32258   6.919   7.451  10.975
    1ECLIP H83S32259   6.887   7.624  10.934
    1ECLIP  C8432260   6.714   7.495  10.931
    1ECLIP H84R32261   6.644   7.581  10.933
    1ECLIP H84S32262   6.670   7.412  10.990
    1ECLIP  C8532263   6.729   7.449  10.786
    1ECLIP H85R32264   6.787   7.354  10.784
    1ECLIP H85S32265   6.787   7.526  10.731
    1ECLIP  C8632266   6.594   7.428  10.717
    1ECLIP H86R32267   6.541   7.526  10.714
    1ECLIP H86S32268   6.532   7.360  10.779
    1ECLIP  C8732269   6.606   7.369  10.576
    1ECLIP H87R32270   6.509   7.374  10.524
    1ECLIP H87S32271   6.631   7.262  10.590
    1ECLIP  C8832272   6.719   7.428  10.490
    1ECLIP H88R32273   6.814   7.424  10.547
    1ECLIP H88S32274   6.697   7.534  10.466
    1ECLIP  C8932275   6.744   7.347  10.362
    1ECLIP H89R32276   6.755   7.239  10.387
    1ECLIP H89S32277   6.842   7.381  10.324
    1ECLIP C81032278   6.635   7.365  10.256
    1ECLIPH810R32279   6.593   7.467  10.265
    1ECLIPH810S32280   6.552   7.294  10.277
    1ECLIP C81132281   6.687   7.344  10.112
    1ECLIPH811R32282   6.603   7.364  10.041
    1ECLIPH811S32283   6.716   7.238  10.100
    1ECLIP C81232284   6.808   7.432  10.073
    1ECLIPH812R32285   6.825   7.421   9.964
    1ECLIPH812S32286   6.899   7.394  10.124
    1ECLIP C81332287   6.788   7.580  10.105
    1ECLIPH813R32288   6.705   7.617  10.041
    1ECLIPH813S32289   6.759   7.591  10.212
    1ECLIP C81432290   6.910   7.669  10.083
    1ECLIPH814R32291   6.946   7.658   9.978
    1ECLIPH814S32292   6.990   7.642  10.154
    1ECLIPH814T32293   6.884   7.776  10.100
    1ECLIP  C7432294   7.219   7.666  11.062
    1ECLIP H74R32295   7.325   7.698  11.067
    1ECLIP H74S32296   7.161   7.761  11.070
    1ECLIP  C7532297   7.196   7.607  10.922
    1ECLIP H75R32298   7.150   7.686  10.859
    1ECLIP H75S32299   7.124   7.523  10.925
    1ECLIP  C7632300   7.326   7.564  10.851
    1ECLIP H76R32301   7.362   7.469  10.895
    1ECLIP H76S32302   7.405   7.640  10.866
    1ECLIP  C7732303   7.306   7.545  10.700
    1ECLIP H77R32304   7.292   7.645  10.652
    1ECLIP H77S32305   7.213   7.487  10.682
    1ECLIP  C7832306   7.424   7.472  10.634
    1ECLIP H78R32307   7.515   7.534  10.646
    1ECLIP H78S32308   7.443   7.378  10.690
    1ECLIP  C7932309   7.404   7.435  10.486
    1ECLIP H79R32310   7.336   7.347  10.480
    1ECLIP H79S32311   7.501   7.400  10.444
    1ECLIP C71032312   7.344   7.543  10.395
    1ECLIPH710R32313   7.248   7.579  10.438
    1ECLIPH710S32314   7.413   7.630  10.387
    1ECLIP C71132315   7.314   7.487  10.254
    1ECLIPH711R32316   7.401   7.430  10.216
    1ECLIPH711S32317   7.231   7.414  10.265
    1ECLIP C71232318   7.274   7.595  10.153
    1ECLIPH712R32319   7.364   7.653  10.124
    1ECLIPH712S32320   7.205   7.665  10.205
    1ECLIP C71332321   7.201   7.540  10.030
    1ECLIPH713R32322   7.115   7.479  10.066
    1ECLIPH713S32323   7.160   7.627   9.974
    1ECLIP C71432324   7.279   7.455   9.931
    1ECLIPH714R32325   7.351   7.517   9.872
    1ECLIPH714S32326   7.335   7.374   9.982
    1ECLIPH714T32327   7.209   7.410   9.857
    1ECLIP  C5132328   7.158   7.134  11.224
    1ECLIP  O5132329   7.074   7.225  11.224
    1ECLIP  C5232330   7.232   7.095  11.096
    1ECLIP H52R32331   7.324   7.157  11.087
    1ECLIP H52S32332   7.267   6.991  11.113
    1ECLIP  C5332333   7.151   7.103  10.964
    1ECLIP H53R32334   7.049   7.064  10.983
    1ECLIP  O5332335   7.223   7.021  10.872
    1ECLIP  C6132336   7.145   6.943  10.798
    1ECLIP  O6132337   7.030   6.969  10.769
    1ECLIP  C6232338   7.235   6.860  10.707
    1ECLIP H62R32339   7.302   6.796  10.769
    1ECLIP H62S32340   7.297   6.930  10.649
    1ECLIP  C6332341   7.149   6.769  10.618
    1ECLIP H63R32342   7.077   6.832  10.562
    1ECLIP H63S32343   7.091   6.701  10.683
    1ECLIP  C6432344   7.232   6.691  10.515
    1ECLIP H64R32345   7.163   6.634  10.450
    1ECLIP H64S32346   7.298   6.618  10.566
    1ECLIP  C6532347   7.317   6.787  10.430
    1ECLIP H65R32348   7.402   6.822  10.492
    1ECLIP H65S32349   7.256   6.876  10.404
    1ECLIP  C6632350   7.374   6.726  10.302
    1ECLIP H66R32351   7.447   6.648  10.330
    1ECLIP H66S32352   7.429   6.806  10.248
    1ECLIP  C6732353   7.271   6.663  10.208
    1ECLIP H67R32354   7.248   6.560  10.241
    1ECLIP H67S32355   7.321   6.657  10.109
    1ECLIP  C6832356   7.139   6.740  10.190
    1ECLIP H68R32357   7.157   6.849  10.197
    1ECLIP H68S32358   7.069   6.713  10.272
    1ECLIP  C6932359   7.077   6.708  10.054
    1ECLIP H69R32360   7.126   6.616  10.015
    1ECLIP H69S32361   7.100   6.792   9.985
    1ECLIP C61032362   6.927   6.681  10.055
    1ECLIPH610R32363   6.875   6.779  10.065
    1ECLIPH610S32364   6.902   6.618  10.143
    1ECLIP C61132365   6.876   6.615   9.927
    1ECLIPH611R32366   6.913   6.510   9.924
    1ECLIPH611S32367   6.765   6.611   9.929
    1ECLIP C61232368   6.922   6.686   9.801
    1ECLIPH612R32369   6.879   6.789   9.795
    1ECLIPH612S32370   7.032   6.697   9.803
    1ECLIPH612T32371   6.893   6.628   9.711
    1ECLIP  C5432372   7.142   7.246  10.903
    1ECLIP H54R32373   7.245   7.286  10.893
    1ECLIP H54S32374   7.086   7.306  10.977
    1ECLIP  C5532375   7.068   7.264  10.767
    1ECLIP H55R32376   7.039   7.371  10.758
    1ECLIP H55S32377   6.973   7.206  10.769
    1ECLIP  C5632378   7.148   7.226  10.642
    1ECLIP H56R32379   7.173   7.118  10.640
    1ECLIP H56S32380   7.247   7.276  10.646
    1ECLIP  C5732381   7.076   7.250  10.508
    1ECLIP H57R32382   7.079   7.358  10.482
    1ECLIP H57S32383   6.970   7.219  10.520
    1ECLIP  C5832384   7.139   7.165  10.396
    1ECLIP H58R32385   7.247   7.187  10.390
    1ECLIP H58S32386   7.130   7.057  10.423
    1ECLIP  C5932387   7.076   7.187  10.259
    1ECLIP H59R32388   7.052   7.295  10.246
    1ECLIP H59S32389   6.979   7.132  10.253
    1ECLIP C51032390   7.170   7.144  10.146
    1ECLIPH510R32391   7.212   7.044  10.167
    1ECLIPH510S32392   7.255   7.215  10.143
    1ECLIP C51132393   7.101   7.143  10.009
    1ECLIPH511R32394   7.027   7.060  10.004
    1ECLIPH511S32395   7.044   7.238  10.000
    1ECLIP C51232396   7.200   7.135   9.893
    1ECLIPH512R32397   7.173   7.214   9.820
    1ECLIPH512S32398   7.303   7.156   9.928
    1ECLIP C51332399   7.199   7.003   9.816
    1ECLIPH513R32400   7.094   6.972   9.795
    1ECLIPH513S32401   7.245   6.925   9.881
    1ECLIP C51432402   7.276   7.014   9.684
    1ECLIPH514R32403   7.383   7.037   9.704
    1ECLIPH514S32404   7.270   6.919   9.628
    1ECLIPH514T32405   7.235   7.094   9.620
    1ECLIP  C3332406   7.229   6.687  11.150
    1ECLIP H33R32407   7.294   6.600  11.174
    1ECLIP  O3332408   7.232   6.784  11.253
    1ECLIP HO3332409   7.251   6.736  11.334
    1ECLIP  C3432410   7.295   6.744  11.026
    1ECLIP H34R32411   7.233   6.831  10.995
    1ECLIP H34S32412   7.293   6.667  10.946
    1ECLIP  C3532413   7.441   6.786  11.054
    1ECLIP H35R32414   7.501   6.697  11.083
    1ECLIP H35S32415   7.443   6.855  11.141
    1ECLIP  C3632416   7.506   6.857  10.934
    1ECLIP H36R32417   7.431   6.929  10.894
    1ECLIP H36S32418   7.528   6.783  10.855
    1ECLIP  C3732419   7.631   6.941  10.965
    1ECLIP H37R32420   7.718   6.873  10.976
    1ECLIP H37S32421   7.617   6.993  11.063
    1ECLIP  C3832422   7.656   7.047  10.856
    1ECLIP H38R32423   7.575   7.123  10.863
    1ECLIP H38S32424   7.753   7.098  10.875
    1ECLIP  C3932425   7.655   6.987  10.714
    1ECLIP H39R32426   7.558   6.935  10.699
    1ECLIP H39S32427   7.735   6.911  10.705
    1ECLIP C31032428   7.667   7.090  10.601
    1ECLIPH310R32429   7.773   7.120  10.590
    1ECLIPH310S32430   7.607   7.180  10.626
    1ECLIP C31132431   7.613   7.030  10.470
    1ECLIPH311R32432   7.662   6.932  10.453
    1ECLIPH311S32433   7.504   7.012  10.484
    1ECLIP C31232434   7.632   7.119  10.346
    1ECLIPH312R32435   7.590   7.220  10.367
    1ECLIPH312S32436   7.740   7.130  10.326
    1ECLIP C31332437   7.561   7.058  10.224
    1ECLIPH313R32438   7.605   6.959  10.204
    1ECLIPH313S32439   7.454   7.042  10.250
    1ECLIP C31432440   7.570   7.145  10.099
    1ECLIPH314R32441   7.676   7.162  10.071
    1ECLIPH314S32442   7.519   7.094  10.014
    1ECLIPH314T32443   7.521   7.243  10.115
    1ECLIP  C1132444   6.761   7.061  10.956
    1ECLIP  O1132445   6.833   7.160  10.961
    1ECLIP  C1232446   6.664   7.039  10.840
    1ECLIP H12R32447   6.606   7.133  10.833
    1ECLIP H12S32448   6.592   6.958  10.867
    1ECLIP  C1332449   6.722   7.007  10.700
    1ECLIP H13R32450   6.806   7.075  10.678
    1ECLIP  O1332451   6.618   7.031  10.608
    1ECLIP HO1332452   6.641   7.000  10.520
    1ECLIP  C1432453   6.763   6.862  10.670
    1ECLIP H14R32454   6.685   6.794  10.711
    1ECLIP H14S32455   6.856   6.834  10.722
    1ECLIP  C1532456   6.774   6.829  10.518
    1ECLIP H15R32457   6.670   6.813  10.483
    1ECLIP H15S32458   6.827   6.732  10.506
    1ECLIP  C1632459   6.842   6.931  10.423
    1ECLIP H16R32460   6.952   6.919  10.433
    1ECLIP H16S32461   6.819   7.036  10.449
    1ECLIP  C1732462   6.805   6.906  10.276
    1ECLIP H17R32463   6.803   6.796  10.261
    1ECLIP H17S32464   6.884   6.948  10.210
    1ECLIP  C1832465   6.669   6.966  10.233
    1ECLIP H18R32466   6.593   6.931  10.306
    1ECLIP H18S32467   6.674   7.077  10.241
    1ECLIP  C1932468   6.622   6.925  10.092
    1ECLIP H19R32469   6.518   6.963  10.081
    1ECLIP H19S32470   6.617   6.815  10.085
    1ECLIP C11032471   6.701   6.982   9.973
    1ECLIPH110R32472   6.776   7.056  10.010
    1ECLIPH110S32473   6.757   6.900   9.924
    1ECLIP C11132474   6.609   7.049   9.869
    1ECLIPH111R32475   6.534   6.976   9.834
    1ECLIPH111S32476   6.553   7.130   9.922
    1ECLIP C11232477   6.683   7.112   9.750
    1ECLIPH112R32478   6.640   7.214   9.735
    1ECLIPH112S32479   6.790   7.124   9.777
    1ECLIP C11332480   6.671   7.035   9.618
    1ECLIPH113R32481   6.755   6.962   9.611
    1ECLIPH113S32482   6.577   6.976   9.621
    1ECLIP C11432483   6.670   7.121   9.492
    1ECLIPH114R32484   6.626   7.221   9.512
    1ECLIPH114S32485   6.773   7.135   9.452
    1ECLIPH114T32486   6.610   7.071   9.412
    2AKDO    C132487   7.356   7.293  12.043
    2AKDO   O1132488   7.403   7.406  12.007
    2AKDO   O1232489   7.417   7.183  12.043
    2AKDO    C232490   7.205   7.288  12.085
    2AKDO    C632491   7.037   7.441  12.167
    2AKDO    H632492   6.974   7.418  12.078
    2AKDO    O632493   7.175   7.420  12.134
    2AKDO    C332494   7.161   7.187  12.193
    2AKDO   H3132495   7.222   7.199  12.284
    2AKDO   H3232496   7.178   7.084  12.154
    2AKDO    C432497   7.014   7.204  12.225
    2AKDO    H432498   6.958   7.193  12.130
    2AKDO    O432499   6.964   7.109  12.321
    2AKDO    C532500   6.992   7.344  12.278
    2AKDO    H532501   6.883   7.356  12.293
    2AKDO    O532502   7.062   7.354  12.405
    2AKDO    C732503   7.033   7.593  12.188
    2AKDO    H732504   7.123   7.622  12.246
    2AKDO    O732505   6.920   7.643  12.259
    2AKDO   HO732506   6.846   7.585  12.241
    2AKDO    C832507   7.042   7.659  12.051
    2AKDO   H8132508   7.115   7.604  11.988
    2AKDO   H8232509   6.944   7.651  11.998
    2AKDO    O832510   7.082   7.798  12.054
    2AKDO   HO832511   7.112   7.812  11.964
    3AKDO    C132512   6.749   7.074  12.195
    3AKDO   O1132513   6.755   7.068  12.069
    3AKDO   O1232514   6.646   7.105  12.263
    3AKDO    C232515   6.868   7.012  12.279
    3AKDO    C632516   7.032   6.833  12.293
    3AKDO    H632517   7.109   6.908  12.321
    3AKDO    O632518   6.930   6.899  12.211
    3AKDO    C332519   6.810   6.959  12.410
    3AKDO   H3132520   6.729   6.887  12.384
    3AKDO   H3232521   6.765   7.043  12.466
    3AKDO    C432522   6.908   6.891  12.499
    3AKDO    H432523   6.987   6.962  12.532
    3AKDO    O432524   6.836   6.842  12.612
    3AKDO   HO432525   6.823   6.751  12.587
    3AKDO    C532526   6.970   6.777  12.422
    3AKDO    H532527   7.050   6.734  12.485
    3AKDO    O532528   6.874   6.674  12.395
    3AKDO   HO532529   6.891   6.640  12.307
    3AKDO    C732530   7.106   6.721  12.218
    3AKDO    H732531   7.032   6.644  12.185
    3AKDO    O732532   7.201   6.661  12.306
    3AKDO   HO732533   7.202   6.568  12.282
    3AKDO    C832534   7.179   6.772  12.095
    3AKDO   H8132535   7.108   6.822  12.026
    3AKDO   H8232536   7.256   6.846  12.124
    3AKDO    O832537   7.242   6.664  12.025
    3AKDO   HO832538   7.222   6.582  12.070
    4AHEP    C132539   7.021   7.451  12.497
    4AHEP    H132540   7.065   7.547  12.463
    4AHEP    C532541   6.807   7.363  12.558
    4AHEP    H532542   6.833   7.271  12.502
    4AHEP    O532543   6.880   7.475  12.501
    4AHEP    C232544   7.076   7.426  12.638
    4AHEP    H232545   7.182   7.397  12.627
    4AHEP    O232546   7.071   7.542  12.722
    4AHEP   HO232547   7.024   7.509  12.799
    4AHEP    C332548   7.003   7.312  12.705
    4AHEP    H332549   7.022   7.216  12.652
    4AHEP    O332550   7.036   7.304  12.845
    4AHEP    C432551   6.856   7.348  12.702
    4AHEP    H432552   6.843   7.448  12.748
    4AHEP    O432553   6.784   7.246  12.772
    4AHEP    P432554   6.703   7.290  12.907
    4AHEP  OP4232555   6.668   7.157  12.969
    4AHEP  OP4332556   6.574   7.338  12.845
    4AHEP  OP4432557   6.782   7.392  12.987
    4AHEP    C632558   6.656   7.384  12.543
    4AHEP    H632559   6.605   7.290  12.572
    4AHEP    O632560   6.611   7.489  12.630
    4AHEP   HO632561   6.595   7.447  12.714
    4AHEP    C732562   6.615   7.416  12.399
    4AHEP   H7132563   6.504   7.420  12.391
    4AHEP   H7232564   6.649   7.334  12.332
    4AHEP    O732565   6.673   7.539  12.355
    4AHEP   HO732566   6.745   7.547  12.417
    5AHEP    C132567   7.087   7.182  12.896
    5AHEP    H132568   7.050   7.096  12.837
    5AHEP    C532569   7.282   7.303  12.960
    5AHEP    H532570   7.239   7.395  12.914
    5AHEP    O532571   7.230   7.188  12.891
    5AHEP    C232572   7.048   7.164  13.043
    5AHEP    H232573   6.937   7.161  13.049
    5AHEP    O232574   7.098   7.042  13.098
    5AHEP   HO232575   7.082   6.969  13.038
    5AHEP    C332576   7.095   7.284  13.123
    5AHEP    H332577   7.043   7.373  13.082
    5AHEP    O332578   7.070   7.273  13.265
    5AHEP    C432579   7.245   7.297  13.108
    5AHEP    H432580   7.294   7.211  13.157
    5AHEP    O432581   7.286   7.424  13.158
    5AHEP    P432582   7.392   7.441  13.282
    5AHEP  OP4232583   7.466   7.569  13.253
    5AHEP  OP4332584   7.491   7.326  13.280
    5AHEP  OP4432585   7.311   7.453  13.409
    5AHEP    C632586   7.431   7.304  12.931
    5AHEP    H632587   7.472   7.400  12.968
    5AHEP    O632588   7.494   7.195  13.001
    5AHEP   HO632589   7.433   7.123  12.985
    5AHEP    C732590   7.457   7.297  12.780
    5AHEP   H7132591   7.533   7.374  12.756
    5AHEP   H7232592   7.367   7.325  12.721
    5AHEP    O732593   7.511   7.171  12.735
    6AHEP    C132594   7.414   7.086  12.676
    6AHEP    H132595   7.311   7.122  12.693
    6AHEP    C532596   7.549   7.022  12.487
    6AHEP    H532597   7.634   7.079  12.530
    6AHEP    O532598   7.426   7.082  12.533
    6AHEP    C232599   7.427   6.949  12.740
    6AHEP    H232600   7.428   6.963  12.850
    6AHEP    O232601   7.317   6.862  12.711
    6AHEP   HO232602   7.337   6.771  12.736
    6AHEP    C332603   7.559   6.892  12.696
    6AHEP    H332604   7.638   6.966  12.720
    6AHEP    O332605   7.596   6.779  12.774
    6AHEP   HO332606   7.526   6.714  12.773
    6AHEP    C432607   7.560   6.879  12.543
    6AHEP    H432608   7.471   6.822  12.509
    6AHEP    O432609   7.675   6.809  12.497
    6AHEP   HO432610   7.658   6.717  12.519
    6AHEP    C632611   7.562   7.040  12.335
    6AHEP    H632612   7.644   6.975  12.297
    6AHEP    O632613   7.442   7.005  12.266
    6AHEP   HO632614   7.437   7.056  12.184
    6AHEP    C732615   7.597   7.185  12.303
    6AHEP   H7132616   7.608   7.199  12.194
    6AHEP   H7232617   7.695   7.211  12.349
    6AHEP    O732618   7.496   7.273  12.353
    6AHEP   HO732619   7.428   7.209  12.376
    7AGLC    C132620   6.952   7.333  13.313
    7AGLC    H132621   6.935   7.431  13.264
    7AGLC    C532622   6.849   7.120  13.354
    7AGLC    H532623   6.938   7.070  13.311
    7AGLC    O532624   6.836   7.250  13.295
    7AGLC    C232625   6.966   7.352  13.464
    7AGLC    H232626   6.869   7.392  13.500
    7AGLC    O232627   7.063   7.453  13.497
    7AGLC   HO232628   7.148   7.432  13.457
    7AGLC    C332629   6.989   7.219  13.535
    7AGLC    H332630   7.079   7.172  13.490
    7AGLC    O332631   7.006   7.231  13.678
    7AGLC    C432632   6.867   7.134  13.504
    7AGLC    H432633   6.778   7.188  13.544
    7AGLC    O432634   6.871   7.007  13.567
    7AGLC   HO432635   6.781   6.975  13.571
    7AGLC    C632636   6.727   7.038  13.313
    7AGLC   H6132637   6.702   7.060  13.207
    7AGLC   H6232638   6.753   6.930  13.319
    7AGLC    O632639   6.613   7.061  13.397
    7AGLC   HO632640   6.536   7.016  13.361
    8AGLC    C132641   7.118   7.161  13.728
    8AGLC    H132642   7.127   7.062  13.678
    8AGLC    C532643   7.234   7.368  13.762
    8AGLC    H532644   7.143   7.421  13.727
    8AGLC    O532645   7.238   7.236  13.703
    8AGLC    C232646   7.112   7.143  13.879
    8AGLC    H232647   7.205   7.091  13.909
    8AGLC    O232648   7.000   7.066  13.925
    8AGLC    C332649   7.103   7.276  13.949
    8AGLC    H332650   7.013   7.328  13.907
    8AGLC    O332651   7.077   7.257  14.090
    8AGLC    C432652   7.224   7.359  13.914
    8AGLC    H432653   7.318   7.312  13.952
    8AGLC    O432654   7.209   7.489  13.970
    8AGLC   HO432655   7.229   7.551  13.900
    8AGLC    C632656   7.354   7.442  13.703
    8AGLC   H6132657   7.412   7.374  13.636
    8AGLC   H6232658   7.315   7.522  13.637
    8AGLC    O632659   7.442   7.501  13.798
    8AGLC   HO632660   7.473   7.584  13.760
    9AGAL    C132661   6.988   6.932  13.885
    9AGAL    H132662   6.985   6.924  13.774
    9AGAL    C532663   7.103   6.858  14.079
    9AGAL    H532664   7.116   6.964  14.108
    9AGAL    O532665   7.095   6.852  13.936
    9AGAL    C232666   6.854   6.885  13.941
    9AGAL    H232667   6.836   6.781  13.908
    9AGAL    O232668   6.757   6.971  13.877
    9AGAL    C332669   6.860   6.889  14.094
    9AGAL    H332670   6.882   6.993  14.125
    9AGAL    O332671   6.739   6.851  14.159
    9AGAL   HO332672   6.676   6.922  14.139
    9AGAL    C432673   6.976   6.804  14.142
    9AGAL    H432674   6.984   6.814  14.252
    9AGAL    O432675   6.961   6.665  14.111
    9AGAL   HO432676   7.048   6.631  14.095
    9AGAL    C632677   7.228   6.785  14.125
    9AGAL   H6132678   7.317   6.846  14.099
    9AGAL   H6232679   7.227   6.769  14.235
    9AGAL    O632680   7.239   6.660  14.060
    9AGAL   HO632681   7.224   6.679  13.967
   10AGAL    C132682   6.632   7.002  13.933
   10AGAL    H132683   6.577   6.907  13.954
   10AGAL    C532684   6.715   7.204  14.030
   10AGAL    H532685   6.810   7.181  13.976
   10AGAL    O532686   6.646   7.079  14.054
   10AGAL    C232687   6.552   7.083  13.832
   10AGAL    H232688   6.451   7.101  13.875
   10AGAL    O232689   6.535   7.009  13.710
   10AGAL   HO232690   6.443   6.995  13.688
   10AGAL    C332691   6.620   7.217  13.805
   10AGAL    H332692   6.721   7.196  13.764
   10AGAL    O332693   6.549   7.295  13.709
   10AGAL   HO332694   6.552   7.246  13.626
   10AGAL    C432695   6.636   7.293  13.935
   10AGAL    H432696   6.696   7.384  13.915
   10AGAL    O432697   6.512   7.335  13.992
   10AGAL   HO432698   6.455   7.357  13.918
   10AGAL    C632699   6.760   7.267  14.160
   10AGAL   H6132700   6.824   7.193  14.213
   10AGAL   H6232701   6.821   7.357  14.137
   10AGAL    O632702   6.653   7.304  14.247
   10AGAL   HO632703   6.579   7.326  14.191
   11BGLC    C132704   7.185   7.239  14.180
   11BGLC    H132705   7.229   7.338  14.204
   11BGLC    C532706   7.394   7.130  14.219
   11BGLC    H532707   7.431   7.229  14.255
   11BGLC    O532708   7.286   7.153  14.127
   11BGLC    C232709   7.124   7.174  14.304
   11BGLC    H232710   7.074   7.079  14.275
   11BGLC    O232711   7.025   7.259  14.365
   11BGLC   HO232712   6.944   7.250  14.314
   11BGLC    C332713   7.231   7.142  14.405
   11BGLC    H332714   7.276   7.237  14.441
   11BGLC    O332715   7.174   7.063  14.512
   11BGLC    C432716   7.338   7.058  14.341
   11BGLC    H432717   7.292   6.962  14.309
   11BGLC    O432718   7.442   7.027  14.433
   11BGLC   HO432719   7.455   6.932  14.432
   11BGLC    C632720   7.508   7.061  14.146
   11BGLC   H6132721   7.568   6.999  14.216
   11BGLC   H6232722   7.468   6.993  14.068
   11BGLC    O632723   7.597   7.155  14.085
   11BGLC   HO632724   7.616   7.128  13.995
   12BGLCN   C132725   7.170   7.129  14.635
   12BGLCN   H132726   7.095   7.211  14.625
   12BGLCN   C532727   7.293   7.272  14.774
   12BGLCN   H532728   7.223   7.355  14.750
   12BGLCN   O532729   7.297   7.185  14.662
   12BGLCN   C232730   7.128   7.039  14.751
   12BGLCN   H232731   7.210   6.965  14.766
   12BGLCN    N32732   7.005   6.969  14.717
   12BGLCN   HN32733   6.937   7.022  14.666
   12BGLCN    C32734   6.983   6.839  14.736
   12BGLCN    O32735   7.061   6.764  14.793
   12BGLCN   CT32736   6.851   6.788  14.685
   12BGLCN  HT132737   6.817   6.702  14.747
   12BGLCN  HT232738   6.863   6.754  14.580
   12BGLCN  HT332739   6.773   6.868  14.689
   12BGLCN   C332740   7.116   7.125  14.877
   12BGLCN   H332741   7.032   7.197  14.864
   12BGLCN   O332742   7.090   7.038  14.992
   12BGLCN   C432743   7.248   7.195  14.897
   12BGLCN   H432744   7.327   7.122  14.928
   12BGLCN   O432745   7.231   7.293  14.998
   12BGLCN  HO432746   7.178   7.365  14.962
   12BGLCN   C632747   7.434   7.325  14.777
   12BGLCN  H6132748   7.449   7.387  14.868
   12BGLCN  H6232749   7.507   7.241  14.782
   12BGLCN   O632750   7.465   7.407  14.664
   12BGLCN  HO632751   7.457   7.352  14.585
   13AGAL    C132752   7.018   7.090  15.103
   13AGAL    H132753   7.052   7.192  15.129
   13AGAL    C532754   6.823   6.962  15.045
   13AGAL    H532755   6.886   6.916  14.966
   13AGAL    O532756   6.876   7.093  15.072
   13AGAL    C232757   7.029   7.004  15.232
   13AGAL    H232758   6.958   7.050  15.305
   13AGAL    O232759   7.157   7.002  15.297
   13AGAL    C332760   6.980   6.863  15.206
   13AGAL    H332761   7.038   6.823  15.120
   13AGAL    O332762   7.004   6.777  15.317
   13AGAL   HO332763   7.073   6.714  15.291
   13AGAL    C432764   6.834   6.869  15.167
   13AGAL    H432765   6.802   6.767  15.136
   13AGAL    O432766   6.748   6.911  15.273
   13AGAL   HO432767   6.777   6.998  15.303
   13AGAL    C632768   6.683   6.972  14.985
   13AGAL   H6132769   6.685   7.039  14.897
   13AGAL   H6232770   6.652   6.871  14.950
   13AGAL    O632771   6.586   7.020  15.078
   13AGAL   HO632772   6.598   6.967  15.157
   14ARHM    C132773   7.178   7.080  15.414
   14ARHM    H132774   7.115   7.171  15.407
   14ARHM    C532775   7.406   7.018  15.430
   14ARHM    H532776   7.396   6.949  15.344
   14ARHM    O532777   7.312   7.125  15.416
   14ARHM    C232778   7.146   7.009  15.547
   14ARHM    H232779   7.042   6.971  15.543
   14ARHM    O232780   7.165   7.088  15.668
   14ARHM    C332781   7.240   6.891  15.561
   14ARHM    H332782   7.227   6.824  15.473
   14ARHM    O332783   7.210   6.814  15.677
   14ARHM   HO332784   7.233   6.863  15.757
   14ARHM    C432785   7.383   6.942  15.560
   14ARHM    H432786   7.397   7.013  15.644
   14ARHM    O432787   7.478   6.838  15.576
   14ARHM   HO432788   7.446   6.779  15.645
   14ARHM    C632789   7.543   7.085  15.424
   14ARHM   H6132790   7.551   7.146  15.331
   14ARHM   H6232791   7.560   7.150  15.512
   14ARHM   H6332792   7.622   7.006  15.421
   15ARHM    C132793   7.066   7.180  15.708
   15ARHM    H132794   6.990   7.187  15.627
   15ARHM    C532795   7.210   7.325  15.837
   15ARHM    H532796   7.293   7.253  15.823
   15ARHM    O532797   7.118   7.314  15.726
   15ARHM    C232798   6.994   7.138  15.835
   15ARHM    H232799   6.963   7.031  15.825
   15ARHM    O232800   6.875   7.218  15.843
   15ARHM    C332801   7.088   7.150  15.954
   15ARHM    H332802   7.176   7.086  15.929
   15ARHM    O332803   7.033   7.104  16.077
   15ARHM    C432804   7.136   7.293  15.965
   15ARHM    H432805   7.048   7.360  15.973
   15ARHM    O432806   7.216   7.320  16.080
   15ARHM   HO432807   7.212   7.414  16.098
   15ARHM    C632808   7.272   7.466  15.846
   15ARHM   H6132809   7.339   7.473  15.935
   15ARHM   H6232810   7.336   7.487  15.758
   15ARHM   H6332811   7.194   7.544  15.854
   16BMANN   C132812   6.805   7.222  15.965
   16BMANN   H132813   6.867   7.274  16.041
   16BMANN   C532814   6.705   7.101  16.142
   16BMANN   H532815   6.775   7.151  16.213
   16BMANN   O532816   6.768   7.093  16.013
   16BMANN   C232817   6.681   7.304  15.941
   16BMANN   H232818   6.715   7.405  15.911
   16BMANN    N32819   6.601   7.246  15.833
   16BMANN   HN32820   6.593   7.147  15.833
   16BMANN    C32821   6.553   7.316  15.729
   16BMANN    O32822   6.562   7.438  15.720
   16BMANN   CT32823   6.486   7.235  15.621
   16BMANN  HT132824   6.409   7.297  15.571
   16BMANN  HT232825   6.437   7.145  15.664
   16BMANN  HT332826   6.562   7.204  15.546
   16BMANN   C332827   6.610   7.319  16.074
   16BMANN   H332828   6.679   7.373  16.143
   16BMANN   O332829   6.494   7.400  16.060
   16BMANN  HO332830   6.439   7.388  16.138
   16BMANN   C432831   6.577   7.183  16.132
   16BMANN   H432832   6.503   7.131  16.067
   16BMANN   O432833   6.521   7.200  16.263
   16BMANN  HO432834   6.456   7.134  16.284
   16BMANN   C632835   6.683   6.959  16.189
   16BMANN  H6132836   6.633   6.958  16.288
   16BMANN  H6232837   6.616   6.906  16.117
   16BMANN   O632838   6.806   6.888  16.199
   16BMANN  HO632839   6.862   6.914  16.126
   17BGLCN   C132840   7.132   7.045  16.156
   17BGLCN   H132841   7.230   7.095  16.139
   17BGLCN   C532842   7.262   6.855  16.182
   17BGLCN   H532843   7.352   6.918  16.165
   17BGLCN   O532844   7.149   6.911  16.116
   17BGLCN   C232845   7.100   7.059  16.303
   17BGLCN   H232846   7.007   7.004  16.327
   17BGLCN    N32847   7.083   7.200  16.332
   17BGLCN   HN32848   7.152   7.258  16.289
   17BGLCN    C32849   6.986   7.262  16.399
   17BGLCN    O32850   6.884   7.208  16.442
   17BGLCN   CT32851   7.007   7.410  16.416
   17BGLCN  HT132852   6.910   7.463  16.421
   17BGLCN  HT232853   7.066   7.450  16.330
   17BGLCN  HT332854   7.064   7.427  16.510
   17BGLCN   C332855   7.217   6.996  16.379
   17BGLCN   H332856   7.308   7.051  16.345
   17BGLCN   O332857   7.201   7.017  16.520
   17BGLCN   C432858   7.236   6.852  16.333
   17BGLCN   H432859   7.142   6.796  16.353
   17BGLCN   O432860   7.344   6.786  16.398
   17BGLCN  HO432861   7.327   6.692  16.402
   17BGLCN   C632862   7.288   6.724  16.115
   17BGLCN  H6132863   7.363   6.670  16.177
   17BGLCN  H6232864   7.194   6.665  16.109
   17BGLCN   O632865   7.345   6.739  15.984
   17BGLCN  HO632866   7.420   6.680  15.978
   18AGAL    C132867   7.320   7.018  16.596
   18AGAL    H132868   7.360   6.914  16.605
   18AGAL    C532869   7.384   7.240  16.533
   18AGAL    H532870   7.290   7.249  16.475
   18AGAL    O532871   7.422   7.101  16.538
   18AGAL    C232872   7.297   7.068  16.737
   18AGAL    H232873   7.400   7.071  16.780
   18AGAL    O232874   7.221   6.978  16.820
   18AGAL    C332875   7.245   7.212  16.733
   18AGAL    H332876   7.156   7.213  16.667
   18AGAL    O332877   7.202   7.263  16.860
   18AGAL   HO332878   7.160   7.348  16.848
   18AGAL    C432879   7.354   7.298  16.671
   18AGAL    H432880   7.315   7.402  16.658
   18AGAL    O432881   7.470   7.306  16.752
   18AGAL   HO432882   7.444   7.299  16.845
   18AGAL    C632883   7.489   7.316  16.452
   18AGAL   H6132884   7.470   7.302  16.344
   18AGAL   H6232885   7.482   7.425  16.474
   18AGAL    O632886   7.623   7.271  16.478
   18AGAL   HO632887   7.631   7.181  16.447
   19ARHM    C132888   7.274   6.976  16.951
   19ARHM    H132889   7.315   7.076  16.977
   19ARHM    C532890   7.343   6.746  16.948
   19ARHM    H532891   7.303   6.733  16.845
   19ARHM    O532892   7.382   6.883  16.966
   19ARHM    C232893   7.164   6.944  17.049
   19ARHM    H232894   7.077   7.009  17.024
   19ARHM    O232895   7.202   6.967  17.185
   19ARHM    C332896   7.117   6.802  17.033
   19ARHM    H332897   7.076   6.789  16.930
   19ARHM    O332898   7.012   6.775  17.126
   19ARHM   HO332899   7.043   6.801  17.214
   19ARHM    C432900   7.236   6.710  17.050
   19ARHM    H432901   7.281   6.728  17.150
   19ARHM    O432902   7.201   6.572  17.044
   19ARHM   HO432903   7.147   6.558  16.966
   19ARHM    C632904   7.472   6.664  16.963
   19ARHM   H6132905   7.547   6.697  16.887
   19ARHM   H6232906   7.516   6.679  17.064
   19ARHM   H6332907   7.451   6.556  16.949
   20ARHM    C132908   7.217   7.104  17.215
   20ARHM    H132909   7.180   7.166  17.131
   20ARHM    C532910   7.414   7.075  17.347
   20ARHM    H532911   7.411   6.966  17.328
   20ARHM    O532912   7.353   7.143  17.236
   20ARHM    C232913   7.135   7.132  17.338
   20ARHM    H232914   7.033   7.090  17.324
   20ARHM    O232915   7.123   7.273  17.360
   20ARHM    C332916   7.194   7.063  17.458
   20ARHM    H332917   7.191   6.953  17.440
   20ARHM    O332918   7.111   7.096  17.569
   20ARHM    C432919   7.338   7.107  17.475
   20ARHM    H432920   7.340   7.217  17.491
   20ARHM    O432921   7.400   7.046  17.589
   20ARHM   HO432922   7.463   6.980  17.562
   20ARHM    C632923   7.561   7.121  17.347
   20ARHM   H6132924   7.567   7.231  17.361
   20ARHM   H6232925   7.617   7.072  17.428
   20ARHM   H6332926   7.608   7.095  17.250
   21BMANN   C132927   7.034   7.334  17.268
   21BMANN   H132928   6.999   7.260  17.194
   21BMANN   C532929   7.010   7.494  17.096
   21BMANN   H532930   6.986   7.414  17.023
   21BMANN   O532931   7.097   7.441  17.197
   21BMANN   C232932   6.914   7.385  17.344
   21BMANN   H232933   6.869   7.297  17.395
   21BMANN    N32934   6.954   7.480  17.447
   21BMANN   HN32935   7.046   7.516  17.437
   21BMANN    C32936   6.883   7.510  17.556
   21BMANN    O32937   6.768   7.471  17.572
   21BMANN   CT32938   6.951   7.595  17.659
   21BMANN  HT132939   6.932   7.703  17.640
   21BMANN  HT232940   7.060   7.576  17.656
   21BMANN  HT332941   6.914   7.568  17.761
   21BMANN   C332942   6.816   7.435  17.240
   21BMANN   H332943   6.790   7.353  17.171
   21BMANN   O332944   6.694   7.476  17.303
   21BMANN  HO332945   6.715   7.502  17.393
   21BMANN   C432946   6.881   7.545  17.159
   21BMANN   H432947   6.904   7.633  17.224
   21BMANN   O432948   6.797   7.587  17.052
   21BMANN  HO432949   6.715   7.624  17.084
   21BMANN   C632950   7.086   7.604  17.025
   21BMANN  H6132951   7.021   7.650  16.947
   21BMANN  H6232952   7.113   7.683  17.097
   21BMANN   O632953   7.205   7.556  16.961
   21BMANN  HO632954   7.258   7.509  17.026
   22BGLCN   C132955   7.105   7.000  17.670
   22BGLCN   H132956   7.190   6.929  17.665
   22BGLCN   C532957   6.968   6.833  17.770
   22BGLCN   H532958   7.053   6.762  17.766
   22BGLCN   O532959   6.980   6.929  17.664
   22BGLCN   C232960   7.108   7.079  17.798
   22BGLCN   H232961   7.018   7.145  17.799
   22BGLCN    N32962   7.226   7.165  17.801
   22BGLCN   HN32963   7.304   7.133  17.749
   22BGLCN    C32964   7.231   7.286  17.859
   22BGLCN    O32965   7.135   7.342  17.911
   22BGLCN   CT32966   7.367   7.350  17.857
   22BGLCN  HT132967   7.386   7.395  17.758
   22BGLCN  HT232968   7.446   7.274  17.878
   22BGLCN  HT332969   7.370   7.429  17.935
   22BGLCN   C332970   7.100   6.985  17.916
   22BGLCN   H332971   7.186   6.915  17.912
   22BGLCN   O332972   7.111   7.067  18.033
   22BGLCN   C432973   6.971   6.906  17.904
   22BGLCN   H432974   6.886   6.978  17.908
   22BGLCN   O432975   6.955   6.812  18.011
   22BGLCN  HO432976   6.865   6.815  18.043
   22BGLCN   C632977   6.840   6.755  17.746
   22BGLCN  H6132978   6.826   6.681  17.827
   22BGLCN  H6232979   6.752   6.823  17.745
   22BGLCN   O632980   6.844   6.683  17.623
   22BGLCN  HO632981   6.832   6.742  17.549
   23AGAL    C132982   7.146   7.007  18.155
   23AGAL    H132983   7.062   6.944  18.191
   23AGAL    C532984   7.381   7.001  18.112
   23AGAL    H532985   7.360   7.054  18.017
   23AGAL    O532986   7.263   6.925  18.147
   23AGAL    C232987   7.169   7.116  18.259
   23AGAL    H232988   7.186   7.067  18.357
   23AGAL    O232989   7.056   7.204  18.267
   23AGAL    C332990   7.291   7.199  18.227
   23AGAL    H332991   7.275   7.249  18.129
   23AGAL    O332992   7.313   7.300  18.324
   23AGAL   HO332993   7.360   7.258  18.396
   23AGAL    C432994   7.411   7.107  18.218
   23AGAL    H432995   7.499   7.165  18.185
   23AGAL    O432996   7.441   7.048  18.344
   23AGAL   HO432997   7.486   6.966  18.322
   23AGAL    C632998   7.496   6.906  18.082
   23AGAL   H6132999   7.462   6.830  18.008
   23AGAL   H6233000   7.578   6.964  18.034
   23AGAL    O633001   7.549   6.840  18.197
   23AGAL   HO633002   7.616   6.778  18.168
   24ARHM    C133003   6.958   7.168  18.360
   24ARHM    H133004   6.966   7.060  18.381
   24ARHM    C533005   6.804   7.323  18.269
   24ARHM    H533006   6.877   7.354  18.193
   24ARHM    O533007   6.827   7.186  18.306
   24ARHM    C233008   6.981   7.252  18.485
   24ARHM    H233009   7.087   7.241  18.515
   24ARHM    O233010   6.899   7.218  18.598
   24ARHM    C333011   6.957   7.397  18.452
   24ARHM    H333012   7.032   7.431  18.376
   24ARHM    O333013   6.975   7.477  18.569
   24ARHM   HO333014   6.894   7.472  18.619
   24ARHM    C433015   6.817   7.411  18.393
   24ARHM    H433016   6.743   7.373  18.466
   24ARHM    O433017   6.783   7.546  18.361
   24ARHM   HO433018   6.692   7.550  18.332
   24ARHM    C633019   6.664   7.326  18.205
   24ARHM   H6133020   6.639   7.428  18.168
   24ARHM   H6233021   6.659   7.256  18.119
   24ARHM   H6333022   6.587   7.295  18.279
   25ARHM    C133023   6.916   7.090  18.652
   25ARHM    H133024   6.976   7.026  18.584
   25ARHM    C533025   6.706   7.091  18.760
   25ARHM    H533026   6.706   7.199  18.735
   25ARHM    O533027   6.789   7.025  18.663
   25ARHM    C233028   6.991   7.094  18.784
   25ARHM    H233029   7.074   7.167  18.771
   25ARHM    O233030   7.048   6.967  18.821
   25ARHM    C333031   6.903   7.157  18.889
   25ARHM    H333032   6.880   7.261  18.857
   25ARHM    O333033   6.974   7.164  19.013
   25ARHM    C433034   6.772   7.079  18.897
   25ARHM    H433035   6.797   6.972  18.914
   25ARHM    O433036   6.684   7.118  19.002
   25ARHM   HO433037   6.613   7.054  19.006
   25ARHM    C633038   6.556   7.055  18.746
   25ARHM   H6133039   6.523   7.077  18.642
   25ARHM   H6233040   6.537   6.947  18.766
   25ARHM   H6333041   6.496   7.116  18.816
   26BMANN   C133042   7.173   6.939  18.760
   26BMANN   H133043   7.215   7.028  18.709
   26BMANN   C533044   7.288   6.804  18.599
   26BMANN   H533045   7.323   6.897  18.550
   26BMANN   O533046   7.162   6.833  18.664
   26BMANN   C233047   7.268   6.894  18.870
   26BMANN   H233048   7.279   6.979  18.940
   26BMANN    N33049   7.209   6.786  18.948
   26BMANN   HN33050   7.117   6.763  18.916
   26BMANN    C33051   7.256   6.730  19.060
   26BMANN    O33052   7.369   6.747  19.102
   26BMANN   CT33053   7.160   6.640  19.135
   26BMANN  HT133054   7.079   6.604  19.068
   26BMANN  HT233055   7.115   6.698  19.218
   26BMANN  HT333056   7.216   6.554  19.177
   26BMANN   C333057   7.404   6.869  18.805
   26BMANN   H333058   7.434   6.963  18.753
   26BMANN   O333059   7.508   6.845  18.900
   26BMANN  HO333060   7.468   6.810  18.980
   26BMANN   C433061   7.393   6.760  18.701
   26BMANN   H433062   7.360   6.666  18.749
   26BMANN   O433063   7.518   6.738  18.638
   26BMANN  HO433064   7.584   6.734  18.707
   26BMANN   C633065   7.266   6.703  18.488
   26BMANN  H6133066   7.183   6.736  18.422
   26BMANN  H6233067   7.358   6.697  18.426
   26BMANN   O633068   7.236   6.572  18.538
   26BMANN  HO633069   7.240   6.508  18.466
   27BGLCN   C133070   6.934   7.270  19.097
   27BGLCN   H133071   6.825   7.290  19.088
   27BGLCN   C533072   6.962   7.497  19.157
   27BGLCN   H533073   6.852   7.509  19.149
   27BGLCN   O533074   7.005   7.391  19.070
   27BGLCN   C233075   6.966   7.224  19.238
   27BGLCN   H233076   7.076   7.214  19.245
   27BGLCN    N33077   6.906   7.094  19.264
   27BGLCN   HN33078   6.826   7.072  19.208
   27BGLCN    C33079   6.957   7.002  19.346
   27BGLCN    O33080   7.060   7.018  19.410
   27BGLCN   CT33081   6.881   6.873  19.356
   27BGLCN  HT133082   6.809   6.862  19.271
   27BGLCN  HT233083   6.825   6.871  19.452
   27BGLCN  HT333084   6.952   6.788  19.355
   27BGLCN   C333085   6.922   7.332  19.335
   27BGLCN   H333086   6.813   7.348  19.319
   27BGLCN   O333087   6.943   7.283  19.469
   27BGLCN   C433088   6.993   7.462  19.301
   27BGLCN   H433089   7.102   7.442  19.311
   27BGLCN   O433090   6.962   7.571  19.387
   27BGLCN  HO433091   6.869   7.595  19.384
   27BGLCN   C633092   7.025   7.627  19.109
   27BGLCN  H6133093   6.996   7.711  19.176
   27BGLCN  H6233094   7.135   7.618  19.112
   27BGLCN   O633095   6.983   7.660  18.976
   27BGLCN  HO633096   6.915   7.727  18.978
   28AGAL    C133097   6.882   7.353   0.101
   28AGAL    H133098   6.938   7.447   0.121
   28AGAL    C533099   6.662   7.268   0.057
   28AGAL    H533100   6.706   7.205  19.449
   28AGAL    O533101   6.745   7.386   0.072
   28AGAL    C233102   6.886   7.272   0.229
   28AGAL    H233103   6.835   7.336   0.304
   28AGAL    O233104   7.019   7.243   0.276
   28AGAL    C333105   6.805   7.145   0.214
   28AGAL    H333106   6.846   7.087   0.128
   28AGAL    O333107   6.814   7.061   0.329
   28AGAL   HO333108   6.894   7.008   0.321
   28AGAL    C433109   6.661   7.182   0.183
   28AGAL    H433110   6.604   7.089   0.161
   28AGAL    O433111   6.598   7.246   0.293
   28AGAL   HO433112   6.615   7.191   0.370
   28AGAL    C633113   6.525   7.310   0.007
   28AGAL   H6133114   6.535   7.365  19.383
   28AGAL   H6233115   6.464   7.219  19.459
   28AGAL    O633116   6.455   7.392   0.100
   28AGAL   HO633117   6.490   7.372   0.186
   29ARHM    C133118   7.034   7.277   0.411
   29ARHM    H133119   6.939   7.256   0.465
   29ARHM    C533120   7.191   7.449   0.360
   29ARHM    H533121   7.182   7.428   0.251
   29ARHM    O533122   7.068   7.416   0.426
   29ARHM    C233123   7.143   7.194   0.475
   29ARHM    H233124   7.118   7.087   0.461
   29ARHM    O233125   7.149   7.225   0.616
   29ARHM    C333126   7.275   7.220   0.408
   29ARHM    H333127   7.267   7.193   0.300
   29ARHM    O333128   7.380   7.141   0.465
   29ARHM   HO333129   7.462   7.178   0.434
   29ARHM    C433130   7.306   7.368   0.419
   29ARHM    H433131   7.315   7.395   0.526
   29ARHM    O433132   7.429   7.401   0.354
   29ARHM   HO433133   7.426   7.371   0.263
   29ARHM    C633134   7.207   7.600   0.379
   29ARHM   H6133135   7.119   7.654   0.339
   29ARHM   H6233136   7.218   7.625   0.487
   29ARHM   H6333137   7.297   7.636   0.325
   30ARHM    C133138   7.073   7.139   0.696
   30ARHM    H133139   7.098   7.034   0.671
   30ARHM    C533140   6.886   7.287   0.721
   30ARHM    H533141   6.937   7.362   0.657
   30ARHM    O533142   6.931   7.156   0.683
   30ARHM    C233143   7.111   7.165   0.840
   30ARHM    H233144   7.222   7.158   0.845
   30ARHM    O233145   7.052   7.067   0.925
   30ARHM    C333146   7.069   7.303   0.886
   30ARHM    H333147   7.118   7.377   0.819
   30ARHM    O333148   7.121   7.326   1.020
   30ARHM    C433149   6.919   7.316   0.867
   30ARHM    H433150   6.865   7.243   0.930
   30ARHM    O433151   6.873   7.447   0.900
   30ARHM   HO433152   6.908   7.508   0.836
   30ARHM    C633153   6.736   7.291   0.689
   30ARHM   H6133154   6.694   7.392   0.710
   30ARHM   H6233155   6.719   7.268   0.581
   30ARHM   H6333156   6.681   7.217   0.750
   31BMANN   C133157   7.131   6.955   0.949
   31BMANN   H133158   7.237   6.984   0.968
   31BMANN   C533159   7.199   6.744   0.863
   31BMANN   H533160   7.305   6.772   0.880
   31BMANN   O533161   7.122   6.863   0.840
   31BMANN   C233162   7.069   6.891   1.070
   31BMANN   H233163   7.083   6.963   1.154
   31BMANN    N33164   6.926   6.872   1.053
   31BMANN   HN33165   6.893   6.876   0.959
   31BMANN    C33166   6.839   6.861   1.154
   31BMANN    O33167   6.877   6.855   1.270
   31BMANN   CT33168   6.693   6.857   1.117
   31BMANN  HT133169   6.673   6.770   1.050
   31BMANN  HT233170   6.665   6.951   1.065
   31BMANN  HT333171   6.632   6.848   1.209
   31BMANN   C333172   7.150   6.768   1.104
   31BMANN   H333173   7.256   6.799   1.118
   31BMANN   O333174   7.107   6.709   1.226
   31BMANN  HO333175   7.021   6.745   1.250
   31BMANN   C433176   7.146   6.672   0.987
   31BMANN   H433177   7.042   6.637   0.969
   31BMANN   O433178   7.229   6.560   1.014
   31BMANN  HO433179   7.220   6.542   1.107
   31BMANN   C633180   7.192   6.657   0.739
   31BMANN  H6133181   7.251   6.564   0.755
   31BMANN  H6233182   7.087   6.626   0.721
   31BMANN   O633183   7.240   6.723   0.622
   31BMANN  HO633184   7.324   6.767   0.637
   32BGLCN   C133185   7.044   7.282   1.130
   32BGLCN   H133186   6.996   7.185   1.107
   32BGLCN   C533187   6.855   7.327   1.266
   32BGLCN   H533188   6.810   7.230   1.234
   32BGLCN   O533189   6.942   7.376   1.164
   32BGLCN   C233190   7.132   7.265   1.253
   32BGLCN   H233191   7.161   7.367   1.286
   32BGLCN    N33192   7.254   7.194   1.223
   32BGLCN   HN33193   7.255   7.141   1.138
   32BGLCN    C33194   7.370   7.210   1.287
   32BGLCN    O33195   7.385   7.282   1.386
   32BGLCN   CT33196   7.486   7.129   1.234
   32BGLCN  HT133197   7.465   7.095   1.130
   32BGLCN  HT233198   7.502   7.040   1.299
   32BGLCN  HT333199   7.578   7.191   1.234
   32BGLCN   C333200   7.046   7.204   1.364
   32BGLCN   H333201   7.001   7.112   1.322
   32BGLCN   O333202   7.118   7.169   1.484
   32BGLCN   C433203   6.934   7.303   1.394
   32BGLCN   H433204   6.978   7.399   1.427
   32BGLCN   O433205   6.848   7.256   1.496
   32BGLCN  HO433206   6.890   7.271   1.582
   32BGLCN   C633207   6.743   7.427   1.277
   32BGLCN  H6133208   6.668   7.393   1.352
   32BGLCN  H6233209   6.783   7.525   1.310
   32BGLCN   O633210   6.678   7.444   1.150
   32BGLCN  HO633211   6.747   7.445   1.083
   33AGAL    C133212   7.077   7.045   1.538
   33AGAL    H133213   6.968   7.029   1.523
   33AGAL    C533214   7.289   6.936   1.503
   33AGAL    H533215   7.329   7.034   1.468
   33AGAL    O533216   7.147   6.935   1.476
   33AGAL    C233217   7.103   7.039   1.688
   33AGAL    H233218   7.067   6.939   1.721
   33AGAL    O233219   7.026   7.139   1.756
   33AGAL    C333220   7.252   7.046   1.717
   33AGAL    H333221   7.291   7.139   1.672
   33AGAL    O333222   7.283   7.051   1.856
   33AGAL   HO333223   7.271   6.963   1.892
   33AGAL    C433224   7.321   6.929   1.651
   33AGAL    H433225   7.431   6.940   1.664
   33AGAL    O433226   7.284   6.803   1.706
   33AGAL   HO433227   7.280   6.742   1.632
   33AGAL    C633228   7.356   6.827   1.421
   33AGAL   H6133229   7.348   6.851   1.313
   33AGAL   H6233230   7.465   6.824   1.446
   33AGAL    O633231   7.300   6.698   1.445
   33AGAL   HO633232   7.222   6.688   1.390
   34ARHM    C133233   6.971   7.093   1.878
   34ARHM    H133234   7.050   7.043   1.938
   34ARHM    C533235   6.754   7.052   1.784
   34ARHM    H533236   6.787   7.085   1.684
   34ARHM    O533237   6.866   6.998   1.856
   34ARHM    C233238   6.918   7.212   1.956
   34ARHM    H233239   7.000   7.287   1.963
   34ARHM    O233240   6.876   7.180   2.090
   34ARHM    C333241   6.802   7.275   1.881
   34ARHM    H333242   6.838   7.309   1.782
   34ARHM    O333243   6.750   7.389   1.949
   34ARHM   HO333244   6.665   7.407   1.908
   34ARHM    C433245   6.695   7.170   1.860
   34ARHM    H433246   6.659   7.135   1.959
   34ARHM    O433247   6.584   7.224   1.788
   34ARHM   HO433248   6.502   7.192   1.827
   34ARHM    C633249   6.655   6.936   1.766
   34ARHM   H6133250   6.622   6.897   1.864
   34ARHM   H6233251   6.566   6.969   1.708
   34ARHM   H6333252   6.703   6.852   1.710
   35ARHM    C133253   6.976   7.130   2.176
   35ARHM    H133254   7.073   7.179   2.154
   35ARHM    C533255   6.864   6.919   2.189
   35ARHM    H533256   6.788   6.953   2.115
   35ARHM    O533257   6.989   6.988   2.166
   35ARHM    C233258   6.931   7.166   2.317
   35ARHM    H233259   6.914   7.276   2.321
   35ARHM    O233260   7.024   7.131   2.421
   35ARHM    C333261   6.799   7.098   2.347
   35ARHM    H333262   6.723   7.134   2.274
   35ARHM    O333263   6.753   7.133   2.477
   35ARHM   HO333264   6.829   7.147   2.534
   35ARHM    C433265   6.815   6.949   2.330
   35ARHM    H433266   6.890   6.911   2.402
   35ARHM    O433267   6.691   6.882   2.355
   35ARHM   HO433268   6.659   6.915   2.439
   35ARHM    C633269   6.892   6.770   2.162
   35ARHM   H6133270   6.928   6.756   2.058
   35ARHM   H6233271   6.968   6.731   2.232
   35ARHM   H6333272   6.798   6.711   2.175
   36BMANN   C133273   7.149   7.195   2.413
   36BMANN   H133274   7.137   7.299   2.374
   36BMANN   C533275   7.369   7.181   2.320
   36BMANN   H533276   7.356   7.283   2.276
   36BMANN   O533277   7.239   7.120   2.331
   36BMANN   C233278   7.207   7.199   2.554
   36BMANN   H233279   7.138   7.258   2.616
   36BMANN    N33280   7.216   7.065   2.613
   36BMANN   HN33281   7.211   6.989   2.549
   36BMANN    C33282   7.235   7.039   2.742
   36BMANN    O33283   7.248   7.127   2.826
   36BMANN   CT33284   7.241   6.894   2.781
   36BMANN  HT133285   7.337   6.850   2.747
   36BMANN  HT233286   7.157   6.839   2.734
   36BMANN  HT333287   7.234   6.885   2.892
   36BMANN   C333288   7.340   7.273   2.546
   36BMANN   H333289   7.323   7.372   2.499
   36BMANN   O333290   7.394   7.299   2.676
   36BMANN  HO333291   7.350   7.241   2.739
   36BMANN   C433292   7.435   7.195   2.457
   36BMANN   H433293   7.452   7.094   2.501
   36BMANN   O433294   7.561   7.259   2.444
   36BMANN  HO433295   7.587   7.288   2.532
   36BMANN   C633296   7.449   7.097   2.222
   36BMANN  H6133297   7.392   7.089   2.127
   36BMANN  H6233298   7.545   7.147   2.199
   36BMANN   O633299   7.475   6.965   2.271
   36BMANN  HO633300   7.554   6.964   2.324
    1ECLIP HB6S33301   5.956   0.033  11.754
    1ECLIP  OB633302   6.077   8.094  11.899
    1ECLIP  CB633303   6.053   0.055  11.803
    1ECLIP HB6R33304   6.038   0.153  11.852
    1ECLIP  CB533305   6.157   0.063  11.693
    1ECLIP  OB533306   6.133   8.084  11.629
    1ECLIP  HB533307   6.262   0.062  11.729
    1ECLIP  CB133308   6.214   8.066  11.514
    1ECLIP  HB133309   6.321   8.071  11.544
    1ECLIP  OA633310   6.194   7.942  11.454
    1ECLIP  CA633311   6.077   7.872  11.500
    1ECLIP HA6R33312   5.990   7.940  11.514
    1ECLIP HA6S33313   6.100   7.823  11.597
    1ECLIP  CB433314   6.133   0.179  11.598
    1ECLIP  HB433315   6.025   0.185  11.573
    1ECLIP  OB433316   6.178   0.287  11.680
    1ECLIP   PB33317   6.128   0.443  11.672
    1ECLIP OPB433318   6.124   0.478  11.818
    1ECLIP OPB333319   5.994   0.449  11.606
    1ECLIP OPB233320   6.241   0.514  11.602
    1ECLIP  CB333321   6.216   0.162  11.471
    1ECLIP  OB333322   6.168   0.258  11.377
    1ECLIP  HB333323   6.325   0.169  11.490
    1ECLIP  C7133324   6.235   0.362  11.340
    1ECLIP  O7133325   6.348   0.394  11.380
    1ECLIP  C7233326   6.176   0.421  11.212
    1ECLIP H72R33327   6.201   0.354  11.127
    1ECLIP H72S33328   6.224   0.520  11.195
    1ECLIP  CB233329   6.185   0.025  11.409
    1ECLIP  HB233330   6.076   0.020  11.387
    1ECLIP  NB233331   6.257   8.133  11.287
    1ECLIP HNB233332   6.319   8.055  11.295
    1ECLIP  CA433333   6.161   7.723  11.315
    1ECLIP  HA433334   6.203   7.814  11.267
    1ECLIP  OA433335   6.260   7.666  11.401
    1ECLIP HOA433336   6.234   7.577  11.424
    1ECLIP  CA533337   6.042   7.770  11.396
    1ECLIP  HA533338   5.992   7.684  11.445
    1ECLIP  OA533339   5.952   7.836  11.307
    1ECLIP  CA133340   5.900   7.751  11.203
    1ECLIP  HA133341   5.832   7.814  11.141
    1ECLIP  OA133342   5.827   7.639  11.249
    1ECLIP OPA233343   5.778   7.535  11.474
    1ECLIP OPA333344   5.699   7.773  11.431
    1ECLIP OPA433345   5.586   7.580  11.315
    1ECLIP   PA33346   5.717   7.633  11.373
    1ECLIP  CA333347   6.120   7.632  11.202
    1ECLIP  HA333348   6.066   7.545  11.246
    1ECLIP  OA333349   6.233   7.579  11.129
    1ECLIP  C3133350   6.327   7.666  11.088
    1ECLIP  O3133351   6.334   7.705  10.973
    1ECLIP  C3233352   6.456   7.642  11.168
    1ECLIP H32R33353   6.522   7.580  11.104
    1ECLIP H32S33354   6.435   7.580  11.257
    1ECLIP  CA233355   6.019   7.709  11.117
    1ECLIP  HA233356   6.070   7.802  11.085
    1ECLIP  NA233357   5.977   7.639  10.997
    1ECLIP HNA233358   5.964   7.540  11.007
    1ECLIP  C7333359   6.022   0.440  11.216
    1ECLIP H73R33360   5.995   0.492  11.310
    1ECLIP  O7333361   5.962   0.311  11.211
    1ECLIP  C8133362   5.833   0.303  11.242
    1ECLIP  O8133363   5.762   0.397  11.273
    1ECLIP  C8233364   5.778   0.167  11.197
    1ECLIP H82R33365   5.674   0.160  11.235
    1ECLIP H82S33366   5.839   0.087  11.244
    1ECLIP  C8333367   5.779   0.150  11.043
    1ECLIP H83R33368   5.884   0.137  11.009
    1ECLIP H83S33369   5.739   0.242  10.994
    1ECLIP  C8433370   5.696   0.031  10.994
    1ECLIP H84R33371   5.588   0.050  11.012
    1ECLIP H84S33372   5.724   8.084  11.052
    1ECLIP  C8533373   5.719   0.003  10.845
    1ECLIP H85R33374   5.825   8.114  10.833
    1ECLIP H85S33375   5.706   0.097  10.788
    1ECLIP  C8633376   5.628   8.038  10.786
    1ECLIP H86R33377   5.525   8.078  10.776
    1ECLIP H86S33378   5.624   7.952  10.857
    1ECLIP  C8733379   5.676   7.985  10.649
    1ECLIP H87R33380   5.599   7.918  10.606
    1ECLIP H87S33381   5.768   7.924  10.667
    1ECLIP  C8833382   5.711   8.096  10.549
    1ECLIP H88R33383   5.794   0.012  10.592
    1ECLIP H88S33384   5.624   0.021  10.536
    1ECLIP  C8933385   5.758   8.046  10.412
    1ECLIP H89R33386   5.822   7.955  10.424
    1ECLIP H89S33387   5.823   8.126  10.370
    1ECLIP C81033388   5.645   8.018  10.312
    1ECLIPH810R33389   5.566   8.095  10.324
    1ECLIPH810S33390   5.598   7.920  10.339
    1ECLIP C81133391   5.690   8.015  10.165
    1ECLIPH811R33392   5.606   7.980  10.102
    1ECLIPH811S33393   5.772   7.940  10.156
    1ECLIP C81233394   5.741   0.005  10.109
    1ECLIPH812R33395   5.780   8.132  10.007
    1ECLIPH812S33396   5.826   0.042  10.171
    1ECLIP C81333397   5.634   0.115  10.104
    1ECLIPH813R33398   5.550   0.080  10.040
    1ECLIPH813S33399   5.593   0.132  10.206
    1ECLIP C81433400   5.687   0.248  10.050
    1ECLIPH814R33401   5.743   0.233   9.955
    1ECLIPH814S33402   5.755   0.295  10.124
    1ECLIPH814T33403   5.603   0.318  10.031
    1ECLIP  C7433404   5.972   0.525  11.095
    1ECLIP H74R33405   6.028   0.621  11.092
    1ECLIP H74S33406   5.866   0.551  11.117
    1ECLIP  C7533407   5.975   0.457  10.956
    1ECLIP H75R33408   5.887   0.495  10.899
    1ECLIP H75S33409   5.961   0.347  10.967
    1ECLIP  C7633410   6.100   0.484  10.872
    1ECLIP H76R33411   6.189   0.439  10.922
    1ECLIP H76S33412   6.116   0.594  10.866
    1ECLIP  C7733413   6.091   0.429  10.728
    1ECLIP H77R33414   5.997   0.465  10.680
    1ECLIP H77S33415   6.086   0.318  10.733
    1ECLIP  C7833416   6.212   0.473  10.645
    1ECLIP H78R33417   6.209   0.584  10.635
    1ECLIP H78S33418   6.302   0.446  10.704
    1ECLIP  C7933419   6.226   0.410  10.506
    1ECLIP H79R33420   6.229   0.300  10.514
    1ECLIP H79S33421   6.324   0.442  10.464
    1ECLIP C71033422   6.118   0.448  10.404
    1ECLIPH710R33423   6.022   0.400  10.435
    1ECLIPH710S33424   6.102   0.558  10.404
    1ECLIP C71133425   6.156   0.401  10.263
    1ECLIPH711R33426   6.245   0.458  10.229
    1ECLIPH711S33427   6.185   0.294  10.269
    1ECLIP C71233428   6.043   0.413  10.161
    1ECLIPH712R33429   6.019   0.520  10.144
    1ECLIPH712S33430   5.952   0.364  10.204
    1ECLIP C71333431   6.076   0.345  10.027
    1ECLIPH713R33432   6.095   0.237  10.046
    1ECLIPH713S33433   5.986   0.349   9.962
    1ECLIP C71433434   6.196   0.404   9.953
    1ECLIPH714R33435   6.186   0.514   9.943
    1ECLIPH714S33436   6.290   0.383  10.009
    1ECLIPH714T33437   6.205   0.360   9.852
    1ECLIP  C5133438   6.230   0.034  11.164
    1ECLIP  O5133439   6.147   0.120  11.142
    1ECLIP  C5233440   6.316   8.122  11.053
    1ECLIP H52R33441   6.390   0.056  11.025
    1ECLIP H52S33442   6.370   8.034  11.093
    1ECLIP  C5333443   6.242   8.078  10.924
    1ECLIP H53R33444   6.169   7.998  10.949
    1ECLIP  O5333445   6.350   8.032  10.844
    1ECLIP  C6133446   6.329   7.921  10.775
    1ECLIP  O6133447   6.220   7.877  10.743
    1ECLIP  C6233448   6.456   7.901  10.690
    1ECLIP H62R33449   6.541   7.880  10.758
    1ECLIP H62S33450   6.474   7.998  10.638
    1ECLIP  C6333451   6.440   7.788  10.586
    1ECLIP H63R33452   6.334   7.782  10.550
    1ECLIP H63S33453   6.461   7.691  10.636
    1ECLIP  C6433454   6.528   7.806  10.462
    1ECLIP H64R33455   6.530   7.709  10.408
    1ECLIP H64S33456   6.632   7.830  10.492
    1ECLIP  C6533457   6.471   7.914  10.369
    1ECLIP H65R33458   6.466   8.010  10.424
    1ECLIP H65S33459   6.367   7.885  10.343
    1ECLIP  C6633460   6.550   7.937  10.239
    1ECLIP H66R33461   6.653   7.967  10.265
    1ECLIP H66S33462   6.503   8.020  10.182
    1ECLIP  C6733463   6.556   7.813  10.149
    1ECLIP H67R33464   6.604   7.732  10.207
    1ECLIP H67S33465   6.621   7.836  10.062
    1ECLIP  C6833466   6.422   7.759  10.096
    1ECLIP H68R33467   6.369   7.837  10.037
    1ECLIP H68S33468   6.357   7.731  10.182
    1ECLIP  C6933469   6.445   7.634  10.009
    1ECLIP H69R33470   6.499   7.560  10.071
    1ECLIP H69S33471   6.512   7.664   9.926
    1ECLIP C61033472   6.320   7.565   9.954
    1ECLIPH610R33473   6.257   7.638   9.899
    1ECLIPH610S33474   6.260   7.528  10.040
    1ECLIP C61133475   6.353   7.445   9.863
    1ECLIPH611R33476   6.414   7.373   9.922
    1ECLIPH611S33477   6.258   7.393   9.837
    1ECLIP C61233478   6.428   7.478   9.733
    1ECLIPH612R33479   6.362   7.531   9.662
    1ECLIPH612S33480   6.517   7.542   9.753
    1ECLIPH612T33481   6.464   7.385   9.684
    1ECLIP  C5433482   6.168   0.050  10.852
    1ECLIP H54R33483   6.238   0.134  10.835
    1ECLIP H54S33484   6.088   0.086  10.921
    1ECLIP  C5533485   6.093   0.016  10.721
    1ECLIP H55R33486   6.012   0.091  10.708
    1ECLIP H55S33487   6.044   8.061  10.730
    1ECLIP  C5633488   6.181   0.022  10.595
    1ECLIP H56R33489   6.252   8.081  10.595
    1ECLIP H56S33490   6.242   0.115  10.597
    1ECLIP  C5733491   6.100   0.014  10.465
    1ECLIP H57R33492   6.031   0.101  10.458
    1ECLIP H57S33493   6.039   8.065  10.468
    1ECLIP  C5833494   6.192   0.010  10.343
    1ECLIP H58R33495   6.254   0.103  10.341
    1ECLIP H58S33496   6.262   8.069  10.356
    1ECLIP  C5933497   6.120   8.137  10.210
    1ECLIP H59R33498   6.045   0.074  10.198
    1ECLIP H59S33499   6.065   8.040  10.210
    1ECLIP C51033500   6.218   8.141  10.092
    1ECLIPH510R33501   6.299   8.067  10.110
    1ECLIPH510S33502   6.264   0.098  10.090
    1ECLIP C51133503   6.153   8.110   9.956
    1ECLIPH511R33504   6.145   8.000   9.945
    1ECLIPH511S33505   6.050   0.008   9.955
    1ECLIP C51233506   6.230   0.025   9.837
    1ECLIPH512R33507   6.185   8.130   9.743
    1ECLIPH512S33508   6.217   0.136   9.837
    1ECLIP C51333509   6.381   8.139   9.838
    1ECLIPH513R33510   6.396   8.030   9.844
    1ECLIPH513S33511   6.427   0.039   9.929
    1ECLIP C51433512   6.453   0.050   9.714
    1ECLIPH514R33513   6.443   0.161   9.710
    1ECLIPH514S33514   6.561   0.024   9.718
    1ECLIPH514T33515   6.409   0.008   9.622
    1ECLIP  C3333516   6.530   7.773  11.207
    1ECLIP H33R33517   6.617   7.746  11.271
    1ECLIP  O3333518   6.444   7.856  11.283
    1ECLIP HO3333519   6.392   7.806  11.346
    1ECLIP  C3433520   6.581   7.851  11.083
    1ECLIP H34R33521   6.493   7.875  11.020
    1ECLIP H34S33522   6.646   7.784  11.022
    1ECLIP  C3533523   6.657   7.983  11.109
    1ECLIP H35R33524   6.756   7.963  11.153
    1ECLIP H35S33525   6.598   8.042  11.182
    1ECLIP  C3633526   6.669   8.065  10.979
    1ECLIP H36R33527   6.570   8.062  10.930
    1ECLIP H36S33528   6.740   8.015  10.909
    1ECLIP  C3733529   6.706   0.069  10.997
    1ECLIP H37R33530   6.816   0.079  11.002
    1ECLIP H37S33531   6.664   0.104  11.094
    1ECLIP  C3833532   6.648   0.160  10.886
    1ECLIP H38R33533   6.538   0.162  10.896
    1ECLIP H38S33534   6.685   0.264  10.900
    1ECLIP  C3933535   6.680   0.113  10.743
    1ECLIP H39R33536   6.638   0.012  10.728
    1ECLIP H39S33537   6.790   0.107  10.729
    1ECLIP C31033538   6.620   0.205  10.635
    1ECLIPH310R33539   6.672   0.304  10.637
    1ECLIPH310S33540   6.513   0.223  10.659
    1ECLIP C31133541   6.629   0.144  10.495
    1ECLIPH311R33542   6.734   0.115  10.474
    1ECLIPH311S33543   6.568   0.052  10.493
    1ECLIP C31233544   6.580   0.239  10.385
    1ECLIPH312R33545   6.479   0.277  10.412
    1ECLIPH312S33546   6.648   0.326  10.378
    1ECLIP C31333547   6.570   0.170  10.248
    1ECLIPH313R33548   6.668   0.122  10.224
    1ECLIPH313S33549   6.495   0.089  10.255
    1ECLIP C31433550   6.531   0.265  10.135
    1ECLIPH314R33551   6.608   0.344  10.122
    1ECLIPH314S33552   6.520   0.210  10.039
    1ECLIPH314T33553   6.434   0.314  10.158
    1ECLIP  C1133554   5.941   7.702  10.884
    1ECLIP  O1133555   5.953   7.823  10.869
    1ECLIP  C1233556   5.874   7.618  10.779
    1ECLIP H12R33557   5.766   7.643  10.784
    1ECLIP H12S33558   5.887   7.510  10.801
    1ECLIP  C1333559   5.926   7.651  10.638
    1ECLIP H13R33560   5.920   7.761  10.621
    1ECLIP  O1333561   5.841   7.586  10.546
    1ECLIP HO1333562   5.864   7.605  10.454
    1ECLIP  C1433563   6.070   7.603  10.609
    1ECLIP H14R33564   6.080   7.499  10.647
    1ECLIP H14S33565   6.140   7.666  10.667
    1ECLIP  C1533566   6.110   7.604  10.460
    1ECLIP H15R33567   6.051   7.525  10.409
    1ECLIP H15S33568   6.216   7.575  10.451
    1ECLIP  C1633569   6.089   7.738  10.387
    1ECLIP H16R33570   6.173   7.805  10.412
    1ECLIP H16S33571   5.997   7.790  10.422
    1ECLIP  C1733572   6.078   7.721  10.235
    1ECLIP H17R33573   6.154   7.648  10.201
    1ECLIP H17S33574   6.100   7.819  10.186
    1ECLIP  C1833575   5.939   7.674  10.190
    1ECLIP H18R33576   5.913   7.582  10.246
    1ECLIP H18S33577   5.863   7.751  10.216
    1ECLIP  C1933578   5.930   7.640  10.040
    1ECLIP H19R33579   5.833   7.591  10.020
    1ECLIP H19S33580   6.010   7.567  10.017
    1ECLIP C11033581   5.944   7.761   9.947
    1ECLIPH110R33582   5.855   7.826   9.959
    1ECLIPH110S33583   6.034   7.821   9.975
    1ECLIP C11133584   5.958   7.717   9.801
    1ECLIPH111R33585   6.056   7.667   9.787
    1ECLIPH111S33586   5.880   7.640   9.781
    1ECLIP C11233587   5.943   7.830   9.698
    1ECLIPH112R33588   5.842   7.875   9.709
    1ECLIPH112S33589   6.019   7.909   9.717
    1ECLIP C11333590   5.959   7.777   9.555
    1ECLIPH113R33591   6.062   7.735   9.543
    1ECLIPH113S33592   5.889   7.692   9.541
    1ECLIP C11433593   5.929   7.877   9.444
    1ECLIPH114R33594   5.823   7.909   9.450
    1ECLIPH114S33595   5.995   7.966   9.454
    1ECLIPH114T33596   5.946   7.831   9.344
    2AKDO    C133597   6.291   0.023  11.974
    2AKDO   O1133598   6.329   0.144  11.973
    2AKDO   O1233599   6.369   8.071  11.951
    2AKDO    C233600   6.146   8.132  12.015
    2AKDO    C633601   5.948   0.066  12.122
    2AKDO    H633602   5.894   0.024  12.035
    2AKDO    O633603   6.083   0.102  12.079
    2AKDO    C333604   6.147   8.012  12.112
    2AKDO   H3133605   6.219   8.025  12.195
    2AKDO   H3233606   6.182   7.924  12.054
    2AKDO    C433607   6.012   7.974  12.166
    2AKDO    H433608   5.946   7.937  12.085
    2AKDO    O433609   6.028   7.875  12.269
    2AKDO    C533610   5.949   8.097  12.232
    2AKDO    H533611   5.843   8.069  12.250
    2AKDO    O533612   6.009   8.134  12.360
    2AKDO    C733613   5.874   0.191  12.164
    2AKDO    H733614   5.924   0.233  12.253
    2AKDO    O733615   5.737   0.158  12.194
    2AKDO   HO733616   5.696   0.124  12.114
    2AKDO    C833617   5.873   0.302  12.060
    2AKDO   H8133618   5.971   0.310  12.007
    2AKDO   H8233619   5.796   0.285  11.981
    2AKDO    O833620   5.847   0.427  12.124
    2AKDO   HO833621   5.787   0.474  12.065
    3AKDO    C133622   5.990   7.676  12.120
    3AKDO   O1133623   6.058   7.657  12.016
    3AKDO   O1233624   5.885   7.613  12.154
    3AKDO    C233625   6.067   7.741  12.241
    3AKDO    C633626   6.292   7.771  12.326
    3AKDO    H633627   6.269   7.878  12.345
    3AKDO    O633628   6.209   7.725  12.218
    3AKDO    C333629   6.034   7.668  12.372
    3AKDO   H3133630   6.048   7.559  12.357
    3AKDO   H3233631   5.926   7.683  12.394
    3AKDO    C433632   6.116   7.715  12.488
    3AKDO    H433633   6.101   7.824  12.502
    3AKDO    O433634   6.076   7.650  12.607
    3AKDO   HO433635   5.999   7.694  12.643
    3AKDO    C533636   6.262   7.692  12.453
    3AKDO    H533637   6.325   7.730  12.537
    3AKDO    O533638   6.294   7.554  12.435
    3AKDO   HO533639   6.246   7.526  12.356
    3AKDO    C733640   6.436   7.762  12.277
    3AKDO    H733641   6.455   7.658  12.243
    3AKDO    O733642   6.527   7.793  12.384
    3AKDO   HO733643   6.566   7.707  12.404
    3AKDO    C833644   6.460   7.856  12.160
    3AKDO   H8133645   6.389   7.830  12.079
    3AKDO   H8233646   6.439   7.960  12.192
    3AKDO    O833647   6.594   7.850  12.106
    3AKDO   HO833648   6.611   7.756  12.097
    4AHEP    C133649   5.921   0.044  12.459
    4AHEP    H133650   5.879   0.138  12.418
    4AHEP    C533651   5.828   7.994  12.564
    4AHEP    H533652   5.908   7.937  12.511
    4AHEP    O533653   5.803   8.112  12.485
    4AHEP    C233654   5.981   0.087  12.595
    4AHEP    H233655   6.079   0.135  12.573
    4AHEP    O233656   5.902   0.188  12.660
    4AHEP   HO233657   5.810   0.161  12.651
    4AHEP    C333658   6.009   8.114  12.686
    4AHEP    H333659   6.087   8.050  12.639
    4AHEP    O333660   6.051   0.018  12.817
    4AHEP    C433661   5.880   8.037  12.701
    4AHEP    H433662   5.803   8.102  12.748
    4AHEP    O433663   5.910   7.921  12.779
    4AHEP    P433664   5.826   7.888  12.917
    4AHEP  OP4233665   5.921   7.796  12.994
    4AHEP  OP4333666   5.698   7.822  12.871
    4AHEP  OP4433667   5.802   8.021  12.986
    4AHEP    C633668   5.705   7.902  12.564
    4AHEP    H633669   5.738   7.801  12.598
    4AHEP    O633670   5.605   7.947  12.657
    4AHEP   HO633671   5.633   7.907  12.739
    4AHEP    C733672   5.643   7.886  12.425
    4AHEP   H7133673   5.569   7.803  12.427
    4AHEP   H7233674   5.722   7.857  12.353
    4AHEP    O733675   5.577   8.003  12.375
    4AHEP   HO733676   5.500   8.016  12.431
    5AHEP    C133677   6.160   8.094  12.876
    5AHEP    H133678   6.173   7.996  12.825
    5AHEP    C533679   6.282   0.150  12.936
    5AHEP    H533680   6.191   0.208  12.912
    5AHEP    O533681   6.281   0.027  12.860
    5AHEP    C233682   6.140   8.062  13.026
    5AHEP    H233683   6.039   8.018  13.037
    5AHEP    O233684   6.232   7.964  13.079
    5AHEP   HO233685   6.195   7.880  13.051
    5AHEP    C333686   6.141   0.041  13.112
    5AHEP    H333687   6.059   0.110  13.084
    5AHEP    O333688   6.128   8.141  13.251
    5AHEP    C433689   6.276   0.110  13.085
    5AHEP    H433690   6.357   0.035  13.085
    5AHEP    O433691   6.304   0.216  13.178
    5AHEP    P433692   6.452   0.227  13.252
    5AHEP  OP4233693   6.440   0.288  13.389
    5AHEP  OP4333694   6.553   0.297  13.166
    5AHEP  OP4433695   6.494   0.085  13.278
    5AHEP    C633696   6.403   0.238  12.899
    5AHEP    H633697   6.392   0.334  12.953
    5AHEP    O633698   6.525   0.174  12.940
    5AHEP   HO633699   6.544   0.222  13.021
    5AHEP    C733700   6.408   0.268  12.750
    5AHEP   H7133701   6.453   0.369  12.739
    5AHEP   H7233702   6.307   0.276  12.706
    5AHEP    O733703   6.495   0.176  12.681
    6AHEP    C133704   6.423   0.093  12.594
    6AHEP    H133705   6.315   0.093  12.617
    6AHEP    C533706   6.579   0.134  12.417
    6AHEP    H533707   6.638   0.202  12.483
    6AHEP    O533708   6.442   0.138  12.460
    6AHEP    C233709   6.473   8.095  12.609
    6AHEP    H233710   6.459   8.064  12.715
    6AHEP    O233711   6.397   8.006  12.528
    6AHEP   HO233712   6.450   7.929  12.506
    6AHEP    C333713   6.620   8.091  12.574
    6AHEP    H333714   6.672   0.021  12.640
    6AHEP    O333715   6.679   7.964  12.600
    6AHEP   HO333716   6.749   7.970  12.666
    6AHEP    C433717   6.636   8.137  12.430
    6AHEP    H433718   6.577   8.068  12.365
    6AHEP    O433719   6.771   8.133  12.385
    6AHEP   HO433720   6.788   8.042  12.360
    6AHEP    C633721   6.588   0.189  12.276
    6AHEP    H633722   6.696   0.196  12.249
    6AHEP    O633723   6.522   0.101  12.184
    6AHEP   HO633724   6.433   0.106  12.219
    6AHEP    C733725   6.529   0.328  12.263
    6AHEP   H7133726   6.568   0.380  12.172
    6AHEP   H7233727   6.559   0.387  12.352
    6AHEP    O733728   6.386   0.329  12.257
    6AHEP   HO733729   6.354   0.303  12.343
    7AGLC    C133730   5.994   8.128  13.299
    7AGLC    H133731   5.928   0.052  13.241
    7AGLC    C533732   5.991   7.893  13.365
    7AGLC    H533733   6.099   7.880  13.340
    7AGLC    O533734   5.936   7.997  13.282
    7AGLC    C233735   5.978   0.019  13.448
    7AGLC    H233736   5.869   0.022  13.470
    7AGLC    O233737   6.032   0.148  13.475
    7AGLC   HO233738   5.985   0.214  13.425
    7AGLC    C333739   6.042   8.058  13.539
    7AGLC    H333740   6.146   8.040  13.506
    7AGLC    O333741   6.042   8.093  13.681
    7AGLC    C433742   5.976   7.926  13.513
    7AGLC    H433743   5.868   7.934  13.538
    7AGLC    O433744   6.036   7.824  13.591
    7AGLC   HO433745   5.969   7.763  13.621
    7AGLC    C633746   5.920   7.763  13.331
    7AGLC   H6133747   5.932   7.741  13.222
    7AGLC   H6233748   5.965   7.678  13.386
    7AGLC    O633749   5.780   7.769  13.361
    7AGLC   HO633750   5.737   7.794  13.280
    8AGLC    C133751   6.171   8.111  13.737
    8AGLC    H133752   6.243   8.039  13.691
    8AGLC    C533753   6.137   0.203  13.776
    8AGLC    H533754   6.033   0.194  13.737
    8AGLC    O533755   6.220   0.100  13.716
    8AGLC    C233756   6.175   8.090  13.888
    8AGLC    H233757   6.280   8.106  13.919
    8AGLC    O233758   6.135   7.961  13.932
    8AGLC    C333759   6.086   0.045  13.960
    8AGLC    H333760   5.983   0.034  13.919
    8AGLC    O333761   6.079   0.010  14.101
    8AGLC    C433762   6.136   0.184  13.927
    8AGLC    H433763   6.241   0.196  13.961
    8AGLC    O433764   6.059   0.283  13.993
    8AGLC   HO433765   5.966   0.272  13.971
    8AGLC    C633766   6.192   0.337  13.732
    8AGLC   H6133767   6.193   0.340  13.621
    8AGLC   H6233768   6.124   0.419  13.765
    8AGLC    O633769   6.324   0.364  13.781
    8AGLC   HO633770   6.361   0.431  13.722
    9AGAL    C133771   6.203   7.847  13.888
    9AGAL    H133772   6.204   7.841  13.777
    9AGAL    C533773   6.345   7.845  14.080
    9AGAL    H533774   6.298   7.940  14.114
    9AGAL    O533775   6.338   7.842  13.937
    9AGAL    C233776   6.119   7.733  13.943
    9AGAL    H233777   6.159   7.636  13.908
    9AGAL    O233778   5.992   7.757  13.878
    9AGAL    C333779   6.122   7.738  14.095
    9AGAL    H333780   6.082   7.836  14.127
    9AGAL    O333781   6.040   7.640  14.157
    9AGAL   HO333782   5.950   7.659  14.130
    9AGAL    C433783   6.267   7.730  14.143
    9AGAL    H433784   6.267   7.743  14.253
    9AGAL    O433785   6.329   7.605  14.115
    9AGAL   HO433786   6.418   7.622  14.084
    9AGAL    C633787   6.491   7.852  14.123
    9AGAL   H6133788   6.537   7.945  14.083
    9AGAL   H6233789   6.497   7.855  14.234
    9AGAL    O633790   6.570   7.742  14.077
    9AGAL   HO633791   6.590   7.752  13.984
   10AGAL    C133792   5.874   7.692  13.917
   10AGAL    H133793   5.892   7.583  13.925
   10AGAL    C533794   5.802   7.887  14.037
   10AGAL    H533795   5.894   7.937  14.000
   10AGAL    O533796   5.826   7.744  14.043
   10AGAL    C233797   5.768   7.718  13.809
   10AGAL    H233798   5.676   7.663  13.838
   10AGAL    O233799   5.811   7.668  13.682
   10AGAL   HO233800   5.737   7.663  13.621
   10AGAL    C333801   5.736   7.867  13.800
   10AGAL    H333802   5.829   7.922  13.772
   10AGAL    O333803   5.636   7.895  13.702
   10AGAL   HO333804   5.674   7.900  13.614
   10AGAL    C433805   5.691   7.918  13.936
   10AGAL    H433806   5.679   8.028  13.930
   10AGAL    O433807   5.566   7.862  13.975
   10AGAL   HO433808   5.507   7.873  13.899
   10AGAL    C633809   5.779   7.944  14.176
   10AGAL   H6133810   5.868   7.925  14.239
   10AGAL   H6233811   5.765   8.054  14.169
   10AGAL    O633812   5.665   7.888  14.241
   10AGAL   HO633813   5.599   7.873  14.173
   11BGLC    C133814   6.175   0.066  14.188
   11BGLC    H133815   6.148   0.172  14.205
   11BGLC    C533816   6.405   0.118  14.217
   11BGLC    H533817   6.375   0.223  14.235
   11BGLC    O533818   6.307   0.055  14.134
   11BGLC    C233819   6.170   8.135  14.321
   11BGLC    H233820   6.194   8.028  14.302
   11BGLC    O233821   6.039   8.140  14.379
   11BGLC   HO233822   5.976   8.139  14.307
   11BGLC    C333823   6.273   0.049  14.416
   11BGLC    H333824   6.247   0.154  14.440
   11BGLC    O333825   6.284   8.114  14.537
   11BGLC    C433826   6.409   0.043  14.350
   11BGLC    H433827   6.436   8.082  14.331
   11BGLC    O433828   6.508   0.101  14.435
   11BGLC   HO433829   6.511   0.048  14.515
   11BGLC    C633830   6.536   0.119  14.139
   11BGLC   H6133831   6.621   0.136  14.208
   11BGLC   H6233832   6.553   0.020  14.091
   11BGLC    O633833   6.538   0.222  14.040
   11BGLC   HO633834   6.463   0.214  13.981
   12BGLCN   C133835   6.224   0.025  14.652
   12BGLCN   H133836   6.115   0.040  14.634
   12BGLCN   C533837   6.230   0.213  14.798
   12BGLCN   H533838   6.122   0.232  14.780
   12BGLCN   O533839   6.288   0.148  14.684
   12BGLCN   C233840   6.246   8.072  14.768
   12BGLCN   H233841   6.355   8.060  14.782
   12BGLCN    N33842   6.186   7.943  14.733
   12BGLCN   HN33843   6.089   7.944  14.712
   12BGLCN    C33844   6.252   7.827  14.721
   12BGLCN    O33845   6.370   7.811  14.749
   12BGLCN   CT33846   6.170   7.710  14.672
   12BGLCN  HT133847   6.174   7.627  14.745
   12BGLCN  HT233848   6.211   7.674  14.575
   12BGLCN  HT333849   6.064   7.740  14.657
   12BGLCN   C333850   6.187   8.131  14.896
   12BGLCN   H333851   6.076   8.135  14.889
   12BGLCN   O333852   6.230   8.048  15.007
   12BGLCN   C433853   6.248   0.124  14.919
   12BGLCN   H433854   6.356   0.112  14.939
   12BGLCN   O433855   6.184   0.187  15.030
   12BGLCN  HO433856   6.181   0.282  15.020
   12BGLCN   C633857   6.303   0.346  14.813
   12BGLCN  H6133858   6.256   0.410  14.891
   12BGLCN  H6233859   6.408   0.328  14.846
   12BGLCN   O633860   6.309   0.421  14.691
   12BGLCN  HO633861   6.228   0.407  14.642
   13AGAL    C133862   6.144   8.033  15.119
   13AGAL    H133863   6.098   8.129  15.149
   13AGAL    C533864   6.090   7.809  15.053
   13AGAL    H533865   6.158   7.822  14.966
   13AGAL    O533866   6.040   7.938  15.090
   13AGAL    C233867   6.221   7.974  15.239
   13AGAL    H233868   6.141   7.948  15.312
   13AGAL    O233869   6.310   8.066  15.307
   13AGAL    C333870   6.285   7.842  15.199
   13AGAL    H333871   6.349   7.859  15.110
   13AGAL    O333872   6.370   7.787  15.300
   13AGAL   HO333873   6.313   7.732  15.354
   13AGAL    C433874   6.174   7.745  15.163
   13AGAL    H433875   6.219   7.652  15.123
   13AGAL    O433876   6.097   7.709  15.278
   13AGAL   HO433877   6.008   7.697  15.244
   13AGAL    C633878   5.973   7.725  15.004
   13AGAL   H6133879   5.916   7.783  14.929
   13AGAL   H6233880   6.011   7.633  14.953
   13AGAL    O633881   5.885   7.685  15.109
   13AGAL   HO633882   5.795   7.678  15.076
   14ARHM    C133883   6.272   8.102  15.439
   14ARHM    H133884   6.161   8.107  15.444
   14ARHM    C533885   6.457   0.102  15.480
   14ARHM    H533886   6.504   0.074  15.384
   14ARHM    O533887   6.315   0.091  15.471
   14ARHM    C233888   6.322   8.002  15.544
   14ARHM    H233889   6.290   7.900  15.512
   14ARHM    O233890   6.275   8.021  15.679
   14ARHM    C333891   6.473   8.008  15.551
   14ARHM    H333892   6.514   7.982  15.451
   14ARHM    O333893   6.527   7.916  15.647
   14ARHM   HO333894   6.498   7.827  15.626
   14ARHM    C433895   6.513   0.007  15.584
   14ARHM    H433896   6.466   0.033  15.682
   14ARHM    O433897   6.653   0.029  15.598
   14ARHM   HO433898   6.664   0.087  15.674
   14ARHM    C633899   6.487   0.249  15.509
   14ARHM   H6133900   6.452   0.312  15.425
   14ARHM   H6233901   6.435   0.282  15.602
   14ARHM   H6333902   6.596   0.265  15.521
   15ARHM    C133903   6.138   8.039  15.704
   15ARHM    H133904   6.077   7.978  15.634
   15ARHM    C533905   6.179   0.117  15.782
   15ARHM    H533906   6.287   0.107  15.757
   15ARHM    O533907   6.101   0.034  15.694
   15ARHM    C233908   6.112   7.995  15.847
   15ARHM    H233909   6.136   7.887  15.856
   15ARHM    O233910   5.972   8.015  15.874
   15ARHM    C333911   6.199   8.074  15.942
   15ARHM    H333912   6.305   8.062  15.910
   15ARHM    O333913   6.187   8.020  16.074
   15ARHM    C433914   6.161   0.076  15.929
   15ARHM    H433915   6.054   0.088  15.956
   15ARHM    O433916   6.236   0.160  16.017
   15ARHM   HO433917   6.177   0.224  16.057
   15ARHM    C633918   6.140   0.261  15.748
   15ARHM   H6133919   6.190   0.333  15.816
   15ARHM   H6233920   6.170   0.284  15.643
   15ARHM   H6333921   6.030   0.275  15.755
   16BMANN   C133922   5.921   7.975  15.999
   16BMANN   H133923   5.950   8.050  16.077
   16BMANN   C533924   5.910   7.808  16.168
   16BMANN   H533925   5.941   7.885  16.242
   16BMANN   O533926   5.964   7.844  16.039
   16BMANN   C233927   5.771   7.977  15.983
   16BMANN   H233928   5.742   8.084  15.968
   16BMANN    N33929   5.729   7.900  15.865
   16BMANN   HN33930   5.760   7.806  15.860
   16BMANN    C33931   5.663   7.954  15.761
   16BMANN    O33932   5.622   8.069  15.762
   16BMANN   CT33933   5.642   7.865  15.641
   16BMANN  HT133934   5.534   7.845  15.628
   16BMANN  HT233935   5.697   7.769  15.654
   16BMANN  HT333936   5.680   7.917  15.551
   16BMANN   C333937   5.707   7.938  16.114
   16BMANN   H333938   5.737   8.013  16.191
   16BMANN   O333939   5.565   7.942  16.104
   16BMANN  HO333940   5.534   8.028  16.135
   16BMANN   C433941   5.758   7.803  16.159
   16BMANN   H433942   5.730   7.726  16.084
   16BMANN   O433943   5.704   7.764  16.285
   16BMANN  HO433944   5.616   7.730  16.267
   16BMANN   C633945   5.968   7.675  16.213
   16BMANN  H6133946   5.938   7.656  16.319
   16BMANN  H6233947   5.926   7.594  16.151
   16BMANN   O633948   6.111   7.672  16.206
   16BMANN  HO633949   6.135   7.695  16.116
   17BGLCN   C133950   6.305   8.022  16.150
   17BGLCN   H133951   6.360   8.116  16.132
   17BGLCN   C533952   6.510   7.914  16.204
   17BGLCN   H533953   6.565   8.008  16.180
   17BGLCN   O533954   6.390   7.909  16.125
   17BGLCN   C233955   6.259   8.016  16.295
   17BGLCN   H233956   6.217   7.915  16.312
   17BGLCN    N33957   6.151   8.111  16.318
   17BGLCN   HN33958   6.140   0.037  16.247
   17BGLCN    C33959   6.061   8.107  16.417
   17BGLCN    O33960   6.056   8.020  16.503
   17BGLCN   CT33961   5.962   0.075  16.418
   17BGLCN  HT133962   5.874   0.049  16.355
   17BGLCN  HT233963   6.009   0.169  16.380
   17BGLCN  HT333964   5.927   0.094  16.522
   17BGLCN   C333965   6.384   8.031  16.383
   17BGLCN   H333966   6.436   8.122  16.347
   17BGLCN   O333967   6.351   8.047  16.522
   17BGLCN   C433968   6.476   7.914  16.353
   17BGLCN   H433969   6.423   7.819  16.377
   17BGLCN   O433970   6.596   7.919  16.429
   17BGLCN  HO433971   6.588   7.859  16.504
   17BGLCN   C633972   6.598   7.797  16.162
   17BGLCN  H6133973   6.690   7.795  16.223
   17BGLCN  H6233974   6.544   7.701  16.179
   17BGLCN   O633975   6.636   7.806  16.025
   17BGLCN  HO633976   6.560   7.783  15.970
   18AGAL    C133977   6.437   8.129  16.599
   18AGAL    H133978   6.533   8.075  16.618
   18AGAL    C533979   6.351   0.189  16.509
   18AGAL    H533980   6.276   0.121  16.463
   18AGAL    O533981   6.469   0.109  16.533
   18AGAL    C233982   6.377   0.020  16.735
   18AGAL    H233983   6.454   0.085  16.782
   18AGAL    O233984   6.358   8.050  16.823
   18AGAL    C333985   6.251   0.103  16.716
   18AGAL    H333986   6.182   0.043  16.653
   18AGAL    O333987   6.181   0.129  16.838
   18AGAL   HO333988   6.101   0.076  16.839
   18AGAL    C433989   6.286   0.231  16.641
   18AGAL    H433990   6.191   0.285  16.618
   18AGAL    O433991   6.370   0.318  16.718
   18AGAL   HO433992   6.334   0.407  16.712
   18AGAL    C633993   6.375   0.291  16.400
   18AGAL   H6133994   6.464   0.262  16.340
   18AGAL   H6233995   6.289   0.290  16.329
   18AGAL    O633996   6.391   0.425  16.446
   18AGAL   HO633997   6.475   0.430  16.492
   19ARHM    C133998   6.396   8.080  16.956
   19ARHM    H133999   6.373   0.043  16.978
   19ARHM    C534000   6.576   7.924  16.965
   19ARHM    H534001   6.546   7.885  16.865
   19ARHM    O534002   6.537   8.062  16.976
   19ARHM    C234003   6.320   7.998  17.058
   19ARHM    H234004   6.214   7.999  17.027
   19ARHM    O234005   6.331   8.054  17.191
   19ARHM    C334006   6.358   7.853  17.054
   19ARHM    H334007   6.334   7.812  16.953
   19ARHM    O334008   6.288   7.776  17.152
   19ARHM   HO334009   6.202   7.748  17.119
   19ARHM    C434010   6.508   7.842  17.074
   19ARHM    H434011   6.534   7.886  17.173
   19ARHM    O434012   6.549   7.706  17.072
   19ARHM   HO434013   6.482   7.659  17.123
   19ARHM    C634014   6.730   7.925  16.971
   19ARHM   H6134015   6.771   7.991  16.892
   19ARHM   H6234016   6.765   7.962  17.070
   19ARHM   H6334017   6.770   7.823  16.955
   20ARHM    C134018   6.238   0.011  17.220
   20ARHM    H134019   6.159   0.016  17.141
   20ARHM    C534020   6.392   0.157  17.330
   20ARHM    H534021   6.473   0.081  17.317
   20ARHM    O534022   6.297   0.142  17.224
   20ARHM    C234023   6.171   8.125  17.352
   20ARHM    H234024   6.132   8.021  17.350
   20ARHM    O234025   6.063   0.072  17.378
   20ARHM    C334026   6.269   8.136  17.467
   20ARHM    H334027   6.350   8.062  17.450
   20ARHM    O334028   6.203   8.109  17.591
   20ARHM    C434029   6.325   0.133  17.465
   20ARHM    H434030   6.241   0.205  17.475
   20ARHM    O434031   6.418   0.157  17.570
   20ARHM   HO434032   6.476   0.228  17.542
   20ARHM    C634033   6.453   0.297  17.316
   20ARHM   H6134034   6.376   0.376  17.331
   20ARHM   H6234035   6.536   0.314  17.389
   20ARHM   H6334036   6.496   0.311  17.214
   21BMANN   C134037   5.946   0.049  17.303
   21BMANN   H134038   5.956   8.102  17.241
   21BMANN   C534039   5.796   0.143  17.142
   21BMANN   H534040   5.812   0.055  17.076
   21BMANN   O534041   5.916   0.163  17.220
   21BMANN   C234042   5.834   0.033  17.401
   21BMANN   H234043   5.858   8.091  17.467
   21BMANN    N34044   5.821   0.154  17.481
   21BMANN   HN34045   5.833   0.239  17.431
   21BMANN    C34046   5.793   0.163  17.610
   21BMANN    O34047   5.784   0.067  17.687
   21BMANN   CT34048   5.770   0.303  17.659
   21BMANN  HT134049   5.662   0.317  17.681
   21BMANN  HT234050   5.798   0.377  17.580
   21BMANN  HT334051   5.830   0.322  17.750
   21BMANN   C334052   5.708   0.001  17.324
   21BMANN   H334053   5.725   8.055  17.261
   21BMANN   O334054   5.600   8.113  17.412
   21BMANN  HO334055   5.565   0.051  17.447
   21BMANN   C434056   5.677   0.117  17.232
   21BMANN   H434057   5.655   0.209  17.292
   21BMANN   O434058   5.564   0.091  17.150
   21BMANN  HO434059   5.487   0.071  17.205
   21BMANN   C634060   5.770   0.264  17.052
   21BMANN  H6134061   5.724   0.229  16.957
   21BMANN  H6234062   5.697   0.330  17.102
   21BMANN   O634063   5.885   0.343  17.022
   21BMANN  HO634064   5.855   0.421  16.974
   22BGLCN   C134065   6.264   8.017  17.679
   22BGLCN   H134066   6.374   8.020  17.670
   22BGLCN   C534067   6.254   7.792  17.756
   22BGLCN   H534068   6.364   7.794  17.762
   22BGLCN   O534069   6.210   7.886  17.657
   22BGLCN   C234070   6.219   8.066  17.815
   22BGLCN   H234071   6.108   8.065  17.814
   22BGLCN    N34072   6.267   0.058  17.839
   22BGLCN   HN34073   6.365   0.072  17.829
   22BGLCN    C34074   6.187   0.161  17.863
   22BGLCN    O34075   6.065   0.150  17.873
   22BGLCN   CT34076   6.252   0.295  17.879
   22BGLCN  HT134077   6.188   0.372  17.830
   22BGLCN  HT234078   6.352   0.296  17.831
   22BGLCN  HT334079   6.261   0.321  17.986
   22BGLCN   C334080   6.262   7.970  17.925
   22BGLCN   H334081   6.373   7.961  17.923
   22BGLCN   O334082   6.224   8.029  18.050
   22BGLCN   C434083   6.201   7.835  17.893
   22BGLCN   H434084   6.091   7.846  17.888
   22BGLCN   O434085   6.230   7.736  17.991
   22BGLCN  HO434086   6.154   7.678  18.000
   22BGLCN   C634087   6.211   7.653  17.712
   22BGLCN  H6134088   6.216   7.581  17.797
   22BGLCN  H6234089   6.107   7.654  17.675
   22BGLCN   O634090   6.299   7.603  17.610
   22BGLCN  HO634091   6.269   7.634  17.524
   23AGAL    C134092   6.277   7.977  18.171
   23AGAL    H134093   6.243   7.873  18.188
   23AGAL    C534094   6.473   8.115  18.160
   23AGAL    H534095   6.437   0.007  18.062
   23AGAL    O534096   6.421   7.982  18.179
   23AGAL    C234097   6.221   8.064  18.280
   23AGAL    H234098   6.261   8.028  18.377
   23AGAL    O234099   6.077   8.054  18.281
   23AGAL    C334100   6.268   0.063  18.261
   23AGAL    H334101   6.236   0.101  18.161
   23AGAL    O334102   6.211   0.148  18.359
   23AGAL   HO334103   6.282   0.175  18.417
   23AGAL    C434104   6.420   0.067  18.266
   23AGAL    H434105   6.452   0.170  18.239
   23AGAL    O434106   6.470   0.040  18.396
   23AGAL   HO434107   6.563   0.023  18.384
   23AGAL    C634108   6.626   8.102  18.148
   23AGAL   H6134109   6.651   8.004  18.103
   23AGAL   H6234110   6.663   0.036  18.078
   23AGAL    O634111   6.701   8.117  18.269
   23AGAL   HO634112   6.787   0.008  18.246
   24ARHM    C134113   6.019   7.973  18.381
   24ARHM    H134114   6.084   7.885  18.396
   24ARHM    C534115   5.792   8.023  18.324
   24ARHM    H534116   5.823   8.089  18.240
   24ARHM    O534117   5.891   7.920  18.343
   24ARHM    C234118   6.009   8.053  18.508
   24ARHM    H234119   6.107   8.099  18.532
   24ARHM    O234120   5.968   7.968  18.616
   24ARHM    C334121   5.910   0.021  18.489
   24ARHM    H334122   5.945   0.086  18.405
   24ARHM    O334123   5.905   0.104  18.605
   24ARHM   HO334124   5.851   0.061  18.672
   24ARHM    C434125   5.775   8.107  18.450
   24ARHM    H434126   5.740   8.041  18.532
   24ARHM    O434127   5.677   0.066  18.430
   24ARHM   HO434128   5.590   0.027  18.430
   24ARHM    C634129   5.664   7.951  18.281
   24ARHM   H6134130   5.584   8.024  18.254
   24ARHM   H6234131   5.683   7.888  18.192
   24ARHM   H6334132   5.625   7.886  18.362
   25ARHM    C134133   6.073   7.895  18.673
   25ARHM    H134134   6.161   7.898  18.605
   25ARHM    C534135   5.940   7.734  18.786
   25ARHM    H534136   5.848   7.787  18.752
   25ARHM    O534137   6.044   7.756  18.690
   25ARHM    C234138   6.112   7.961  18.803
   25ARHM    H234139   6.119   8.071  18.787
   25ARHM    O234140   6.238   7.912  18.851
   25ARHM    C334141   6.004   7.939  18.905
   25ARHM    H334142   5.911   7.986  18.867
   25ARHM    O334143   6.044   8.004  19.025
   25ARHM    C434144   5.982   7.791  18.922
   25ARHM    H434145   6.077   7.743  18.953
   25ARHM    O434146   5.885   7.764  19.023
   25ARHM   HO434147   5.856   7.673  19.017
   25ARHM    C634148   5.910   7.583  18.787
   25ARHM   H6134149   5.879   7.552  18.685
   25ARHM   H6234150   6.000   7.526  18.816
   25ARHM   H6334151   5.827   7.559  18.857
   26BMANN   C134152   6.348   7.966  18.783
   26BMANN   H134153   6.322   8.062  18.734
   26BMANN   C534154   6.513   7.929  18.617
   26BMANN   H534155   6.478   8.025  18.573
   26BMANN   O534156   6.400   7.874  18.687
   26BMANN   C234157   6.455   7.991  18.887
   26BMANN   H234158   6.411   8.065  18.958
   26BMANN    N34159   6.487   7.870  18.962
   26BMANN   HN34160   6.487   7.785  18.910
   26BMANN    C34161   6.512   7.865  19.093
   26BMANN    O34162   6.515   7.965  19.165
   26BMANN   CT34163   6.536   7.728  19.150
   26BMANN  HT134164   6.487   7.651  19.085
   26BMANN  HT234165   6.493   7.722  19.252
   26BMANN  HT334166   6.645   7.708  19.153
   26BMANN   C334167   6.573   8.056  18.818
   26BMANN   H334168   6.539   0.005  18.767
   26BMANN   O334169   6.673   8.095  18.912
   26BMANN  HO334170   6.645   0.028  18.962
   26BMANN   C434171   6.627   7.962  18.712
   26BMANN   H434172   6.663   7.868  18.760
   26BMANN   O434173   6.736   8.020  18.641
   26BMANN  HO434174   6.799   8.052  18.706
   26BMANN   C634175   6.549   7.838  18.501
   26BMANN  H6134176   6.457   7.804  18.449
   26BMANN  H6234177   6.609   7.896  18.427
   26BMANN   O634178   6.626   7.724  18.542
   26BMANN  HO634179   6.713   7.733  18.502
   27BGLCN   C134180   5.939   8.065  19.095
   27BGLCN   H134181   5.843   8.011  19.080
   27BGLCN   C534182   5.827   0.128  19.132
   27BGLCN   H534183   5.731   0.074  19.122
   27BGLCN   O534184   5.928   0.058  19.056
   27BGLCN   C234185   5.984   8.058  19.239
   27BGLCN   H234186   6.080   8.114  19.246
   27BGLCN    N34187   6.010   7.919  19.274
   27BGLCN   HN34188   5.961   7.851  19.221
   27BGLCN    C34189   6.109   7.880  19.356
   27BGLCN    O34190   6.178   7.959  19.418
   27BGLCN   CT34191   6.133   7.732  19.367
   27BGLCN  HT134192   6.061   7.675  19.303
   27BGLCN  HT234193   6.121   7.701   0.000
   27BGLCN  HT334194   6.237   7.710  19.334
   27BGLCN   C334195   5.883   8.129  19.328
   27BGLCN   H334196   5.785   8.077  19.318
   27BGLCN   O334197   5.931   8.117  19.463
   27BGLCN   C434198   5.869   0.128  19.278
   27BGLCN   H434199   5.969   0.176  19.284
   27BGLCN   O434200   5.781   0.206  19.358
   27BGLCN  HO434201   5.690   0.184  19.336
   27BGLCN   C634202   5.809   0.265  19.071
   27BGLCN  H6134203   5.734   0.324  19.128
   27BGLCN  H6234204   5.906   0.321  19.076
   27BGLCN   O634205   5.766   0.258  18.934
   27BGLCN  HO634206   5.799   0.333  18.885
   28AGAL    C134207   5.840   8.134   0.096
   28AGAL    H134208   5.818   0.098   0.109
   28AGAL    C534209   5.728   7.922   0.072
   28AGAL    H534210   5.794   7.895  19.460
   28AGAL    O534211   5.714   8.065   0.076
   28AGAL    C234212   5.901   8.083   0.226
   28AGAL    H234213   5.819   8.099   0.300
   28AGAL    O234214   6.017   0.013   0.271
   28AGAL    C334215   5.927   7.934   0.216
   28AGAL    H334216   5.988   7.915   0.126
   28AGAL    O334217   6.001   7.883   0.327
   28AGAL   HO334218   5.981   7.790   0.340
   28AGAL    C434219   5.792   7.865   0.199
   28AGAL    H434220   5.810   7.756   0.181
   28AGAL    O434221   5.711   7.876   0.315
   28AGAL   HO434222   5.749   7.824   0.386
   28AGAL    C634223   5.591   7.863   0.039
   28AGAL   H6134224   5.564   7.890  19.407
   28AGAL   H6234225   5.594   7.752   0.045
   28AGAL    O634226   5.487   7.911   0.125
   28AGAL   HO634227   5.498   8.006   0.131
   29ARHM    C134228   6.009   0.040   0.410
   29ARHM    H134229   5.945   8.107   0.459
   29ARHM    C534230   6.033   0.276   0.379
   29ARHM    H534231   6.048   0.257   0.270
   29ARHM    O534232   5.952   0.171   0.434
   29ARHM    C234233   6.144   0.033   0.478
   29ARHM    H234234   6.189   8.079   0.453
   29ARHM    O234235   6.128   0.046   0.621
   29ARHM    C334236   6.235   0.142   0.426
   29ARHM    H334237   6.250   0.127   0.317
   29ARHM    O334238   6.364   0.136   0.488
   29ARHM   HO334239   6.416   0.205   0.449
   29ARHM    C434240   6.168   0.276   0.448
   29ARHM    H434241   6.150   0.289   0.557
   29ARHM    O434242   6.249   0.386   0.406
   29ARHM   HO434243   6.260   0.385   0.311
   29ARHM    C634244   5.956   0.409   0.390
   29ARHM   H6134245   5.858   0.400   0.337
   29ARHM   H6234246   5.937   0.435   0.496
   29ARHM   H6334247   6.013   0.491   0.343
   30ARHM    C134248   6.131   8.069   0.692
   30ARHM    H134249   6.219   8.008   0.660
   30ARHM    C534250   5.892   8.057   0.715
   30ARHM    H534251   5.879   0.006   0.657
   30ARHM    O534252   6.012   7.990   0.672
   30ARHM    C234253   6.144   8.103   0.839
   30ARHM    H234254   6.233   0.025   0.852
   30ARHM    O234255   6.160   7.983   0.915
   30ARHM    C334256   6.021   0.033   0.888
   30ARHM    H334257   6.012   0.124   0.825
   30ARHM    O334258   6.041   0.079   1.023
   30ARHM    C434259   5.899   8.092   0.863
   30ARHM    H434260   5.904   7.997   0.921
   30ARHM    O434261   5.780   0.017   0.900
   30ARHM   HO434262   5.769   0.094   0.844
   30ARHM    C634263   5.776   7.962   0.679
   30ARHM   H6134264   5.678   8.007   0.706
   30ARHM   H6234265   5.777   7.942   0.570
   30ARHM   H6334266   5.787   7.866   0.733
   31BMANN   C134267   6.291   7.945   0.946
   31BMANN   H134268   6.355   8.034   0.966
   31BMANN   C534269   6.482   7.820   0.878
   31BMANN   H534270   6.544   7.909   0.900
   31BMANN   O534271   6.349   7.864   0.843
   31BMANN   C234272   6.276   7.860   1.069
   31BMANN   H234273   6.239   7.928   1.149
   31BMANN    N34274   6.177   7.754   1.053
   31BMANN   HN34275   6.161   7.721   0.960
   31BMANN    C34276   6.104   7.704   1.153
   31BMANN    O34277   6.125   7.739   1.269
   31BMANN   CT34278   5.996   7.607   1.117
   31BMANN  HT134279   6.036   7.528   1.050
   31BMANN  HT234280   5.913   7.660   1.065
   31BMANN  HT334281   5.957   7.559   1.209
   31BMANN   C334282   6.413   7.814   1.114
   31BMANN   H334283   6.477   7.904   1.130
   31BMANN   O334284   6.405   7.747   1.240
   31BMANN  HO334285   6.312   7.728   1.255
   31BMANN   C434286   6.478   7.733   1.003
   31BMANN   H434287   6.419   7.641   0.983
   31BMANN   O434288   6.611   7.697   1.038
   31BMANN  HO434289   6.611   7.612   1.084
   31BMANN   C634290   6.542   7.752   0.756
   31BMANN  H6134291   6.639   7.707   0.782
   31BMANN  H6234292   6.474   7.671   0.722
   31BMANN   O634293   6.562   7.846   0.649
   31BMANN  HO634294   6.590   7.797   0.571
   32BGLCN   C134295   6.011   8.134   1.128
   32BGLCN   H134296   6.042   8.030   1.105
   32BGLCN   C534297   5.835   8.048   1.266
   32BGLCN   H534298   5.867   7.944   1.242
   32BGLCN   O534299   5.871   8.137   1.159
   32BGLCN   C234300   6.084   0.041   1.251
   32BGLCN   H234301   6.036   0.138   1.277
   32BGLCN    N34302   6.226   0.066   1.227
   32BGLCN   HN34303   6.277   8.138   1.180
   32BGLCN    C34304   6.287   0.179   1.261
   32BGLCN    O34305   6.230   0.272   1.316
   32BGLCN   CT34306   6.433   0.190   1.227
   32BGLCN  HT134307   6.463   0.114   1.152
   32BGLCN  HT234308   6.494   0.179   1.319
   32BGLCN  HT334309   6.451   0.291   1.185
   32BGLCN   C334310   6.057   8.089   1.366
   32BGLCN   H334311   6.082   7.988   1.328
   32BGLCN   O334312   6.136   8.114   1.485
   32BGLCN   C434313   5.908   8.095   1.391
   32BGLCN   H434314   5.879   0.056   1.410
   32BGLCN   O434315   5.868   8.020   1.505
   32BGLCN  HO434316   5.856   8.083   1.576
   32BGLCN   C634317   5.685   8.052   1.276
   32BGLCN  H6134318   5.650   7.991   1.362
   32BGLCN  H6234319   5.650   0.012   1.293
   32BGLCN   O634320   5.624   8.002   1.156
   32BGLCN  HO634321   5.661   8.048   1.081
   33AGAL    C134322   6.193   7.995   1.535
   33AGAL    H134323   6.123   7.910   1.520
   33AGAL    C534324   6.417   8.066   1.490
   33AGAL    H534325   6.375   0.022   1.467
   33AGAL    O534326   6.316   7.967   1.464
   33AGAL    C234327   6.224   8.000   1.684
   33AGAL    H234328   6.261   7.899   1.713
   33AGAL    O234329   6.103   8.027   1.756
   33AGAL    C334330   6.331   8.102   1.716
   33AGAL    H334331   6.294   0.058   1.686
   33AGAL    O334332   6.362   8.108   1.855
   33AGAL   HO334333   6.406   8.026   1.878
   33AGAL    C434334   6.456   8.069   1.637
   33AGAL    H434335   6.531   0.006   1.653
   33AGAL    O434336   6.515   7.946   1.677
   33AGAL   HO434337   6.550   7.905   1.597
   33AGAL    C634338   6.536   8.046   1.397
   33AGAL   H6134339   6.503   8.062   1.292
   33AGAL   H6234340   6.614   8.121   1.420
   33AGAL    O634341   6.594   7.915   1.406
   33AGAL   HO634342   6.536   7.853   1.362
   34ARHM    C134343   6.087   7.961   1.879
   34ARHM    H134344   6.182   7.963   1.937
   34ARHM    C534345   5.926   7.809   1.791
   34ARHM    H534346   5.938   7.850   1.688
   34ARHM    O534347   6.048   7.824   1.863
   34ARHM    C234348   5.980   8.038   1.953
   34ARHM    H234349   6.012   0.001   1.954
   34ARHM    O234350   5.956   7.998   2.089
   34ARHM    C334351   5.850   8.029   1.876
   34ARHM    H334352   5.865   8.070   1.774
   34ARHM    O334353   5.744   8.104   1.936
   34ARHM   HO334354   5.664   8.063   1.901
   34ARHM    C434355   5.813   7.883   1.861
   34ARHM    H434356   5.801   7.839   1.963
   34ARHM    O434357   5.689   7.866   1.792
   34ARHM   HO434358   5.634   7.808   1.845
   34ARHM    C634359   5.902   7.657   1.778
   34ARHM   H6134360   5.892   7.611   1.878
   34ARHM   H6234361   5.810   7.637   1.719
   34ARHM   H6334362   5.988   7.610   1.726
   35ARHM    C134363   6.065   8.012   2.176
   35ARHM    H134364   6.122   8.105   2.153
   35ARHM    C534365   6.085   7.775   2.197
   35ARHM    H534366   5.999   7.762   2.127
   35ARHM    O534367   6.153   7.899   2.169
   35ARHM    C234368   6.009   8.022   2.316
   35ARHM    H234369   5.934   8.104   2.317
   35ARHM    O234370   6.110   8.048   2.416
   35ARHM    C334371   5.937   7.895   2.354
   35ARHM    H334372   5.851   7.880   2.285
   35ARHM    O334373   5.885   7.904   2.487
   35ARHM   HO334374   5.952   7.943   2.543
   35ARHM    C434375   6.032   7.778   2.340
   35ARHM    H434376   6.119   7.794   2.407
   35ARHM    O434377   5.971   7.653   2.375
   35ARHM   HO434378   5.879   7.668   2.397
   35ARHM    C634379   6.185   7.662   2.168
   35ARHM   H6134380   6.218   7.668   2.063
   35ARHM   H6234381   6.273   7.672   2.236
   35ARHM   H6334382   6.137   7.563   2.185
   36BMANN   C134383   6.143   0.039   2.436
   36BMANN   H134384   6.059   0.107   2.409
   36BMANN   C534385   6.302   0.210   2.390
   36BMANN   H534386   6.217   0.276   2.364
   36BMANN   O534387   6.263   0.074   2.365
   36BMANN   C234388   6.170   0.049   2.586
   36BMANN   H234389   6.070   0.034   2.633
   36BMANN    N34390   6.259   8.089   2.636
   36BMANN   HN34391   6.339   8.067   2.580
   36BMANN    C34392   6.240   8.025   2.752
   36BMANN    O34393   6.146   8.051   2.826
   36BMANN   CT34394   6.339   7.919   2.791
   36BMANN  HT134395   6.429   7.922   2.725
   36BMANN  HT234396   6.290   7.820   2.784
   36BMANN  HT334397   6.371   7.935   2.896
   36BMANN   C334398   6.211   0.192   2.619
   36BMANN   H334399   6.129   0.260   2.591
   36BMANN   O334400   6.233   0.208   2.759
   36BMANN  HO334401   6.150   0.190   2.804
   36BMANN   C434402   6.333   0.230   2.537
   36BMANN   H434403   6.418   0.164   2.566
   36BMANN   O434404   6.374   0.364   2.559
   36BMANN  HO434405   6.464   0.373   2.529
   36BMANN   C634406   6.416   0.247   2.297
   36BMANN  H6134407   6.395   0.209   2.195
   36BMANN  H6234408   6.423   0.358   2.290
   36BMANN   O634409   6.543   0.199   2.342
   36BMANN  HO634410   6.536   0.110   2.375
    1ECLIP HB6S34411   0.835   6.803  11.863
    1ECLIP  OB634412   0.692   6.681  11.952
    1ECLIP  CB634413   0.801   6.697  11.860
    1ECLIP HB6R34414   0.893   6.645  11.891
    1ECLIP  CB534415   0.766   6.644  11.720
    1ECLIP  OB534416   0.631   6.599  11.691
    1ECLIP  HB534417   0.829   6.553  11.713
    1ECLIP  CB134418   0.628   6.521  11.568
    1ECLIP  HB134419   0.686   6.427  11.581
    1ECLIP  OA634420   0.495   6.488  11.534
    1ECLIP  CA634421   0.400   6.595  11.548
    1ECLIP HA6R34422   0.446   6.692  11.575
    1ECLIP HA6S34423   0.329   6.567  11.629
    1ECLIP  CB434424   0.803   6.732  11.601
    1ECLIP  HB434425   0.702   6.772  11.576
    1ECLIP  OB434426   0.888   6.844  11.629
    1ECLIP   PB34427   0.799   6.985  11.645
    1ECLIP OPB434428   0.895   7.088  11.700
    1ECLIP OPB334429   0.689   6.941  11.744
    1ECLIP OPB234430   0.736   7.003  11.505
    1ECLIP  CB334431   0.819   6.649  11.475
    1ECLIP  OB334432   0.867   6.725  11.365
    1ECLIP  HB334433   0.881   6.559  11.494
    1ECLIP  C7134434   1.003   6.732  11.362
    1ECLIP  O7134435   1.074   6.674  11.442
    1ECLIP  C7234436   1.049   6.757  11.220
    1ECLIP H72R34437   0.978   6.711  11.148
    1ECLIP H72S34438   1.149   6.709  11.209
    1ECLIP  CB234439   0.679   6.598  11.446
    1ECLIP  HB234440   0.610   6.685  11.435
    1ECLIP  NB234441   0.669   6.534  11.317
    1ECLIP HNB234442   0.674   6.435  11.314
    1ECLIP  CA434443   0.272   6.491  11.354
    1ECLIP  HA434444   0.362   6.437  11.316
    1ECLIP  OA434445   0.204   6.411  11.451
    1ECLIP HOA434446   0.149   6.348  11.403
    1ECLIP  CA534447   0.322   6.616  11.420
    1ECLIP  HA534448   0.233   6.676  11.450
    1ECLIP  OA534449   0.397   6.692  11.324
    1ECLIP  CA134450   0.313   6.739  11.216
    1ECLIP  HA134451   0.380   6.786  11.141
    1ECLIP  OA134452   0.226   6.840  11.264
    1ECLIP OPA234453   0.200   7.074  11.374
    1ECLIP OPA334454   0.386   6.917  11.453
    1ECLIP OPA434455   0.411   7.015  11.239
    1ECLIP   PA34456   0.302   6.970  11.336
    1ECLIP  CA334457   0.182   6.526  11.238
    1ECLIP  HA334458   0.093   6.580  11.276
    1ECLIP  OA334459   0.141   6.395  11.193
    1ECLIP  C3134460   0.208   6.325  11.102
    1ECLIP  O3134461   0.255   6.370  10.999
    1ECLIP  C3234462   0.223   6.179  11.143
    1ECLIP H32R34463   0.190   6.117  11.057
    1ECLIP H32S34464   0.154   6.158  11.228
    1ECLIP  CA234465   0.256   6.617  11.141
    1ECLIP  HA234466   0.344   6.564  11.099
    1ECLIP  NA234467   0.168   6.653  11.031
    1ECLIP HNA234468   0.075   6.617  11.036
    1ECLIP  C7334469   1.061   6.908  11.200
    1ECLIP H73R34470   1.118   6.951  11.285
    1ECLIP  O7334471   0.927   6.958  11.197
    1ECLIP  C8134472   0.916   7.090  11.212
    1ECLIP  O8134473   1.008   7.168  11.229
    1ECLIP  C8234474   0.775   7.130  11.169
    1ECLIP H82R34475   0.772   7.241  11.168
    1ECLIP H82S34476   0.703   7.095  11.247
    1ECLIP  C8334477   0.738   7.075  11.029
    1ECLIP H83R34478   0.738   6.964  11.029
    1ECLIP H83S34479   0.816   7.108  10.957
    1ECLIP  C8434480   0.603   7.125  10.977
    1ECLIP H84R34481   0.601   7.236  10.980
    1ECLIP H84S34482   0.521   7.089  11.043
    1ECLIP  C8534483   0.573   7.078  10.834
    1ECLIP H85R34484   0.566   6.967  10.835
    1ECLIP H85S34485   0.657   7.107  10.768
    1ECLIP  C8634486   0.441   7.133  10.778
    1ECLIP H86R34487   0.452   7.242  10.761
    1ECLIP H86S34488   0.362   7.119  10.855
    1ECLIP  C8734489   0.395   7.065  10.648
    1ECLIP H87R34490   0.307   7.119  10.608
    1ECLIP H87S34491   0.362   6.962  10.673
    1ECLIP  C8834492   0.505   7.055  10.541
    1ECLIP H88R34493   0.584   6.988  10.580
    1ECLIP H88S34494   0.551   7.155  10.524
    1ECLIP  C8934495   0.457   6.996  10.407
    1ECLIP H89R34496   0.380   6.918  10.426
    1ECLIP H89S34497   0.544   6.944  10.362
    1ECLIP C81034498   0.403   7.101  10.308
    1ECLIPH810R34499   0.444   7.200  10.334
    1ECLIPH810S34500   0.293   7.107  10.320
    1ECLIP C81134501   0.437   7.070  10.160
    1ECLIPH811R34502   0.386   7.145  10.096
    1ECLIPH811S34503   0.397   6.970  10.135
    1ECLIP C81234504   0.588   7.071  10.126
    1ECLIPH812R34505   0.602   7.037  10.021
    1ECLIPH812S34506   0.641   6.997  10.190
    1ECLIP C81334507   0.656   7.208  10.143
    1ECLIPH813R34508   0.626   7.274  10.059
    1ECLIPH813S34509   0.621   7.255  10.237
    1ECLIP C81434510   0.809   7.199  10.150
    1ECLIPH814R34511   0.850   7.150  10.059
    1ECLIPH814S34512   0.840   7.140  10.238
    1ECLIPH814T34513   0.854   7.300  10.158
    1ECLIP  C7434514   1.139   6.943  11.071
    1ECLIP H74R34515   1.241   6.900  11.077
    1ECLIP H74S34516   1.152   7.053  11.068
    1ECLIP  C7534517   1.074   6.901  10.937
    1ECLIP H75R34518   1.098   6.980  10.864
    1ECLIP H75S34519   0.963   6.896  10.946
    1ECLIP  C7634520   1.128   6.769  10.878
    1ECLIP H76R34521   1.090   6.682  10.936
    1ECLIP H76S34522   1.239   6.769  10.884
    1ECLIP  C7734523   1.088   6.756  10.731
    1ECLIP H77R34524   1.118   6.850  10.680
    1ECLIP H77S34525   0.977   6.749  10.724
    1ECLIP  C7834526   1.152   6.638  10.656
    1ECLIP H78R34527   1.262   6.653  10.657
    1ECLIP H78S34528   1.131   6.544  10.710
    1ECLIP  C7934529   1.105   6.625  10.510
    1ECLIP H79R34530   1.004   6.580  10.509
    1ECLIP H79S34531   1.173   6.555  10.457
    1ECLIP C71034532   1.099   6.759  10.435
    1ECLIPH710R34533   1.024   6.824  10.483
    1ECLIPH710S34534   1.198   6.809  10.442
    1ECLIP C71134535   1.061   6.744  10.288
    1ECLIPH711R34536   1.138   6.681  10.237
    1ECLIPH711S34537   0.963   6.691  10.280
    1ECLIP C71234538   1.050   6.881  10.219
    1ECLIPH712R34539   1.150   6.928  10.218
    1ECLIPH712S34540   0.982   6.946  10.278
    1ECLIP C71334541   0.996   6.872  10.076
    1ECLIPH713R34542   0.890   6.838  10.080
    1ECLIPH713S34543   0.998   6.973  10.031
    1ECLIP C71434544   1.076   6.776   9.988
    1ECLIPH714R34545   1.183   6.806   9.983
    1ECLIPH714S34546   1.070   6.672  10.029
    1ECLIPH714T34547   1.035   6.773   9.885
    1ECLIP  C5134548   0.658   6.604  11.203
    1ECLIP  O5134549   0.642   6.728  11.203
    1ECLIP  C5234550   0.667   6.517  11.080
    1ECLIP H52R34551   0.772   6.481  11.069
    1ECLIP H52S34552   0.604   6.428  11.101
    1ECLIP  C5334553   0.621   6.577  10.946
    1ECLIP H53R34554   0.526   6.633  10.959
    1ECLIP  O5334555   0.606   6.462  10.863
    1ECLIP  C6134556   0.495   6.452  10.791
    1ECLIP  O6134557   0.424   6.546  10.759
    1ECLIP  C6234558   0.508   6.324  10.707
    1ECLIP H62R34559   0.520   6.238  10.776
    1ECLIP H62S34560   0.602   6.334  10.648
    1ECLIP  C6334561   0.388   6.300  10.613
    1ECLIP H63R34562   0.348   6.397  10.575
    1ECLIP H63S34563   0.306   6.252  10.671
    1ECLIP  C6434564   0.421   6.214  10.490
    1ECLIP H64R34565   0.326   6.186  10.441
    1ECLIP H64S34566   0.471   6.121  10.525
    1ECLIP  C6534567   0.512   6.286  10.388
    1ECLIP H65R34568   0.610   6.306  10.435
    1ECLIP H65S34569   0.466   6.385  10.364
    1ECLIP  C6634570   0.536   6.209  10.256
    1ECLIP H66R34571   0.590   6.115  10.280
    1ECLIP H66S34572   0.603   6.270  10.192
    1ECLIP  C6734573   0.409   6.176  10.176
    1ECLIP H67R34574   0.347   6.105  10.235
    1ECLIP H67S34575   0.439   6.124  10.082
    1ECLIP  C6834576   0.323   6.298  10.141
    1ECLIP H68R34577   0.383   6.369  10.081
    1ECLIP H68S34578   0.295   6.349  10.236
    1ECLIP  C6934579   0.193   6.263  10.067
    1ECLIP H69R34580   0.134   6.190  10.127
    1ECLIP H69S34581   0.217   6.214   9.970
    1ECLIP C61034582   0.109   6.389  10.044
    1ECLIPH610R34583   0.178   6.473  10.021
    1ECLIPH610S34584   0.057   6.413  10.139
    1ECLIP C61134585   0.006   6.381   9.931
    1ECLIPH611R34586   8.097   6.283   9.934
    1ECLIPH611S34587   8.074   6.460   9.950
    1ECLIP C61234588   0.064   6.403   9.792
    1ECLIPH612R34589   0.149   6.474   9.795
    1ECLIPH612S34590   0.101   6.306   9.751
    1ECLIPH612T34591   8.131   6.443   9.723
    1ECLIP  C5434592   0.730   6.669  10.886
    1ECLIP H54R34593   0.824   6.611  10.874
    1ECLIP H54S34594   0.750   6.749  10.961
    1ECLIP  C5534595   0.693   6.735  10.753
    1ECLIP H55R34596   0.751   6.830  10.742
    1ECLIP H55S34597   0.585   6.761  10.754
    1ECLIP  C5634598   0.724   6.648  10.630
    1ECLIP H56R34599   0.670   6.551  10.637
    1ECLIP H56S34600   0.832   6.624  10.627
    1ECLIP  C5734601   0.681   6.716  10.500
    1ECLIP H57R34602   0.743   6.806  10.483
    1ECLIP H57S34603   0.575   6.748  10.510
    1ECLIP  C5834604   0.692   6.620  10.381
    1ECLIP H58R34605   0.795   6.580  10.376
    1ECLIP H58S34606   0.623   6.535  10.397
    1ECLIP  C5934607   0.657   6.690  10.250
    1ECLIP H59R34608   0.724   6.779  10.240
    1ECLIP H59S34609   0.553   6.728  10.254
    1ECLIP C51034610   0.677   6.599  10.129
    1ECLIPH510R34611   0.607   6.513  10.133
    1ECLIPH510S34612   0.780   6.559  10.133
    1ECLIP C51134613   0.659   6.677   9.999
    1ECLIPH511R34614   0.552   6.674   9.966
    1ECLIPH511S34615   0.683   6.784  10.018
    1ECLIP C51234616   0.752   6.628   9.888
    1ECLIPH512R34617   0.759   6.707   9.810
    1ECLIPH512S34618   0.855   6.614   9.928
    1ECLIP C51334619   0.705   6.500   9.821
    1ECLIPH513R34620   0.595   6.493   9.828
    1ECLIPH513S34621   0.747   6.413   9.875
    1ECLIP C51434622   0.746   6.499   9.674
    1ECLIPH514R34623   0.854   6.518   9.662
    1ECLIPH514S34624   0.722   6.401   9.627
    1ECLIPH514T34625   0.690   6.578   9.619
    1ECLIP  C3334626   0.368   6.138  11.181
    1ECLIP H33R34627   0.372   6.029  11.199
    1ECLIP  O3334628   0.405   6.204  11.300
    1ECLIP HO3334629   0.375   6.162  11.381
    1ECLIP  C3434630   0.472   6.175  11.073
    1ECLIP H34R34631   0.467   6.284  11.051
    1ECLIP H34S34632   0.444   6.122  10.979
    1ECLIP  C3534633   0.620   6.144  11.107
    1ECLIP H35R34634   0.631   6.037  11.136
    1ECLIP H35S34635   0.652   6.205  11.194
    1ECLIP  C3634636   0.711   6.174  10.987
    1ECLIP H36R34637   0.696   6.281  10.958
    1ECLIP H36S34638   0.676   6.113  10.900
    1ECLIP  C3734639   0.862   6.156  11.007
    1ECLIP H37R34640   0.886   6.048  11.016
    1ECLIP H37S34641   0.893   6.204  11.102
    1ECLIP  C3834642   0.945   6.216  10.891
    1ECLIP H38R34643   0.933   6.327  10.894
    1ECLIP H38S34644   1.052   6.193  10.908
    1ECLIP  C3934645   0.903   6.167  10.752
    1ECLIP H39R34646   0.796   6.191  10.735
    1ECLIP H39S34647   0.914   6.056  10.747
    1ECLIP C31034648   0.984   6.231  10.637
    1ECLIPH310R34649   1.089   6.193  10.641
    1ECLIPH310S34650   0.986   6.341  10.653
    1ECLIP C31134651   0.922   6.202  10.500
    1ECLIPH311R34652   0.917   6.092  10.484
    1ECLIPH311S34653   0.818   6.240  10.500
    1ECLIP C31234654   0.999   6.267  10.384
    1ECLIPH312R34655   1.020   6.373  10.410
    1ECLIPH312S34656   1.096   6.215  10.370
    1ECLIP C31334657   0.920   6.266  10.252
    1ECLIPH313R34658   0.895   6.160  10.227
    1ECLIPH313S34659   0.824   6.319  10.269
    1ECLIP C31434660   0.994   6.331  10.136
    1ECLIPH314R34661   1.088   6.275  10.114
    1ECLIPH314S34662   0.931   6.331  10.044
    1ECLIPH314T34663   1.021   6.436  10.161
    1ECLIP  C1134664   0.200   6.730  10.925
    1ECLIP  O1134665   0.313   6.775  10.907
    1ECLIP  C1234666   0.087   6.764  10.829
    1ECLIP H12R34667   0.065   6.872  10.843
    1ECLIP H12S34668   8.140   6.705  10.854
    1ECLIP  C1334669   0.127   6.739  10.682
    1ECLIP H13R34670   0.229   6.779  10.665
    1ECLIP  O1334671   0.036   6.811  10.600
    1ECLIP HO1334672   0.055   6.799  10.507
    1ECLIP  C1434673   0.121   6.591  10.638
    1ECLIP H14R34674   0.022   6.550  10.668
    1ECLIP H14S34675   0.198   6.534  10.694
    1ECLIP  C1534676   0.138   6.567  10.486
    1ECLIP H15R34677   0.049   6.608  10.434
    1ECLIP H15S34678   0.138   6.457  10.467
    1ECLIP  C1634679   0.266   6.627  10.423
    1ECLIP H16R34680   0.352   6.562  10.447
    1ECLIP H16S34681   0.289   6.727  10.465
    1ECLIP  C1734682   0.253   6.641  10.270
    1ECLIP H17R34683   0.199   6.551  10.233
    1ECLIP H17S34684   0.353   6.642  10.223
    1ECLIP  C1834685   0.176   6.768  10.230
    1ECLIP H18R34686   0.093   6.782  10.302
    1ECLIP H18S34687   0.243   6.856  10.241
    1ECLIP  C1934688   0.115   6.764  10.090
    1ECLIP H19R34689   0.052   6.855  10.077
    1ECLIP H19S34690   0.047   6.676  10.083
    1ECLIP C11034691   0.214   6.759   9.973
    1ECLIPH110R34692   0.285   6.845   9.979
    1ECLIPH110S34693   0.275   6.666   9.979
    1ECLIP C11134694   0.139   6.763   9.839
    1ECLIPH111R34695   0.069   6.677   9.836
    1ECLIPH111S34696   0.078   6.856   9.835
    1ECLIP C11234697   0.230   6.759   9.717
    1ECLIPH112R34698   0.288   6.854   9.713
    1ECLIPH112S34699   0.302   6.675   9.726
    1ECLIP C11334700   0.152   6.745   9.586
    1ECLIPH113R34701   0.100   6.646   9.585
    1ECLIPH113S34702   0.073   6.823   9.584
    1ECLIP C11434703   0.238   6.760   9.461
    1ECLIPH114R34704   0.273   6.865   9.450
    1ECLIPH114S34705   0.328   6.696   9.468
    1ECLIPH114T34706   0.180   6.732   9.370
    2AKDO    C134707   0.797   6.486  12.044
    2AKDO   O1134708   0.919   6.472  12.070
    2AKDO   O1234709   0.723   6.413  11.973
    2AKDO    C234710   0.737   6.626  12.075
    2AKDO    C634711   0.774   6.842  12.170
    2AKDO    H634712   0.728   6.884  12.078
    2AKDO    O634713   0.832   6.714  12.138
    2AKDO    C334714   0.618   6.610  12.169
    2AKDO   H3134715   0.652   6.558  12.261
    2AKDO   H3234716   0.543   6.546  12.120
    2AKDO    C434717   0.557   6.740  12.207
    2AKDO    H434718   0.527   6.796  12.115
    2AKDO    O434719   0.443   6.720  12.291
    2AKDO    C534720   0.660   6.830  12.272
    2AKDO    H534721   0.611   6.929  12.279
    2AKDO    O534722   0.695   6.783  12.405
    2AKDO    C734723   0.887   6.938  12.202
    2AKDO    H734724   0.946   6.896  12.287
    2AKDO    O734725   0.838   7.069  12.235
    2AKDO   HO734726   0.883   7.124  12.171
    2AKDO    C834727   0.978   6.951  12.081
    2AKDO   H8134728   1.016   6.851  12.051
    2AKDO   H8234729   0.922   6.992  11.994
    2AKDO    O834730   1.091   7.036  12.108
    2AKDO   HO834731   1.124   7.059  12.021
    3AKDO    C134732   0.288   6.749  12.101
    3AKDO   O1134733   0.345   6.707  11.995
    3AKDO   O1234734   0.256   6.870  12.120
    3AKDO    C234735   0.321   6.672  12.235
    3AKDO    C634736   0.356   6.449  12.325
    3AKDO    H634737   0.459   6.476  12.355
    3AKDO    O634738   0.319   6.529  12.211
    3AKDO    C334739   0.227   6.698  12.354
    3AKDO   H3134740   0.124   6.669  12.325
    3AKDO   H3234741   0.226   6.807  12.377
    3AKDO    C434742   0.267   6.621  12.478
    3AKDO    H434743   0.371   6.647  12.507
    3AKDO    O434744   0.182   6.658  12.585
    3AKDO   HO434745   0.171   6.582  12.643
    3AKDO    C534746   0.264   6.472  12.446
    3AKDO    H534747   0.308   6.418  12.532
    3AKDO    O534748   0.131   6.421  12.429
    3AKDO   HO534749   0.134   6.327  12.406
    3AKDO    C734750   0.357   6.302  12.282
    3AKDO    H734751   0.254   6.270  12.257
    3AKDO    O734752   0.410   6.219  12.386
    3AKDO   HO734753   0.454   6.154  12.331
    3AKDO    C834754   0.444   6.279  12.159
    3AKDO   H8134755   0.407   6.340  12.074
    3AKDO   H8234756   0.550   6.307  12.178
    3AKDO    O834757   0.436   6.140  12.124
    3AKDO   HO834758   0.468   6.129  12.034
    4AHEP    C134759   0.732   6.887  12.493
    4AHEP    H134760   0.827   6.929  12.456
    4AHEP    C534761   0.516   6.958  12.557
    4AHEP    H534762   0.480   6.864  12.510
    4AHEP    O534763   0.639   6.996  12.494
    4AHEP    C234764   0.761   6.843  12.636
    4AHEP    H234765   0.818   6.748  12.627
    4AHEP    O234766   0.848   6.934  12.705
    4AHEP   HO234767   0.936   6.916  12.671
    4AHEP    C334768   0.634   6.807  12.713
    4AHEP    H334769   0.586   6.717  12.669
    4AHEP    O334770   0.661   6.790  12.854
    4AHEP    C434771   0.541   6.926  12.706
    4AHEP    H434772   0.596   7.012  12.750
    4AHEP    O434773   0.420   6.896  12.778
    4AHEP    P434774   0.351   7.008  12.875
    4AHEP  OP4234775   0.279   6.949  12.994
    4AHEP  OP4334776   0.254   7.092  12.793
    4AHEP  OP4434777   0.457   7.104  12.924
    4AHEP    C634778   0.409   7.061  12.528
    4AHEP    H634779   0.312   7.014  12.557
    4AHEP    O634780   0.431   7.179  12.607
    4AHEP   HO634781   0.401   7.147  12.692
    4AHEP    C734782   0.397   7.099  12.380
    4AHEP   H7134783   0.303   7.157  12.363
    4AHEP   H7234784   0.388   7.005  12.320
    4AHEP    O734785   0.508   7.175  12.332
    4AHEP   HO734786   0.585   7.127  12.364
    5AHEP    C134787   0.645   6.661  12.909
    5AHEP    H134788   0.560   6.608  12.862
    5AHEP    C534789   0.881   6.655  12.950
    5AHEP    H534790   0.894   6.750  12.895
    5AHEP    O534791   0.766   6.585  12.896
    5AHEP    C234792   0.621   6.678  13.058
    5AHEP    H234793   0.528   6.737  13.070
    5AHEP    O234794   0.602   6.551  13.121
    5AHEP   HO234795   0.675   6.496  13.091
    5AHEP    C334796   0.735   6.756  13.123
    5AHEP    H334797   0.738   6.858  13.078
    5AHEP    O334798   0.723   6.763  13.266
    5AHEP    C434799   0.863   6.682  13.099
    5AHEP    H434800   0.868   6.589  13.159
    5AHEP    O434801   0.966   6.775  13.132
    5AHEP    P434802   1.083   6.759  13.243
    5AHEP  OP4234803   1.169   6.882  13.221
    5AHEP  OP4334804   1.165   6.638  13.204
    5AHEP  OP4434805   1.021   6.756  13.381
    5AHEP    C634806   1.000   6.564  12.919
    5AHEP    H634807   1.092   6.616  12.953
    5AHEP    O634808   0.986   6.439  12.988
    5AHEP   HO634809   0.935   6.389  12.924
    5AHEP    C734810   1.007   6.537  12.769
    5AHEP   H7134811   1.114   6.524  12.740
    5AHEP   H7234812   0.969   6.623  12.711
    5AHEP    O734813   0.940   6.414  12.737
    6AHEP    C134814   0.836   6.433  12.643
    6AHEP    H134815   0.789   6.532  12.655
    6AHEP    C534816   0.941   6.291  12.482
    6AHEP    H534817   1.029   6.277  12.550
    6AHEP    O534818   0.883   6.420  12.509
    6AHEP    C234819   0.731   6.329  12.676
    6AHEP    H234820   0.707   6.338  12.784
    6AHEP    O234821   0.609   6.353  12.606
    6AHEP   HO234822   0.550   6.278  12.618
    6AHEP    C334823   0.789   6.191  12.654
    6AHEP    H334824   0.876   6.176  12.722
    6AHEP    O334825   0.694   6.089  12.682
    6AHEP   HO334826   0.730   6.010  12.640
    6AHEP    C434827   0.839   6.181  12.512
    6AHEP    H434828   0.753   6.191  12.443
    6AHEP    O434829   0.900   6.054  12.491
    6AHEP   HO434830   0.856   6.012  12.417
    6AHEP    C634831   0.994   6.280  12.339
    6AHEP    H634832   1.043   6.181  12.327
    6AHEP    O634833   0.882   6.280  12.249
    6AHEP   HO634834   0.896   6.344  12.180
    6AHEP    C734835   1.097   6.386  12.299
    6AHEP   H7134836   1.130   6.364  12.195
    6AHEP   H7234837   1.186   6.374  12.364
    6AHEP    O734838   1.054   6.522  12.305
    6AHEP   HO734839   0.990   6.528  12.234
    7AGLC    C134840   0.666   6.879  13.320
    7AGLC    H134841   0.717   6.968  13.278
    7AGLC    C534842   0.455   6.771  13.345
    7AGLC    H534843   0.508   6.678  13.312
    7AGLC    O534844   0.525   6.885  13.292
    7AGLC    C234845   0.685   6.877  13.472
    7AGLC    H234846   0.637   6.969  13.511
    7AGLC    O234847   0.823   6.887  13.510
    7AGLC   HO234848   0.878   6.828  13.458
    7AGLC    C334849   0.613   6.759  13.538
    7AGLC    H334850   0.655   6.666  13.494
    7AGLC    O334851   0.628   6.755  13.683
    7AGLC    C434852   0.466   6.771  13.498
    7AGLC    H434853   0.427   6.869  13.534
    7AGLC    O434854   0.383   6.671  13.555
    7AGLC   HO434855   0.339   6.622  13.485
    7AGLC    C634856   0.317   6.759  13.282
    7AGLC   H6134857   0.328   6.768  13.172
    7AGLC   H6234858   0.275   6.658  13.301
    7AGLC    O634859   0.224   6.857  13.327
    7AGLC   HO634860   0.160   6.869  13.257
    8AGLC    C134861   0.678   6.632  13.733
    8AGLC    H134862   0.630   6.547  13.680
    8AGLC    C534863   0.895   6.723  13.781
    8AGLC    H534864   0.855   6.822  13.751
    8AGLC    O534865   0.820   6.622  13.713
    8AGLC    C234866   0.654   6.615  13.884
    8AGLC    H234867   0.693   6.514  13.912
    8AGLC    O234868   0.517   6.623  13.925
    8AGLC    C334869   0.730   6.719  13.965
    8AGLC    H334870   0.695   6.818  13.930
    8AGLC    O334871   0.696   6.708  14.106
    8AGLC    C434872   0.878   6.708  13.932
    8AGLC    H434873   0.915   6.607  13.960
    8AGLC    O434874   0.956   6.805  14.000
    8AGLC   HO434875   1.046   6.791  13.971
    8AGLC    C634876   1.039   6.718  13.732
    8AGLC   H6134877   1.041   6.699  13.622
    8AGLC   H6234878   1.087   6.817  13.747
    8AGLC    O634879   1.118   6.619  13.800
    8AGLC   HO634880   1.088   6.534  13.767
    9AGAL    C134881   0.424   6.535  13.865
    9AGAL    H134882   0.429   6.543  13.754
    9AGAL    C534883   0.438   6.375  14.042
    9AGAL    H534884   0.512   6.441  14.092
    9AGAL    O534885   0.447   6.398  13.901
    9AGAL    C234886   0.286   6.580  13.910
    9AGAL    H234887   0.210   6.518  13.857
    9AGAL    O234888   0.277   6.715  13.861
    9AGAL    C334889   0.272   6.557  14.060
    9AGAL    H334890   0.348   6.620  14.112
    9AGAL    O334891   0.144   6.596  14.111
    9AGAL   HO334892   0.080   6.531  14.080
    9AGAL    C434893   0.299   6.411  14.094
    9AGAL    H434894   0.300   6.401  14.205
    9AGAL    O434895   0.197   6.324  14.046
    9AGAL   HO434896   0.231   6.279  13.968
    9AGAL    C634897   0.483   6.232  14.068
    9AGAL   H6134898   0.590   6.222  14.039
    9AGAL   H6234899   0.475   6.210  14.176
    9AGAL    O634900   0.408   6.134  13.995
    9AGAL   HO634901   0.434   6.135  13.903
   10AGAL    C134902   0.191   6.811  13.916
   10AGAL    H134903   0.087   6.770  13.919
   10AGAL    C534904   0.366   6.909  14.048
   10AGAL    H534905   0.434   6.835  14.003
   10AGAL    O534906   0.232   6.855  14.048
   10AGAL    C234907   0.195   6.931  13.821
   10AGAL    H234908   0.124   7.005  13.862
   10AGAL    O234909   0.151   6.901  13.688
   10AGAL   HO234910   0.177   6.812  13.665
   10AGAL    C334911   0.334   6.993  13.820
   10AGAL    H334912   0.407   6.917  13.785
   10AGAL    O334913   0.346   7.106  13.732
   10AGAL   HO334914   0.349   7.076  13.641
   10AGAL    C434915   0.369   7.033  13.961
   10AGAL    H434916   0.473   7.074  13.961
   10AGAL    O434917   0.280   7.132  14.013
   10AGAL   HO434918   0.211   7.084  14.060
   10AGAL    C634919   0.416   6.929  14.191
   10AGAL   H6134920   0.422   6.830  14.241
   10AGAL   H6234921   0.518   6.971  14.187
   10AGAL    O634922   0.333   7.016  14.270
   10AGAL   HO634923   0.254   6.967  14.292
   11BGLC    C134924   0.777   6.632  14.193
   11BGLC    H134925   0.874   6.684  14.208
   11BGLC    C534926   0.887   6.423  14.227
   11BGLC    H534927   0.983   6.477  14.242
   11BGLC    O534928   0.800   6.500  14.142
   11BGLC    C234929   0.704   6.619  14.327
   11BGLC    H234930   0.610   6.564  14.308
   11BGLC    O234931   0.670   6.747  14.381
   11BGLC   HO234932   0.663   6.808  14.307
   11BGLC    C334933   0.788   6.540  14.424
   11BGLC    H334934   0.883   6.593  14.446
   11BGLC    O334935   0.717   6.512  14.547
   11BGLC    C434936   0.819   6.405  14.362
   11BGLC    H434937   0.723   6.350  14.346
   11BGLC    O434938   0.899   6.328  14.450
   11BGLC   HO434939   0.865   6.335  14.539
   11BGLC    C634940   0.920   6.291  14.157
   11BGLC   H6134941   0.978   6.226  14.225
   11BGLC   H6234942   0.825   6.239  14.132
   11BGLC    O634943   0.996   6.310  14.037
   11BGLC   HO634944   0.972   6.244  13.972
   12BGLCN   C134945   0.751   6.589  14.660
   12BGLCN   H134946   0.733   6.696  14.640
   12BGLCN   C534947   0.923   6.639  14.817
   12BGLCN   H534948   0.902   6.747  14.800
   12BGLCN   O534949   0.886   6.566  14.699
   12BGLCN   C234950   0.659   6.537  14.771
   12BGLCN   H234951   0.682   6.430  14.785
   12BGLCN    N34952   0.520   6.549  14.726
   12BGLCN   HN34953   0.502   6.619  14.657
   12BGLCN    C34954   0.423   6.462  14.754
   12BGLCN    O34955   0.438   6.369  14.833
   12BGLCN   CT34956   0.291   6.485  14.685
   12BGLCN  HT134957   0.209   6.444  14.748
   12BGLCN  HT234958   0.290   6.433  14.587
   12BGLCN  HT334959   0.273   6.594  14.669
   12BGLCN   C334960   0.689   6.609  14.903
   12BGLCN   H334961   0.665   6.717  14.891
   12BGLCN   O334962   0.610   6.553  15.011
   12BGLCN   C434963   0.837   6.589  14.933
   12BGLCN   H434964   0.855   6.480  14.945
   12BGLCN   O434965   0.878   6.653  15.053
   12BGLCN  HO434966   0.889   6.747  15.040
   12BGLCN   C634967   1.072   6.624  14.842
   12BGLCN  H6134968   1.101   6.678  14.934
   12BGLCN  H6234969   1.095   6.516  14.858
   12BGLCN   O634970   1.153   6.673  14.735
   12BGLCN  HO634971   1.118   6.757  14.704
   13AGAL    C134972   0.575   6.639  15.118
   13AGAL    H134973   0.659   6.707  15.144
   13AGAL    C534974   0.342   6.642  15.058
   13AGAL    H534975   0.367   6.566  14.981
   13AGAL    O534976   0.461   6.720  15.083
   13AGAL    C234977   0.536   6.563  15.246
   13AGAL    H234978   0.502   6.640  15.318
   13AGAL    O234979   0.647   6.494  15.308
   13AGAL    C334980   0.415   6.474  15.221
   13AGAL    H334981   0.439   6.407  15.135
   13AGAL    O334982   0.385   6.390  15.332
   13AGAL   HO334983   0.393   6.298  15.305
   13AGAL    C434984   0.299   6.564  15.182
   13AGAL    H434985   0.212   6.499  15.155
   13AGAL    O434986   0.256   6.652  15.286
   13AGAL   HO434987   0.325   6.717  15.303
   13AGAL    C634988   0.235   6.730  14.995
   13AGAL   H6134989   0.272   6.770  14.899
   13AGAL   H6234990   0.145   6.668  14.973
   13AGAL    O634991   0.198   6.839  15.079
   13AGAL   HO634992   0.154   6.801  15.156
   14ARHM    C134993   0.687   6.540  15.436
   14ARHM    H134994   0.669   6.650  15.442
   14ARHM    C534995   0.867   6.387  15.453
   14ARHM    H534996   0.840   6.344  15.354
   14ARHM    O534997   0.828   6.525  15.456
   14ARHM    C234998   0.610   6.470  15.547
   14ARHM    H234999   0.501   6.482  15.527
   14ARHM    O235000   0.634   6.517  15.681
   14ARHM    C335001   0.645   6.323  15.547
   14ARHM    H335002   0.616   6.277  15.450
   14ARHM    O335003   0.573   6.257  15.651
   14ARHM   HO335004   0.573   6.320  15.724
   14ARHM    C435005   0.796   6.310  15.564
   14ARHM    H435006   0.825   6.358  15.660
   14ARHM    O435007   0.839   6.174  15.572
   14ARHM   HO435008   0.815   6.126  15.492
   14ARHM    C635009   1.020   6.388  15.464
   14ARHM   H6135010   1.064   6.447  15.380
   14ARHM   H6235011   1.053   6.433  15.560
   14ARHM   H6335012   1.059   6.284  15.457
   15ARHM    C135013   0.609   6.652  15.709
   15ARHM    H135014   0.537   6.695  15.637
   15ARHM    C535015   0.829   6.677  15.802
   15ARHM    H535016   0.853   6.572  15.775
   15ARHM    O535017   0.731   6.729  15.710
   15ARHM    C235018   0.550   6.656  15.849
   15ARHM    H235019   0.456   6.597  15.849
   15ARHM    O235020   0.518   6.794  15.874
   15ARHM    C335021   0.647   6.598  15.948
   15ARHM    H335022   0.672   6.495  15.915
   15ARHM    O335023   0.586   6.590  16.077
   15ARHM    C435024   0.773   6.681  15.945
   15ARHM    H435025   0.749   6.786  15.970
   15ARHM    O435026   0.869   6.635  16.041
   15ARHM   HO435027   0.956   6.666  16.016
   15ARHM    C635028   0.957   6.760  15.783
   15ARHM   H6135029   1.040   6.720  15.845
   15ARHM   H6235030   0.989   6.756  15.677
   15ARHM   H6335031   0.940   6.867  15.810
   16BMANN   C135032   0.458   6.828  15.997
   16BMANN   H135033   0.532   6.823  16.079
   16BMANN   C535034   0.279   6.791  16.150
   16BMANN   H535035   0.353   6.785  16.233
   16BMANN   O535036   0.342   6.748  16.027
   16BMANN   C235037   0.415   6.970  15.974
   16BMANN   H235038   0.508   7.029  15.958
   16BMANN    N35039   0.332   6.981  15.855
   16BMANN   HN35040   0.266   6.907  15.841
   16BMANN    C35041   0.346   7.075  15.762
   16BMANN    O35042   0.429   7.165  15.769
   16BMANN   CT35043   0.254   7.065  15.644
   16BMANN  HT135044   0.249   7.164  15.593
   16BMANN  HT235045   0.152   7.036  15.677
   16BMANN  HT335046   0.293   6.990  15.573
   16BMANN   C335047   0.351   7.022  16.100
   16BMANN   H335048   0.425   7.014  16.182
   16BMANN   O335049   0.317   7.160  16.087
   16BMANN  HO335050   0.344   7.204  16.168
   16BMANN   C435051   0.231   6.935  16.136
   16BMANN   H435052   0.156   6.941  16.055
   16BMANN   O435053   0.169   6.978  16.257
   16BMANN  HO435054   0.187   7.071  16.270
   16BMANN   C635055   0.167   6.694  16.182
   16BMANN  H6135056   0.114   6.726  16.274
   16BMANN  H6235057   0.093   6.694  16.099
   16BMANN   O635058   0.215   6.561  16.202
   16BMANN  HO635059   0.269   6.538  16.125
   17BGLCN   C135060   0.622   6.477  16.151
   17BGLCN   H135061   0.725   6.444  16.127
   17BGLCN   C535062   0.561   6.255  16.209
   17BGLCN   H535063   0.663   6.221  16.183
   17BGLCN   O535064   0.529   6.371  16.131
   17BGLCN   C235065   0.615   6.521  16.295
   17BGLCN   H235066   0.508   6.543  16.317
   17BGLCN    N35067   0.689   6.645  16.316
   17BGLCN   HN35068   0.764   6.661  16.251
   17BGLCN    C35069   0.656   6.738  16.405
   17BGLCN    O35070   0.558   6.728  16.479
   17BGLCN   CT35071   0.744   6.860  16.413
   17BGLCN  HT135072   0.688   6.948  16.374
   17BGLCN  HT235073   0.837   6.846  16.354
   17BGLCN  HT335074   0.770   6.880  16.519
   17BGLCN   C335075   0.658   6.404  16.382
   17BGLCN   H335076   0.757   6.370  16.346
   17BGLCN   O335077   0.672   6.445  16.520
   17BGLCN   C435078   0.558   6.292  16.358
   17BGLCN   H435079   0.456   6.330  16.382
   17BGLCN   O435080   0.582   6.177  16.437
   17BGLCN  HO435081   0.513   6.170  16.505
   17BGLCN   C635082   0.466   6.143  16.172
   17BGLCN  H6135083   0.498   6.048  16.220
   17BGLCN  H6235084   0.364   6.167  16.209
   17BGLCN   O635085   0.461   6.123  16.030
   17BGLCN  HO635086   0.427   6.204  15.990
   18AGAL    C135087   0.767   6.375  16.597
   18AGAL    H135088   0.737   6.268  16.608
   18AGAL    C535089   0.953   6.511  16.529
   18AGAL    H535090   0.885   6.570  16.465
   18AGAL    O535091   0.900   6.378  16.540
   18AGAL    C235092   0.777   6.437  16.735
   18AGAL    H235093   0.860   6.381  16.783
   18AGAL    O235094   0.660   6.417  16.816
   18AGAL    C335095   0.821   6.583  16.725
   18AGAL    H335096   0.749   6.637  16.660
   18AGAL    O335097   0.820   6.646  16.854
   18AGAL   HO335098   0.805   6.741  16.846
   18AGAL    C435099   0.960   6.584  16.665
   18AGAL    H435100   0.987   6.690  16.643
   18AGAL    O435101   1.057   6.535  16.756
   18AGAL   HO435102   1.014   6.528  16.842
   18AGAL    C635103   1.086   6.502  16.455
   18AGAL   H6135104   1.066   6.475  16.349
   18AGAL   H6235105   1.135   6.602  16.455
   18AGAL    O635106   1.176   6.406  16.509
   18AGAL   HO635107   1.146   6.318  16.483
   19ARHM    C135108   0.695   6.383  16.948
   19ARHM    H135109   0.791   6.432  16.977
   19ARHM    C535110   0.591   6.169  16.937
   19ARHM    H535111   0.556   6.192  16.834
   19ARHM    O535112   0.712   6.241  16.964
   19ARHM    C235113   0.588   6.432  17.043
   19ARHM    H235114   0.566   6.537  17.014
   19ARHM    O235115   0.629   6.431  17.182
   19ARHM    C335116   0.458   6.358  17.022
   19ARHM    H335117   0.420   6.379  16.920
   19ARHM    O335118   0.362   6.403  17.117
   19ARHM   HO335119   0.407   6.404  17.202
   19ARHM    C435120   0.483   6.209  17.037
   19ARHM    H435121   0.522   6.188  17.138
   19ARHM    O435122   0.365   6.132  17.019
   19ARHM   HO435123   0.312   6.173  16.949
   19ARHM    C635124   0.626   6.019  16.942
   19ARHM   H6135125   0.698   5.995  16.861
   19ARHM   H6235126   0.671   5.993  17.039
   19ARHM   H6335127   0.535   5.957  16.926
   20ARHM    C135128   0.719   6.535  17.212
   20ARHM    H135129   0.718   6.613  17.133
   20ARHM    C535130   0.874   6.396  17.330
   20ARHM    H535131   0.810   6.307  17.312
   20ARHM    O535132   0.855   6.490  17.224
   20ARHM    C235133   0.676   6.599  17.342
   20ARHM    H235134   0.567   6.620  17.336
   20ARHM    O235135   0.746   6.722  17.366
   20ARHM    C335136   0.693   6.503  17.457
   20ARHM    H335137   0.627   6.415  17.441
   20ARHM    O335138   0.653   6.574  17.575
   20ARHM    C435139   0.837   6.459  17.464
   20ARHM    H435140   0.901   6.548  17.480
   20ARHM    O435141   0.860   6.367  17.572
   20ARHM   HO435142   0.952   6.339  17.567
   20ARHM    C635143   1.022   6.352  17.321
   20ARHM   H6135144   1.089   6.439  17.340
   20ARHM   H6235145   1.045   6.272  17.395
   20ARHM   H6335146   1.044   6.314  17.220
   21BMANN   C135147   0.693   6.830  17.292
   21BMANN   H135148   0.607   6.796  17.231
   21BMANN   C535149   0.730   6.987  17.119
   21BMANN   H535150   0.646   6.942  17.062
   21BMANN   O535151   0.790   6.886  17.203
   21BMANN   C235152   0.645   6.937  17.388
   21BMANN   H235153   0.568   6.889  17.452
   21BMANN    N35154   0.752   6.983  17.475
   21BMANN   HN35155   0.844   6.959  17.445
   21BMANN    C35156   0.736   7.047  17.592
   21BMANN    O35157   0.626   7.078  17.636
   21BMANN   CT35158   0.862   7.079  17.668
   21BMANN  HT135159   0.896   7.182  17.641
   21BMANN  HT235160   0.942   7.006  17.644
   21BMANN  HT335161   0.841   7.076  17.777
   21BMANN   C335162   0.577   7.044  17.304
   21BMANN   H335163   0.495   6.996  17.246
   21BMANN   O335164   0.515   7.140  17.389
   21BMANN  HO335165   0.571   7.153  17.466
   21BMANN   C435166   0.676   7.102  17.204
   21BMANN   H435167   0.760   7.151  17.257
   21BMANN   O435168   0.614   7.198  17.119
   21BMANN  HO435169   0.610   7.284  17.162
   21BMANN   C635170   0.835   7.028  17.017
   21BMANN  H6135171   0.792   7.101  16.944
   21BMANN  H6235172   0.920   7.078  17.068
   21BMANN   O635173   0.883   6.914  16.944
   21BMANN  HO635174   0.928   6.858  17.008
   22BGLCN   C135175   0.589   6.498  17.674
   22BGLCN   H135176   0.628   6.394  17.676
   22BGLCN   C535177   0.379   6.434  17.764
   22BGLCN   H535178   0.417   6.330  17.773
   22BGLCN   O535179   0.447   6.501  17.657
   22BGLCN   C235180   0.625   6.573  17.800
   22BGLCN   H235181   0.582   6.675  17.790
   22BGLCN    N35182   0.769   6.588  17.813
   22BGLCN   HN35183   0.824   6.523  17.762
   22BGLCN    C35184   0.831   6.690  17.875
   22BGLCN    O35185   0.771   6.782  17.931
   22BGLCN   CT35186   0.981   6.687  17.872
   22BGLCN  HT135187   1.018   6.747  17.786
   22BGLCN  HT235188   1.018   6.582  17.861
   22BGLCN  HT335189   1.021   6.729  17.966
   22BGLCN   C335190   0.558   6.505  17.918
   22BGLCN   H335191   0.592   6.399  17.920
   22BGLCN   O335192   0.604   6.569  18.039
   22BGLCN   C435193   0.408   6.508  17.894
   22BGLCN   H435194   0.376   6.613  17.881
   22BGLCN   O435195   0.334   6.453  18.002
   22BGLCN  HO435196   0.305   6.525  18.059
   22BGLCN   C635197   0.231   6.427  17.729
   22BGLCN  H6135198   0.174   6.383  17.813
   22BGLCN  H6235199   0.191   6.529  17.710
   22BGLCN   O635200   0.210   6.345  17.613
   22BGLCN  HO635201   0.233   6.396  17.535
   23AGAL    C135202   0.589   6.501  18.161
   23AGAL    H135203   0.482   6.499  18.190
   23AGAL    C535204   0.778   6.356  18.131
   23AGAL    H535205   0.799   6.408  18.035
   23AGAL    O535206   0.637   6.365  18.157
   23AGAL    C235207   0.663   6.578  18.269
   23AGAL    H235208   0.642   6.530  18.367
   23AGAL    O235209   0.619   6.716  18.271
   23AGAL    C335210   0.813   6.573  18.245
   23AGAL    H335211   0.834   6.622  18.148
   23AGAL    O335212   0.883   6.645  18.346
   23AGAL   HO335213   0.903   6.583  18.416
   23AGAL    C435214   0.859   6.428  18.240
   23AGAL    H435215   0.966   6.426  18.210
   23AGAL    O435216   0.849   6.363  18.366
   23AGAL   HO435217   0.835   6.270  18.347
   23AGAL    C635218   0.816   6.210  18.110
   23AGAL   H6135219   0.754   6.169  18.027
   23AGAL   H6235220   0.922   6.203  18.080
   23AGAL    O635221   0.795   6.128  18.226
   23AGAL   HO635222   0.761   6.042  18.201
   24ARHM    C135223   0.517   6.748  18.361
   24ARHM    H135224   0.449   6.661  18.371
   24ARHM    C535225   0.511   6.978  18.300
   24ARHM    H535226   0.591   6.962  18.225
   24ARHM    O535227   0.436   6.856  18.313
   24ARHM    C235228   0.579   6.780  18.495
   24ARHM    H235229   0.647   6.698  18.525
   24ARHM    O235230   0.477   6.798  18.596
   24ARHM    C335231   0.664   6.905  18.482
   24ARHM    H335232   0.742   6.886  18.405
   24ARHM    O335233   0.732   6.934  18.603
   24ARHM   HO335234   0.723   7.028  18.622
   24ARHM    C435235   0.575   7.018  18.433
   24ARHM    H435236   0.494   7.034  18.507
   24ARHM    O435237   0.647   7.141  18.421
   24ARHM   HO435238   0.584   7.213  18.436
   24ARHM    C635239   0.413   7.083  18.245
   24ARHM   H6135240   0.467   7.178  18.226
   24ARHM   H6235241   0.369   7.049  18.149
   24ARHM   H6335242   0.332   7.103  18.318
   25ARHM    C135243   0.434   6.678  18.654
   25ARHM    H135244   0.458   6.595  18.584
   25ARHM    C535245   0.245   6.761  18.770
   25ARHM    H535246   0.271   6.865  18.739
   25ARHM    O535247   0.292   6.669  18.671
   25ARHM    C235248   0.509   6.653  18.783
   25ARHM    H235249   0.616   6.674  18.767
   25ARHM    O235250   0.493   6.518  18.829
   25ARHM    C335251   0.461   6.748  18.889
   25ARHM    H335252   0.484   6.852  18.856
   25ARHM    O335253   0.533   6.717  19.008
   25ARHM    C435254   0.312   6.731  18.905
   25ARHM    H435255   0.291   6.625  18.932
   25ARHM    O435256   0.259   6.814  19.008
   25ARHM   HO435257   0.164   6.804  19.009
   25ARHM    C635258   0.092   6.747  18.770
   25ARHM   H6135259   0.053   6.768  18.669
   25ARHM   H6235260   0.062   6.644  18.799
   25ARHM   H6335261   0.046   6.820  18.840
   26BMANN   C135262   0.573   6.427  18.760
   26BMANN   H135263   0.666   6.476  18.723
   26BMANN   C535264   0.585   6.282  18.573
   26BMANN   H535265   0.672   6.342  18.539
   26BMANN   O535266   0.501   6.370  18.649
   26BMANN   C235267   0.612   6.316  18.854
   26BMANN   H235268   0.669   6.363  18.937
   26BMANN    N35269   0.493   6.251  18.909
   26BMANN   HN35270   0.420   6.232  18.844
   26BMANN    C35271   0.474   6.224  19.039
   26BMANN    O35272   0.557   6.248  19.126
   26BMANN   CT35273   0.343   6.160  19.075
   26BMANN  HT135274   0.262   6.201  19.011
   26BMANN  HT235275   0.319   6.182  19.181
   26BMANN  HT335276   0.350   6.050  19.061
   26BMANN   C335277   0.707   6.224  18.779
   26BMANN   H335278   0.795   6.282  18.744
   26BMANN   O335279   0.756   6.120  18.864
   26BMANN  HO335280   0.823   6.154  18.924
   26BMANN   C435281   0.635   6.168  18.658
   26BMANN   H435282   0.551   6.103  18.692
   26BMANN   O435283   0.722   6.092  18.574
   26BMANN  HO435284   0.734   6.004  18.609
   26BMANN   C635285   0.508   6.237  18.450
   26BMANN  H6135286   0.458   6.324  18.403
   26BMANN  H6235287   0.580   6.197  18.375
   26BMANN   O635288   0.411   6.136  18.479
   26BMANN  HO635289   0.458   6.052  18.486
   27BGLCN   C135290   0.565   6.828  19.087
   27BGLCN   H135291   0.485   6.906  19.079
   27BGLCN   C535292   0.727   6.996  19.132
   27BGLCN   H535293   0.649   7.074  19.119
   27BGLCN   O535294   0.692   6.883  19.051
   27BGLCN   C235295   0.571   6.775  19.229
   27BGLCN   H235296   0.657   6.705  19.234
   27BGLCN    N35297   0.452   6.697  19.258
   27BGLCN   HN35298   0.378   6.709  19.193
   27BGLCN    C35299   0.444   6.595  19.346
   27BGLCN    O35300   0.528   6.569  19.431
   27BGLCN   CT35301   0.321   6.509  19.334
   27BGLCN  HT135302   0.239   6.564  19.283
   27BGLCN  HT235303   0.288   6.478  19.435
   27BGLCN  HT335304   0.347   6.418  19.275
   27BGLCN   C335305   0.600   6.892  19.322
   27BGLCN   H335306   0.520   6.968  19.308
   27BGLCN   O335307   0.595   6.841  19.457
   27BGLCN   C435308   0.733   6.953  19.279
   27BGLCN   H435309   0.811   6.875  19.288
   27BGLCN   O435310   0.773   7.063  19.360
   27BGLCN  HO435311   0.854   7.037  19.403
   27BGLCN   C635312   0.859   7.055  19.083
   27BGLCN  H6135313   0.876   7.154  19.131
   27BGLCN  H6235314   0.940   6.987  19.118
   27BGLCN   O635315   0.871   7.069  18.941
   27BGLCN  HO635316   0.810   7.135  18.908
   28AGAL    C135317   0.598   6.932   0.091
   28AGAL    H135318   0.701   6.972   0.103
   28AGAL    C535319   0.368   6.999   0.067
   28AGAL    H535320   0.354   6.929  19.455
   28AGAL    O535321   0.506   7.041   0.071
   28AGAL    C235322   0.562   6.863   0.222
   28AGAL    H235323   0.563   6.946   0.296
   28AGAL    O235324   0.656   6.762   0.263
   28AGAL    C335325   0.420   6.809   0.216
   28AGAL    H335326   0.412   6.739   0.130
   28AGAL    O335327   0.386   6.737   0.335
   28AGAL   HO335328   0.385   6.643   0.318
   28AGAL    C435329   0.326   6.925   0.195
   28AGAL    H435330   0.224   6.884   0.177
   28AGAL    O435331   0.317   7.010   0.310
   28AGAL   HO435332   0.312   6.950   0.385
   28AGAL    C635333   0.286   7.124   0.041
   28AGAL   H6135334   0.308   7.163  19.411
   28AGAL   H6235335   0.177   7.099   0.045
   28AGAL    O635336   0.314   7.227   0.136
   28AGAL   HO635337   0.336   7.181   0.217
   29ARHM    C135338   0.697   6.777   0.397
   29ARHM    H135339   0.619   6.832   0.454
   29ARHM    C535340   0.930   6.779   0.343
   29ARHM    H535341   0.906   6.764   0.235
   29ARHM    O535342   0.822   6.849   0.406
   29ARHM    C235343   0.713   6.642   0.464
   29ARHM    H235344   0.618   6.586   0.449
   29ARHM    O235345   0.737   6.660   0.606
   29ARHM    C335346   0.825   6.563   0.401
   29ARHM    H335347   0.800   6.548   0.293
   29ARHM    O335348   0.837   6.434   0.461
   29ARHM   HO335349   0.896   6.442   0.536
   29ARHM    C435350   0.953   6.644   0.409
   29ARHM    H435351   0.976   6.663   0.517
   29ARHM    O435352   1.065   6.576   0.354
   29ARHM   HO435353   1.051   6.557   0.261
   29ARHM    C635354   1.052   6.871   0.353
   29ARHM   H6135355   1.031   6.969   0.304
   29ARHM   H6235356   1.078   6.888   0.459
   29ARHM   H6335357   1.141   6.825   0.303
   30ARHM    C135358   0.623   6.640   0.685
   30ARHM    H135359   0.577   6.543   0.658
   30ARHM    C535360   0.572   6.873   0.710
   30ARHM    H535361   0.662   6.902   0.653
   30ARHM    O535362   0.525   6.744   0.669
   30ARHM    C235363   0.663   6.634   0.832
   30ARHM    H235364   0.745   6.559   0.843
   30ARHM    O235365   0.549   6.598   0.910
   30ARHM    C335366   0.715   6.768   0.881
   30ARHM    H335367   0.802   6.795   0.816
   30ARHM    O335368   0.766   6.760   1.016
   30ARHM    C435369   0.608   6.873   0.858
   30ARHM    H435370   0.516   6.847   0.915
   30ARHM    O435371   0.653   7.002   0.900
   30ARHM   HO435372   0.688   6.988   0.988
   30ARHM    C635373   0.459   6.971   0.674
   30ARHM   H6135374   0.487   7.075   0.700
   30ARHM   H6235375   0.438   6.966   0.565
   30ARHM   H6335376   0.365   6.944   0.728
   31BMANN   C135377   0.530   6.462   0.934
   31BMANN   H135378   0.627   6.409   0.947
   31BMANN   C535379   0.427   6.262   0.855
   31BMANN   H535380   0.525   6.211   0.867
   31BMANN   O535381   0.451   6.402   0.831
   31BMANN   C235382   0.449   6.456   1.063
   31BMANN   H235383   0.514   6.497   1.143
   31BMANN    N35384   0.329   6.539   1.055
   31BMANN   HN35385   0.296   6.559   0.963
   31BMANN    C35386   0.264   6.589   1.159
   31BMANN    O35387   0.300   6.570   1.274
   31BMANN   CT35388   0.143   6.673   1.129
   31BMANN  HT135389   0.079   6.619   1.056
   31BMANN  HT235390   0.174   6.771   1.086
   31BMANN  HT335391   0.085   6.690   1.223
   31BMANN   C335392   0.424   6.311   1.097
   31BMANN   H335393   0.522   6.259   1.106
   31BMANN   O335394   0.360   6.298   1.223
   31BMANN  HO335395   0.320   6.382   1.247
   31BMANN   C435396   0.347   6.245   0.984
   31BMANN   H435397   0.248   6.294   0.972
   31BMANN   O435398   0.326   6.107   1.011
   31BMANN  HO435399   0.297   6.100   1.102
   31BMANN   C635400   0.359   6.204   0.732
   31BMANN  H6135401   0.341   6.095   0.747
   31BMANN  H6235402   0.260   6.253   0.720
   31BMANN   O635403   0.435   6.224   0.612
   31BMANN  HO635404   0.509   6.163   0.610
   32BGLCN   C135405   0.674   6.767   1.122
   32BGLCN   H135406   0.585   6.704   1.100
   32BGLCN   C535407   0.523   6.903   1.243
   32BGLCN   H535408   0.441   6.836   1.210
   32BGLCN   O535409   0.628   6.900   1.146
   32BGLCN   C235410   0.736   6.715   1.251
   32BGLCN   H235411   0.810   6.790   1.284
   32BGLCN    N35412   0.810   6.591   1.228
   32BGLCN   HN35413   0.797   6.547   1.140
   32BGLCN    C35414   0.908   6.547   1.307
   32BGLCN    O35415   0.937   6.601   1.413
   32BGLCN   CT35416   0.981   6.424   1.260
   32BGLCN  HT135417   0.941   6.389   1.162
   32BGLCN  HT235418   0.969   6.343   1.335
   32BGLCN  HT335419   1.089   6.446   1.249
   32BGLCN   C335420   0.624   6.709   1.356
   32BGLCN   H335421   0.541   6.650   1.311
   32BGLCN   O335422   0.659   6.644   1.480
   32BGLCN   C435423   0.575   6.852   1.376
   32BGLCN   H435424   0.660   6.916   1.408
   32BGLCN   O435425   0.473   6.863   1.474
   32BGLCN  HO435426   0.516   6.871   1.560
   32BGLCN   C635427   0.466   7.043   1.241
   32BGLCN  H6135428   0.386   7.054   1.318
   32BGLCN  H6235429   0.545   7.118   1.265
   32BGLCN   O635430   0.410   7.072   1.113
   32BGLCN  HO635431   0.481   7.093   1.052
   33AGAL    C135432   0.555   6.564   1.534
   33AGAL    H135433   0.457   6.615   1.521
   33AGAL    C535434   0.664   6.354   1.493
   33AGAL    H535435   0.752   6.412   1.457
   33AGAL    O535436   0.547   6.435   1.471
   33AGAL    C235437   0.577   6.542   1.683
   33AGAL    H235438   0.491   6.480   1.717
   33AGAL    O235439   0.572   6.667   1.752
   33AGAL    C335440   0.704   6.464   1.708
   33AGAL    H335441   0.789   6.520   1.662
   33AGAL    O335442   0.734   6.450   1.847
   33AGAL   HO335443   0.722   6.358   1.870
   33AGAL    C435444   0.692   6.329   1.641
   33AGAL    H435445   0.790   6.278   1.648
   33AGAL    O435446   0.597   6.243   1.704
   33AGAL   HO435447   0.508   6.279   1.699
   33AGAL    C635448   0.661   6.228   1.408
   33AGAL   H6135449   0.690   6.254   1.304
   33AGAL   H6235450   0.737   6.157   1.447
   33AGAL    O635451   0.534   6.162   1.403
   33AGAL   HO635452   0.469   6.220   1.364
   34ARHM    C135453   0.502   6.660   1.874
   34ARHM    H135454   0.529   6.566   1.928
   34ARHM    C535455   0.315   6.780   1.787
   34ARHM    H535456   0.361   6.783   1.686
   34ARHM    O535457   0.360   6.662   1.854
   34ARHM    C235458   0.544   6.780   1.956
   34ARHM    H235459   0.655   6.778   1.964
   34ARHM    O235460   0.488   6.781   2.088
   34ARHM    C335461   0.504   6.907   1.885
   34ARHM    H335462   0.553   6.910   1.786
   34ARHM    O335463   0.547   7.023   1.957
   34ARHM   HO335464   0.505   7.098   1.915
   34ARHM    C435465   0.354   6.905   1.865
   34ARHM    H435466   0.304   6.901   1.964
   34ARHM    O435467   0.309   7.021   1.796
   34ARHM   HO435468   0.221   7.045   1.827
   34ARHM    C635469   0.163   6.762   1.769
   34ARHM   H6135470   0.113   6.755   1.868
   34ARHM   H6235471   0.120   6.848   1.712
   34ARHM   H6335472   0.141   6.669   1.713
   35ARHM    C135473   0.530   6.677   2.173
   35ARHM    H135474   0.636   6.651   2.153
   35ARHM    C535475   0.310   6.584   2.183
   35ARHM    H535476   0.273   6.661   2.112
   35ARHM    O535477   0.449   6.559   2.159
   35ARHM    C235478   0.516   6.731   2.313
   35ARHM    H235479   0.571   6.828   2.318
   35ARHM    O235480   0.569   6.645   2.415
   35ARHM    C335481   0.372   6.761   2.344
   35ARHM    H335482   0.334   6.837   2.272
   35ARHM    O335483   0.359   6.816   2.474
   35ARHM   HO335484   0.381   6.747   2.538
   35ARHM    C435485   0.289   6.634   2.326
   35ARHM    H435486   0.327   6.556   2.395
   35ARHM    O435487   0.151   6.656   2.354
   35ARHM   HO435488   0.145   6.708   2.434
   35ARHM    C635489   0.237   6.453   2.151
   35ARHM   H6135490   0.257   6.424   2.046
   35ARHM   H6235491   0.273   6.372   2.218
   35ARHM   H6335492   0.127   6.466   2.164
   36BMANN   C135493   0.709   6.632   2.415
   36BMANN   H135494   0.757   6.724   2.375
   36BMANN   C535495   0.891   6.500   2.337
   36BMANN   H535496   0.936   6.593   2.296
   36BMANN   O535497   0.749   6.517   2.338
   36BMANN   C235498   0.750   6.610   2.559
   36BMANN   H235499   0.723   6.704   2.613
   36BMANN    N35500   0.678   6.500   2.623
   36BMANN   HN35501   0.652   6.425   2.562
   36BMANN    C35502   0.648   6.495   2.753
   36BMANN    O35503   0.671   6.586   2.832
   36BMANN   CT35504   0.583   6.367   2.800
   36BMANN  HT135505   0.630   6.280   2.751
   36BMANN  HT235506   0.475   6.369   2.775
   36BMANN  HT335507   0.595   6.358   2.910
   36BMANN   C335508   0.901   6.597   2.564
   36BMANN   H335509   0.946   6.689   2.520
   36BMANN   O335510   0.950   6.587   2.697
   36BMANN  HO335511   0.967   6.674   2.732
   36BMANN   C435512   0.944   6.480   2.478
   36BMANN   H435513   0.899   6.387   2.520
   36BMANN   O435514   1.085   6.464   2.475
   36BMANN  HO435515   1.110   6.420   2.557
   36BMANN   C635516   0.927   6.388   2.240
   36BMANN  H6135517   0.871   6.401   2.146
   36BMANN  H6235518   1.036   6.394   2.215
   36BMANN   O635519   0.901   6.258   2.293
   36BMANN  HO635520   0.972   6.233   2.352
    1ECLIP HB6S35521   0.222   1.271  11.800
    1ECLIP  OB635522   0.081   1.178  11.921
    1ECLIP  CB635523   0.193   1.168  11.829
    1ECLIP HB6R35524   0.281   1.121  11.876
    1ECLIP  CB535525   0.161   1.091  11.702
    1ECLIP  OB535526   0.040   1.151  11.651
    1ECLIP  HB535527   0.141   0.985  11.728
    1ECLIP  CB135528   8.137   1.082  11.535
    1ECLIP  HB135529   8.125   0.975  11.559
    1ECLIP  OA635530   8.010   1.128  11.493
    1ECLIP  CA635531   7.994   1.270  11.495
    1ECLIP HA6R35532   8.090   1.322  11.477
    1ECLIP HA6S35533   7.960   1.300  11.597
    1ECLIP  CB435534   0.273   1.099  11.597
    1ECLIP  HB435535   0.299   1.205  11.578
    1ECLIP  OB435536   0.384   1.025  11.649
    1ECLIP   PB35537   0.545   1.055  11.635
    1ECLIP OPB435538   0.624   0.937  11.689
    1ECLIP OPB335539   0.578   1.189  11.698
    1ECLIP OPB235540   0.582   1.079  11.490
    1ECLIP  CB335541   0.224   1.032  11.469
    1ECLIP  OB335542   0.316   1.058  11.363
    1ECLIP  HB335543   0.205   0.925  11.488
    1ECLIP  C7135544   0.388   0.955  11.316
    1ECLIP  O7135545   0.369   0.839  11.348
    1ECLIP  C7235546   0.445   0.993  11.179
    1ECLIP H72R35547   0.361   1.003  11.107
    1ECLIP H72S35548   0.510   0.908  11.148
    1ECLIP  CB235549   0.094   1.095  11.423
    1ECLIP  HB235550   0.114   1.203  11.406
    1ECLIP  NB235551   0.044   1.033  11.302
    1ECLIP HNB235552   0.017   0.937  11.307
    1ECLIP  CA435553   7.816   1.201  11.322
    1ECLIP  HA435554   7.892   1.140  11.270
    1ECLIP  OA435555   7.749   1.121  11.419
    1ECLIP HOA435556   7.814   1.105  11.488
    1ECLIP  CA535557   7.890   1.315  11.392
    1ECLIP  HA535558   7.817   1.380  11.443
    1ECLIP  OA535559   7.962   1.393  11.296
    1ECLIP  CA135560   7.881   1.448  11.192
    1ECLIP  HA135561   7.951   1.498  11.122
    1ECLIP  OA135562   7.788   1.539  11.247
    1ECLIP OPA235563   7.647   1.748  11.269
    1ECLIP OPA335564   7.878   1.778  11.277
    1ECLIP OPA435565   7.788   1.725  11.061
    1ECLIP   PA35566   7.773   1.694  11.208
    1ECLIP  CA335567   7.722   1.259  11.216
    1ECLIP  HA335568   7.660   1.334  11.269
    1ECLIP  OA335569   7.624   1.170  11.160
    1ECLIP  C3135570   7.657   1.065  11.083
    1ECLIP  O3135571   7.617   1.059  10.967
    1ECLIP  C3235572   7.619   0.942  11.168
    1ECLIP H32R35573   7.536   0.892  11.113
    1ECLIP H32S35574   7.578   0.975  11.266
    1ECLIP  CA235575   7.808   1.337  11.116
    1ECLIP  HA235576   7.885   1.266  11.078
    1ECLIP  NA235577   7.739   1.390  11.001
    1ECLIP HNA235578   7.641   1.405  11.010
    1ECLIP  C7335579   0.528   1.122  11.184
    1ECLIP H73R35580   0.597   1.118  11.271
    1ECLIP  O7335581   0.437   1.231  11.189
    1ECLIP  C8135582   0.461   1.332  11.268
    1ECLIP  O8135583   0.551   1.339  11.353
    1ECLIP  C8235584   0.370   1.449  11.224
    1ECLIP H82R35585   0.419   1.545  11.254
    1ECLIP H82S35586   0.274   1.438  11.279
    1ECLIP  C8335587   0.340   1.449  11.071
    1ECLIP H83R35588   0.292   1.353  11.044
    1ECLIP H83S35589   0.436   1.456  11.015
    1ECLIP  C8435590   0.246   1.560  11.021
    1ECLIP H84R35591   0.295   1.659  11.031
    1ECLIP H84S35592   0.153   1.560  11.082
    1ECLIP  C8535593   0.207   1.536  10.874
    1ECLIP H85R35594   0.148   1.441  10.869
    1ECLIP H85S35595   0.300   1.520  10.815
    1ECLIP  C8635596   0.124   1.647  10.806
    1ECLIP H86R35597   0.191   1.734  10.789
    1ECLIP H86S35598   0.043   1.678  10.875
    1ECLIP  C8735599   0.063   1.605  10.671
    1ECLIP H87R35600   0.016   1.694  10.623
    1ECLIP H87S35601   8.126   1.531  10.690
    1ECLIP  C8835602   0.164   1.543  10.574
    1ECLIP H88R35603   0.202   1.449  10.620
    1ECLIP H88S35604   0.251   1.611  10.562
    1ECLIP  C8935605   0.108   1.507  10.436
    1ECLIP H89R35606   0.007   1.460  10.445
    1ECLIP H89S35607   0.177   1.431  10.392
    1ECLIP C81035608   0.102   1.625  10.339
    1ECLIPH810R35609   0.195   1.684  10.350
    1ECLIPH810S35610   0.016   1.689  10.368
    1ECLIP C81135611   0.086   1.585  10.191
    1ECLIPH811R35612   0.063   1.678  10.135
    1ECLIPH811S35613   8.143   1.516  10.182
    1ECLIP C81235614   0.209   1.519  10.127
    1ECLIPH812R35615   0.183   1.486  10.025
    1ECLIPH812S35616   0.237   1.428  10.184
    1ECLIP C81335617   0.333   1.610  10.118
    1ECLIPH813R35618   0.307   1.701  10.060
    1ECLIPH813S35619   0.362   1.643  10.220
    1ECLIP C81435620   0.453   1.541  10.053
    1ECLIPH814R35621   0.430   1.511   9.949
    1ECLIPH814S35622   0.480   1.450  10.110
    1ECLIPH814T35623   0.541   1.609  10.052
    1ECLIP  C7435624   0.617   1.143  11.060
    1ECLIP H74R35625   0.694   1.062  11.055
    1ECLIP H74S35626   0.672   1.238  11.075
    1ECLIP  C7535627   0.546   1.153  10.923
    1ECLIP H75R35628   0.608   1.219  10.859
    1ECLIP H75S35629   0.447   1.202  10.934
    1ECLIP  C7635630   0.533   1.019  10.849
    1ECLIP H76R35631   0.457   0.954  10.899
    1ECLIP H76S35632   0.630   0.967  10.853
    1ECLIP  C7735633   0.495   1.039  10.702
    1ECLIP H77R35634   0.568   1.108  10.656
    1ECLIP H77S35635   0.394   1.086  10.696
    1ECLIP  C7835636   0.494   0.907  10.622
    1ECLIP H78R35637   0.598   0.868  10.619
    1ECLIP H78S35638   0.431   0.833  10.674
    1ECLIP  C7935639   0.443   0.922  10.477
    1ECLIP H79R35640   0.334   0.945  10.479
    1ECLIP H79S35641   0.456   0.824  10.425
    1ECLIP C71035642   0.514   1.031  10.396
    1ECLIPH710R35643   0.496   1.130  10.442
    1ECLIPH710S35644   0.623   1.012  10.398
    1ECLIP C71135645   0.467   1.037  10.249
    1ECLIPH711R35646   0.482   0.937  10.203
    1ECLIPH711S35647   0.359   1.060  10.247
    1ECLIP C71235648   0.544   1.143  10.169
    1ECLIPH712R35649   0.651   1.115  10.166
    1ECLIPH712S35650   0.537   1.240  10.223
    1ECLIP C71335651   0.494   1.163  10.025
    1ECLIPH713R35652   0.389   1.201  10.030
    1ECLIPH713S35653   0.555   1.242   9.977
    1ECLIP C71435654   0.497   1.037   9.938
    1ECLIPH714R35655   0.600   0.997   9.932
    1ECLIPH714S35656   0.431   0.958   9.980
    1ECLIPH714T35657   0.462   1.060   9.835
    1ECLIP  C5135658   0.037   1.094  11.183
    1ECLIP  O5135659   0.065   1.212  11.168
    1ECLIP  C5235660   8.134   1.007  11.069
    1ECLIP H52R35661   0.054   0.917  11.062
    1ECLIP H52S35662   8.029   0.976  11.092
    1ECLIP  C5335663   8.136   1.083  10.936
    1ECLIP H53R35664   8.085   1.180  10.945
    1ECLIP  O5335665   8.075   0.996  10.840
    1ECLIP  C6135666   7.951   1.027  10.807
    1ECLIP  O6135667   7.878   1.101  10.871
    1ECLIP  C6235668   7.902   0.924  10.705
    1ECLIP H62R35669   7.861   0.837  10.761
    1ECLIP H62S35670   7.990   0.890  10.646
    1ECLIP  C6335671   7.793   0.980  10.611
    1ECLIP H63R35672   7.832   1.070  10.560
    1ECLIP H63S35673   7.705   1.011  10.671
    1ECLIP  C6435674   7.748   0.880  10.503
    1ECLIP H64R35675   7.669   0.930  10.442
    1ECLIP H64S35676   7.702   0.791  10.551
    1ECLIP  C6535677   7.862   0.835  10.410
    1ECLIP H65R35678   7.934   0.774  10.469
    1ECLIP H65S35679   7.916   0.924  10.373
    1ECLIP  C6635680   7.817   0.750  10.290
    1ECLIP H66R35681   7.771   0.656  10.327
    1ECLIP H66S35682   7.907   0.722  10.231
    1ECLIP  C6735683   7.718   0.820  10.195
    1ECLIP H67R35684   7.620   0.834  10.245
    1ECLIP H67S35685   7.701   0.753  10.108
    1ECLIP  C6835686   7.768   0.956  10.144
    1ECLIP H68R35687   7.871   0.942  10.106
    1ECLIP H68S35688   7.773   1.030  10.227
    1ECLIP  C6935689   7.681   1.011  10.031
    1ECLIP H69R35690   7.586   1.052  10.072
    1ECLIP H69S35691   7.653   0.928   9.963
    1ECLIP C61035692   7.754   1.118   9.949
    1ECLIPH610R35693   7.854   1.081   9.920
    1ECLIPH610S35694   7.769   1.207  10.014
    1ECLIP C61135695   7.678   1.161   9.823
    1ECLIPH611R35696   7.571   1.133   9.834
    1ECLIPH611S35697   7.681   1.272   9.817
    1ECLIP C61235698   7.735   1.105   9.693
    1ECLIPH612R35699   7.844   1.122   9.687
    1ECLIPH612S35700   7.716   0.995   9.686
    1ECLIPH612T35701   7.686   1.153   9.605
    1ECLIP  C5435702   0.135   1.110  10.885
    1ECLIP H54R35703   0.191   1.014  10.875
    1ECLIP H54S35704   0.189   1.172  10.961
    1ECLIP  C5535705   0.138   1.186  10.752
    1ECLIP H55R35706   0.237   1.236  10.740
    1ECLIP H55S35707   0.061   1.266  10.754
    1ECLIP  C5635708   0.115   1.096  10.630
    1ECLIP H56R35709   0.019   1.041  10.637
    1ECLIP H56S35710   0.195   1.020  10.623
    1ECLIP  C5735711   0.108   1.179  10.502
    1ECLIP H57R35712   0.207   1.225  10.484
    1ECLIP H57S35713   0.033   1.260  10.517
    1ECLIP  C5835714   0.066   1.096  10.381
    1ECLIP H58R35715   0.135   1.010  10.369
    1ECLIP H58S35716   8.107   1.056  10.395
    1ECLIP  C5935717   0.071   1.183  10.255
    1ECLIP H59R35718   0.172   1.229  10.251
    1ECLIP H59S35719   8.141   1.265  10.261
    1ECLIP C51035720   0.051   1.102  10.127
    1ECLIPH510R35721   8.090   1.066  10.118
    1ECLIPH510S35722   0.117   1.012  10.132
    1ECLIP C51135723   0.092   1.184  10.005
    1ECLIPH511R35724   0.016   1.263   9.984
    1ECLIPH511S35725   0.187   1.237  10.028
    1ECLIP C51235726   0.115   1.096   9.883
    1ECLIPH512R35727   0.171   1.157   9.808
    1ECLIPH512S35728   0.179   1.009   9.908
    1ECLIP C51335729   8.128   1.052   9.819
    1ECLIPH513R35730   8.051   1.128   9.842
    1ECLIPH513S35731   8.096   0.959   9.871
    1ECLIP C51435732   8.137   1.034   9.668
    1ECLIPH514R35733   0.067   0.955   9.642
    1ECLIPH514S35734   8.038   1.005   9.626
    1ECLIPH514T35735   0.024   1.129   9.620
    1ECLIP  C3335736   7.731   0.839  11.189
    1ECLIP H33R35737   7.691   0.751  11.244
    1ECLIP  O3335738   7.831   0.900  11.268
    1ECLIP HO3335739   7.797   0.958  11.336
    1ECLIP  C3435740   7.797   0.790  11.058
    1ECLIP H34R35741   7.837   0.879  11.006
    1ECLIP H34S35742   7.719   0.745  10.992
    1ECLIP  C3535743   7.913   0.690  11.078
    1ECLIP H35R35744   7.875   0.592  11.114
    1ECLIP H35S35745   7.980   0.730  11.157
    1ECLIP  C3635746   7.997   0.674  10.951
    1ECLIP H36R35747   8.020   0.776  10.914
    1ECLIP H36S35748   7.939   0.622  10.872
    1ECLIP  C3735749   8.134   0.607  10.971
    1ECLIP H37R35750   8.123   0.496  10.979
    1ECLIP H37S35751   0.034   0.642  11.067
    1ECLIP  C3835752   0.089   0.640  10.858
    1ECLIP H38R35753   0.115   0.748  10.864
    1ECLIP H38S35754   0.183   0.583  10.874
    1ECLIP  C3935755   0.035   0.611  10.717
    1ECLIP H39R35756   8.089   0.674  10.700
    1ECLIP H39S35757   0.005   0.505  10.710
    1ECLIP C31035758   0.137   0.643  10.606
    1ECLIPH310R35759   0.217   0.566  10.606
    1ECLIPH310S35760   0.185   0.741  10.627
    1ECLIP C31135761   0.070   0.649  10.468
    1ECLIPH311R35762   0.011   0.556  10.451
    1ECLIPH311S35763   8.143   0.735  10.469
    1ECLIP C31235764   0.168   0.669  10.352
    1ECLIPH312R35765   0.234   0.755  10.375
    1ECLIPH312S35766   0.233   0.579  10.343
    1ECLIP C31335767   0.097   0.696  10.219
    1ECLIPH313R35768   0.028   0.611  10.198
    1ECLIPH313S35769   0.034   0.787  10.230
    1ECLIP C31435770   0.193   0.714  10.102
    1ECLIPH314R35771   0.253   0.622  10.086
    1ECLIPH314S35772   0.137   0.736  10.008
    1ECLIPH314T35773   0.263   0.798  10.121
    1ECLIP  C1135774   7.806   1.437  10.894
    1ECLIP  O1135775   7.926   1.416  10.877
    1ECLIP  C1235776   7.731   1.526  10.799
    1ECLIP H12R35777   7.763   1.630  10.819
    1ECLIP H12S35778   7.622   1.517  10.816
    1ECLIP  C1335779   7.767   1.489  10.654
    1ECLIP H13R35780   7.877   1.490  10.640
    1ECLIP  O1335781   7.711   1.590  10.572
    1ECLIP HO1335782   7.736   1.581  10.479
    1ECLIP  C1435783   7.710   1.353  10.611
    1ECLIP H14R35784   7.605   1.347  10.647
    1ECLIP H14S35785   7.767   1.273  10.662
    1ECLIP  C1535786   7.709   1.327  10.459
    1ECLIP H15R35787   7.646   1.404  10.410
    1ECLIP H15S35788   7.660   1.229  10.439
    1ECLIP  C1635789   7.848   1.325  10.393
    1ECLIP H16R35790   7.895   1.226  10.412
    1ECLIP H16S35791   7.915   1.402  10.436
    1ECLIP  C1735792   7.839   1.349  10.241
    1ECLIP H17R35793   7.749   1.297  10.203
    1ECLIP H17S35794   7.928   1.303  10.193
    1ECLIP  C1835795   7.833   1.498  10.204
    1ECLIP H18R35796   7.751   1.546  10.260
    1ECLIP H18S35797   7.928   1.547  10.234
    1ECLIP  C1935798   7.809   1.523  10.054
    1ECLIP H19R35799   7.802   1.633  10.036
    1ECLIP H19S35800   7.711   1.478  10.026
    1ECLIP C11035801   7.918   1.466   9.961
    1ECLIPH110R35802   8.016   1.514   9.983
    1ECLIPH110S35803   7.929   1.357   9.981
    1ECLIP C11135804   7.882   1.483   9.813
    1ECLIPH111R35805   7.775   1.457   9.799
    1ECLIPH111S35806   7.893   1.590   9.783
    1ECLIP C11235807   7.966   1.393   9.722
    1ECLIPH112R35808   8.072   1.427   9.721
    1ECLIPH112S35809   7.965   1.290   9.764
    1ECLIP C11335810   7.909   1.386   9.580
    1ECLIPH113R35811   7.807   1.342   9.587
    1ECLIPH113S35812   7.899   1.490   9.542
    1ECLIP C11435813   7.989   1.304   9.479
    1ECLIPH114R35814   8.096   1.336   9.481
    1ECLIPH114S35815   7.985   1.196   9.504
    1ECLIPH114T35816   7.949   1.318   9.377
    2AKDO    C135817   0.087   0.952  12.003
    2AKDO   O1135818   0.174   0.874  12.050
    2AKDO   O1235819   8.120   0.918  11.953
    2AKDO    C235820   0.100   1.104  12.040
    2AKDO    C635821   0.235   1.277  12.138
    2AKDO    H635822   0.209   1.336  12.047
    2AKDO    O635823   0.226   1.136  12.103
    2AKDO    C335824   8.133   1.142  12.139
    2AKDO   H3135825   8.141   1.073  12.226
    2AKDO   H3235826   8.035   1.122  12.090
    2AKDO    C435827   8.136   1.285  12.183
    2AKDO    H435828   8.124   1.350  12.093
    2AKDO    O435829   8.030   1.310  12.277
    2AKDO    C535830   0.130   1.317  12.245
    2AKDO    H535831   0.132   1.428  12.251
    2AKDO    O535832   0.153   1.264  12.378
    2AKDO    C735833   0.381   1.310  12.165
    2AKDO    H735834   0.418   1.247  12.248
    2AKDO    O735835   0.396   1.449  12.197
    2AKDO   HO735836   0.471   1.474  12.143
    2AKDO    C835837   0.466   1.281  12.042
    2AKDO   H8135838   0.460   1.173  12.016
    2AKDO   H8235839   0.432   1.340  11.955
    2AKDO    O835840   0.603   1.313  12.071
    2AKDO   HO835841   0.656   1.277  11.999
    3AKDO    C135842   7.884   1.441  12.122
    3AKDO   O1135843   7.809   1.413  12.024
    3AKDO   O1235844   7.911   1.557  12.163
    3AKDO    C235845   7.896   1.329  12.232
    3AKDO    C635846   7.821   1.105  12.296
    3AKDO    H635847   7.925   1.081  12.327
    3AKDO    O635848   7.828   1.206  12.191
    3AKDO    C335849   7.822   1.382  12.356
    3AKDO   H3135850   7.719   1.410  12.326
    3AKDO   H3235851   7.872   1.474  12.392
    3AKDO    C435852   7.814   1.285  12.467
    3AKDO    H435853   7.917   1.263  12.504
    3AKDO    O435854   7.738   1.347  12.570
    3AKDO   HO435855   7.762   1.316  12.657
    3AKDO    C535856   7.746   1.159  12.418
    3AKDO    H535857   7.755   1.085  12.500
    3AKDO    O535858   7.607   1.180  12.393
    3AKDO   HO535859   7.587   1.261  12.439
    3AKDO    C735860   7.756   0.975  12.246
    3AKDO    H735861   7.652   0.999  12.213
    3AKDO    O735862   7.750   0.880  12.354
    3AKDO   HO735863   7.840   0.847  12.359
    3AKDO    C835864   7.830   0.912  12.130
    3AKDO   H8135865   7.846   0.986  12.049
    3AKDO   H8235866   7.931   0.876  12.159
    3AKDO    O835867   7.755   0.801  12.078
    3AKDO   HO835868   7.752   0.812  11.983
    4AHEP    C135869   0.239   1.342  12.463
    4AHEP    H135870   0.340   1.343  12.418
    4AHEP    C535871   0.072   1.493  12.542
    4AHEP    H535872   8.141   1.428  12.490
    4AHEP    O535873   0.197   1.479  12.472
    4AHEP    C235874   0.259   1.288  12.606
    4AHEP    H235875   0.285   1.180  12.596
    4AHEP    O235876   0.368   1.349  12.675
    4AHEP   HO235877   0.354   1.331  12.768
    4AHEP    C335878   0.133   1.299  12.688
    4AHEP    H335879   0.056   1.234  12.641
    4AHEP    O335880   0.163   1.256  12.825
    4AHEP    C435881   0.085   1.444  12.688
    4AHEP    H435882   0.155   1.508  12.746
    4AHEP    O435883   8.099   1.438  12.745
    4AHEP    P435884   8.029   1.546  12.846
    4AHEP  OP4235885   7.880   1.523  12.827
    4AHEP  OP4335886   8.069   1.685  12.803
    4AHEP  OP4435887   8.069   1.513  12.988
    4AHEP    C635888   0.023   1.638  12.522
    4AHEP    H635889   8.060   1.640  12.552
    4AHEP    O635890   0.095   1.727  12.608
    4AHEP   HO635891   0.044   1.721  12.689
    4AHEP    C735892   0.030   1.693  12.379
    4AHEP   H7135893   8.118   1.788  12.375
    4AHEP   H7235894   8.122   1.621  12.312
    4AHEP    O735895   0.164   1.715  12.328
    4AHEP   HO735896   0.208   1.635  12.360
    5AHEP    C135897   0.070   1.166  12.883
    5AHEP    H135898   8.118   1.179  12.828
    5AHEP    C535899   0.218   0.991  12.960
    5AHEP    H535900   0.298   1.066  12.944
    5AHEP    O535901   0.110   1.027  12.871
    5AHEP    C235902   0.033   1.191  13.029
    5AHEP    H235903   0.020   1.300  13.040
    5AHEP    O235904   8.053   1.128  13.063
    5AHEP   HO235905   7.990   1.200  13.066
    5AHEP    C335906   0.145   1.153  13.123
    5AHEP    H335907   0.236   1.209  13.094
    5AHEP    O335908   0.114   1.175  13.262
    5AHEP    C435909   0.171   1.006  13.104
    5AHEP    H435910   0.076   0.949  13.114
    5AHEP    O435911   0.270   0.961  13.197
    5AHEP    P435912   0.230   0.854  13.315
    5AHEP  OP4235913   0.306   0.892  13.439
    5AHEP  OP4335914   0.276   0.716  13.273
    5AHEP  OP4435915   0.080   0.848  13.343
    5AHEP    C635916   0.287   0.859  12.927
    5AHEP    H635917   0.379   0.852  12.989
    5AHEP    O635918   0.205   0.745  12.955
    5AHEP   HO635919   0.236   0.684  12.889
    5AHEP    C735920   0.325   0.861  12.780
    5AHEP   H7135921   0.430   0.825  12.772
    5AHEP   H7235922   0.326   0.964  12.738
    5AHEP    O735923   0.244   0.773  12.703
    6AHEP    C135924   0.129   0.832  12.648
    6AHEP    H135925   0.124   0.942  12.665
    6AHEP    C535926   0.151   0.674  12.474
    6AHEP    H535927   0.243   0.636  12.524
    6AHEP    O535928   0.132   0.813  12.507
    6AHEP    C235929   0.007   0.761  12.704
    6AHEP    H235930   0.010   0.777  12.813
    6AHEP    O235931   8.026   0.813  12.658
    6AHEP   HO235932   8.028   0.817  12.562
    6AHEP    C335933   0.019   0.613  12.677
    6AHEP    H335934   0.108   0.572  12.728
    6AHEP    O335935   8.046   0.550  12.732
    6AHEP   HO335936   8.046   0.459  12.701
    6AHEP    C435937   0.033   0.591  12.526
    6AHEP    H435938   8.083   0.618  12.474
    6AHEP    O435939   0.059   0.453  12.504
    6AHEP   HO435940   0.054   0.433  12.410
    6AHEP    C635941   0.185   0.670  12.325
    6AHEP    H635942   0.221   0.567  12.301
    6AHEP    O635943   0.071   0.701  12.244
    6AHEP   HO635944   0.105   0.758  12.174
    6AHEP    C735945   0.302   0.763  12.291
    6AHEP   H7135946   0.340   0.739  12.189
    6AHEP   H7235947   0.385   0.741  12.362
    6AHEP    O735948   0.275   0.904  12.298
    6AHEP   HO735949   0.248   0.929  12.210
    7AGLC    C135950   0.178   1.288  13.317
    7AGLC    H135951   0.273   1.312  13.265
    7AGLC    C535952   8.110   1.376  13.375
    7AGLC    H535953   8.066   1.283  13.332
    7AGLC    O535954   0.090   1.401  13.308
    7AGLC    C235955   0.209   1.264  13.464
    7AGLC    H235956   0.252   1.359  13.502
    7AGLC    O235957   0.313   1.167  13.482
    7AGLC   HO235958   0.288   1.078  13.455
    7AGLC    C335959   0.084   1.235  13.544
    7AGLC    H335960   0.037   1.142  13.505
    7AGLC    O335961   0.115   1.222  13.685
    7AGLC    C435962   8.136   1.354  13.522
    7AGLC    H435963   0.043   1.445  13.560
    7AGLC    O435964   8.011   1.344  13.591
    7AGLC   HO435965   8.009   1.417  13.653
    7AGLC    C635966   8.010   1.485  13.345
    7AGLC   H6135967   8.013   1.506  13.236
    7AGLC   H6235968   7.908   1.447  13.368
    7AGLC    O635969   8.032   1.606  13.417
    7AGLC   HO635970   8.048   1.673  13.350
    8AGLC    C135971   0.100   1.094  13.744
    8AGLC    H135972   0.011   1.043  13.702
    8AGLC    C535973   0.338   1.066  13.777
    8AGLC    H535974   0.353   1.166  13.731
    8AGLC    O535975   0.215   1.010  13.726
    8AGLC    C235976   0.083   1.113  13.894
    8AGLC    H235977   0.062   1.014  13.939
    8AGLC    O235978   8.121   1.205  13.929
    8AGLC    C335979   0.207   1.171  13.957
    8AGLC    H335980   0.227   1.270  13.910
    8AGLC    O335981   0.176   1.197  14.095
    8AGLC    C435982   0.326   1.084  13.928
    8AGLC    H435983   0.316   0.982  13.973
    8AGLC    O435984   0.444   1.145  13.980
    8AGLC   HO435985   0.466   1.220  13.924
    8AGLC    C635986   0.456   0.980  13.733
    8AGLC   H6135987   0.452   0.966  13.623
    8AGLC   H6235988   0.550   1.035  13.756
    8AGLC    O635989   0.462   0.852  13.798
    8AGLC   HO635990   0.555   0.830  13.809
    9AGAL    C135991   7.995   1.188  13.871
    9AGAL    H135992   8.001   1.189  13.760
    9AGAL    C535993   7.928   1.043  14.047
    9AGAL    H535994   8.028   1.058  14.092
    9AGAL    O535995   7.937   1.062  13.905
    9AGAL    C235996   7.908   1.303  13.922
    9AGAL    H235997   7.807   1.292  13.877
    9AGAL    O235998   7.964   1.427  13.870
    9AGAL    C335999   7.893   1.286  14.074
    9AGAL    H336000   7.995   1.292  14.118
    9AGAL    O336001   7.814   1.388  14.136
    9AGAL   HO336002   7.858   1.470  14.114
    9AGAL    C436003   7.835   1.149  14.105
    9AGAL    H436004   7.832   1.136  14.215
    9AGAL    O436005   7.700   1.135  14.058
    9AGAL   HO436006   7.703   1.086  13.976
    9AGAL    C636007   7.892   0.898  14.071
    9AGAL   H6136008   7.971   0.835  14.025
    9AGAL   H6236009   7.890   0.877  14.180
    9AGAL    O636010   7.766   0.860  14.014
    9AGAL   HO636011   7.776   0.857  13.919
   10AGAL    C136012   7.918   1.549  13.926
   10AGAL    H136013   7.807   1.542  13.935
   10AGAL    C536014   8.117   1.591  14.051
   10AGAL    H536015   0.019   1.512  13.989
   10AGAL    O536016   7.975   1.567  14.057
   10AGAL    C236017   7.944   1.675  13.843
   10AGAL    H236018   7.889   1.759  13.891
   10AGAL    O236019   7.889   1.658  13.711
   10AGAL   HO236020   7.957   1.672  13.645
   10AGAL    C336021   8.091   1.710  13.838
   10AGAL    H336022   8.144   1.627  13.786
   10AGAL    O336023   8.118   1.828  13.762
   10AGAL   HO336024   0.068   1.830  13.743
   10AGAL    C436025   8.143   1.723  13.980
   10AGAL    H436026   0.109   1.740  13.977
   10AGAL    O436027   8.084   1.831  14.053
   10AGAL   HO436028   8.130   1.912  14.030
   10AGAL    C636029   0.040   1.576  14.187
   10AGAL   H6136030   0.041   1.468  14.213
   10AGAL   H6236031   0.146   1.610  14.180
   10AGAL    O636032   8.117   1.647  14.292
   10AGAL   HO636033   8.114   1.740  14.268
   11BGLC    C136034   0.222   1.111  14.196
   11BGLC    H136035   0.331   1.125  14.211
   11BGLC    C536036   0.239   0.884  14.269
   11BGLC    H536037   0.348   0.900  14.286
   11BGLC    O536038   0.193   0.974  14.167
   11BGLC    C236039   0.145   1.149  14.322
   11BGLC    H236040   0.038   1.130  14.297
   11BGLC    O236041   0.156   1.287  14.359
   11BGLC   HO236042   0.231   1.323  14.312
   11BGLC    C336043   0.185   1.060  14.437
   11BGLC    H336044   0.291   1.078  14.462
   11BGLC    O336045   0.099   1.085  14.550
   11BGLC    C436046   0.163   0.917  14.397
   11BGLC    H436047   0.055   0.902  14.376
   11BGLC    O436048   0.200   0.830  14.503
   11BGLC   HO436049   0.263   0.875  14.559
   11BGLC    C636050   0.218   0.742  14.219
   11BGLC   H6136051   0.234   0.670  14.302
   11BGLC   H6236052   0.114   0.731  14.182
   11BGLC    O636053   0.310   0.708  14.115
   11BGLC   HO636054   0.261   0.685  14.035
   12BGLCN   C136055   0.165   1.126  14.668
   12BGLCN   H136056   0.210   1.226  14.652
   12BGLCN   C536057   0.333   1.063  14.824
   12BGLCN   H536058   0.377   1.164  14.812
   12BGLCN   O536059   0.264   1.028  14.703
   12BGLCN   C236060   0.059   1.130  14.777
   12BGLCN   H236061   0.020   1.027  14.789
   12BGLCN    N36062   8.094   1.220  14.742
   12BGLCN   HN36063   8.120   1.315  14.731
   12BGLCN    C36064   7.965   1.185  14.731
   12BGLCN    O36065   7.925   1.071  14.754
   12BGLCN   CT36066   7.868   1.292  14.691
   12BGLCN  HT136067   7.798   1.314  14.775
   12BGLCN  HT236068   7.809   1.259  14.604
   12BGLCN  HT336069   7.922   1.385  14.663
   12BGLCN   C336070   0.123   1.166  14.911
   12BGLCN   H336071   0.166   1.268  14.905
   12BGLCN   O336072   0.026   1.158  15.018
   12BGLCN   C436073   0.232   1.064  14.937
   12BGLCN   H436074   0.184   0.964  14.941
   12BGLCN   O436075   0.297   1.084  15.062
   12BGLCN  HO436076   0.353   1.161  15.056
   12BGLCN   C636077   0.447   0.966  14.849
   12BGLCN  H6136078   0.501   0.995  14.942
   12BGLCN  H6236079   0.405   0.864  14.864
   12BGLCN   O636080   0.541   0.959  14.743
   12BGLCN  HO636081   0.588   1.042  14.730
   13AGAL    C136082   0.040   1.255  15.119
   13AGAL    H136083   0.148   1.277  15.139
   13AGAL    C536084   7.978   1.357  15.051
   13AGAL    H536085   7.968   1.274  14.977
   13AGAL    O536086   8.118   1.378  15.079
   13AGAL    C236087   8.119   1.207  15.249
   13AGAL    H236088   8.127   1.292  15.321
   13AGAL    O236089   0.045   1.093  15.307
   13AGAL    C336090   7.971   1.182  15.225
   13AGAL    H336091   7.962   1.104  15.147
   13AGAL    O336092   7.901   1.136  15.339
   13AGAL   HO336093   7.808   1.152  15.322
   13AGAL    C436094   7.906   1.310  15.175
   13AGAL    H436095   7.802   1.287  15.145
   13AGAL    O436096   7.900   1.413  15.275
   13AGAL   HO436097   7.989   1.443  15.297
   13AGAL    C636098   7.911   1.477  14.987
   13AGAL   H6136099   7.948   1.491  14.883
   13AGAL   H6236100   7.801   1.459  14.980
   13AGAL    O636101   7.933   1.599  15.058
   13AGAL   HO636102   7.961   1.578  15.148
   14ARHM    C136103   0.103   1.112  15.435
   14ARHM    H136104   0.146   1.213  15.441
   14ARHM    C536105   0.170   0.884  15.463
   14ARHM    H536106   0.136   0.856  15.360
   14ARHM    O536107   0.211   1.021  15.463
   14ARHM    C236108   8.140   1.096  15.541
   14ARHM    H236109   8.059   1.170  15.523
   14ARHM    O236110   0.038   1.109  15.679
   14ARHM    C336111   8.089   0.956  15.532
   14ARHM    H336112   8.056   0.936  15.428
   14ARHM    O336113   7.975   0.938  15.615
   14ARHM   HO336114   7.995   0.977  15.701
   14ARHM    C436115   0.058   0.861  15.564
   14ARHM    H436116   0.100   0.883  15.665
   14ARHM    O436117   0.015   0.724  15.567
   14ARHM   HO436118   8.112   0.713  15.650
   14ARHM    C636119   0.298   0.806  15.494
   14ARHM   H6136120   0.376   0.830  15.419
   14ARHM   H6236121   0.337   0.834  15.594
   14ARHM   H6336122   0.280   0.696  15.493
   15ARHM    C136123   0.091   1.232  15.718
   15ARHM    H136124   0.056   1.313  15.651
   15ARHM    C536125   0.287   1.128  15.809
   15ARHM    H536126   0.253   1.028  15.775
   15ARHM    O536127   0.235   1.229  15.720
   15ARHM    C236128   0.040   1.259  15.857
   15ARHM    H236129   8.073   1.254  15.853
   15ARHM    O236130   0.076   1.395  15.885
   15ARHM    C336131   0.088   1.153  15.953
   15ARHM    H336132   0.055   1.055  15.914
   15ARHM    O336133   0.025   1.173  16.081
   15ARHM    C436134   0.240   1.152  15.953
   15ARHM    H436135   0.277   1.251  15.986
   15ARHM    O436136   0.291   1.051  16.040
   15ARHM   HO436137   0.385   1.062  16.053
   15ARHM    C636138   0.440   1.134  15.792
   15ARHM   H6136139   0.490   1.055  15.852
   15ARHM   H6236140   0.468   1.119  15.686
   15ARHM   H6336141   0.479   1.233  15.824
   16BMANN   C136142   0.053   1.454  16.011
   16BMANN   H136143   0.104   1.398  16.091
   16BMANN   C536144   8.042   1.552  16.166
   16BMANN   H536145   8.084   1.491  16.249
   16BMANN   O536146   8.057   1.480  16.041
   16BMANN   C236147   0.121   1.588  15.991
   16BMANN   H236148   0.228   1.567  15.970
   16BMANN    N36149   0.062   1.661  15.877
   16BMANN   HN36150   8.108   1.677  15.882
   16BMANN    C36151   0.130   1.699  15.768
   16BMANN    O36152   0.250   1.683  15.754
   16BMANN   CT36153   0.049   1.764  15.659
   16BMANN  HT136154   0.078   1.871  15.649
   16BMANN  HT236155   8.084   1.756  15.681
   16BMANN  HT336156   0.070   1.713  15.563
   16BMANN   C336157   0.114   1.664  16.121
   16BMANN   H336158   0.164   1.604  16.201
   16BMANN   O336159   0.186   1.786  16.107
   16BMANN  HO336160   0.279   1.766  16.120
   16BMANN   C436161   8.114   1.686  16.160
   16BMANN   H436162   8.065   1.752  16.084
   16BMANN   O436163   8.104   1.749  16.288
   16BMANN  HO436164   8.043   1.823  16.285
   16BMANN   C636165   7.894   1.576  16.192
   16BMANN  H6136166   7.880   1.634  16.286
   16BMANN  H6236167   7.852   1.637  16.109
   16BMANN   O636168   7.817   1.457  16.204
   16BMANN  HO636169   7.727   1.475  16.178
   17BGLCN   C136170   8.141   1.056  16.154
   17BGLCN   H136171   0.071   0.977  16.129
   17BGLCN   C536172   7.979   0.887  16.205
   17BGLCN   H536173   8.051   0.809  16.173
   17BGLCN   O536174   8.007   1.008  16.132
   17BGLCN   C236175   0.008   1.092  16.301
   17BGLCN   H236176   8.065   1.157  16.322
   17BGLCN    N36177   0.127   1.171  16.331
   17BGLCN   HN36178   0.206   1.161  16.271
   17BGLCN    C36179   0.131   1.263  16.428
   17BGLCN    O36180   0.033   1.290  16.497
   17BGLCN   CT36181   0.261   1.334  16.450
   17BGLCN  HT136182   0.265   1.427  16.389
   17BGLCN  HT236183   0.347   1.269  16.421
   17BGLCN  HT336184   0.272   1.362  16.557
   17BGLCN   C336185   8.134   0.964  16.381
   17BGLCN   H336186   0.064   0.891  16.340
   17BGLCN   O336187   0.019   0.985  16.521
   17BGLCN   C436188   7.996   0.910  16.354
   17BGLCN   H436189   7.921   0.985  16.389
   17BGLCN   O436190   7.972   0.787  16.421
   17BGLCN  HO436191   7.879   0.784  16.447
   17BGLCN   C636192   7.839   0.839  16.171
   17BGLCN  H6136193   7.817   0.746  16.227
   17BGLCN  H6236194   7.764   0.915  16.203
   17BGLCN   O636195   7.821   0.810  16.033
   17BGLCN  HO636196   7.828   0.892  15.983
   18AGAL    C136197   0.067   0.873  16.593
   18AGAL    H136198   8.128   0.800  16.609
   18AGAL    C536199   0.288   0.894  16.505
   18AGAL    H536200   0.256   0.981  16.443
   18AGAL    O536201   0.176   0.806  16.527
   18AGAL    C236202   0.115   0.918  16.729
   18AGAL    H236203   0.157   0.827  16.778
   18AGAL    O236204   0.004   0.963  16.810
   18AGAL    C336205   0.228   1.018  16.710
   18AGAL    H336206   0.191   1.102  16.648
   18AGAL    O336207   0.268   1.073  16.836
   18AGAL   HO336208   0.332   1.144  16.826
   18AGAL    C436209   0.343   0.950  16.637
   18AGAL    H436210   0.418   1.028  16.611
   18AGAL    O436211   0.413   0.852  16.714
   18AGAL   HO436212   0.378   0.852  16.803
   18AGAL    C636213   0.388   0.816  16.421
   18AGAL   H6136214   0.342   0.793  16.322
   18AGAL   H6236215   0.478   0.877  16.402
   18AGAL    O636216   0.425   0.692  16.483
   18AGAL   HO636217   0.457   0.714  16.570
   19ARHM    C136218   0.018   0.929  16.946
   19ARHM    H136219   0.125   0.936  16.975
   19ARHM    C536220   7.983   0.768  16.957
   19ARHM    H536221   7.958   0.780  16.849
   19ARHM    O536222   8.122   0.794  16.977
   19ARHM    C236223   8.080   1.026  17.029
   19ARHM    H236224   8.104   1.129  16.995
   19ARHM    O236225   8.109   1.016  17.170
   19ARHM    C336226   7.932   1.006  17.004
   19ARHM    H336227   7.912   1.020  16.895
   19ARHM    O336228   7.854   1.104  17.072
   19ARHM   HO336229   7.863   1.095  17.167
   19ARHM    C436230   7.898   0.863  17.041
   19ARHM    H436231   7.927   0.848  17.147
   19ARHM    O436232   7.759   0.831  17.033
   19ARHM   HO436233   7.735   0.812  16.942
   19ARHM    C636234   7.963   0.621  16.996
   19ARHM   H6136235   8.028   0.555  16.935
   19ARHM   H6236236   7.992   0.607  17.102
   19ARHM   H6336237   7.857   0.589  16.983
   20ARHM    C136238   0.098   1.054  17.198
   20ARHM    H136239   0.135   1.121  17.118
   20ARHM    C536240   0.161   0.853  17.311
   20ARHM    H536241   0.057   0.816  17.301
   20ARHM    O536242   0.190   0.944  17.204
   20ARHM    C236243   0.101   1.129  17.329
   20ARHM    H236244   0.016   1.201  17.328
   20ARHM    O236245   0.221   1.204  17.345
   20ARHM    C336246   0.075   1.038  17.445
   20ARHM    H336247   8.117   0.993  17.436
   20ARHM    O336248   0.084   1.118  17.562
   20ARHM    C436249   0.176   0.926  17.444
   20ARHM    H436250   0.279   0.969  17.449
   20ARHM    O436251   0.159   0.838  17.555
   20ARHM   HO436252   0.203   0.755  17.536
   20ARHM    C636253   0.255   0.732  17.294
   20ARHM   H6136254   0.361   0.763  17.303
   20ARHM   H6236255   0.233   0.653  17.369
   20ARHM   H6336256   0.241   0.688  17.193
   21BMANN   C136257   0.228   1.316  17.261
   21BMANN   H136258   0.135   1.329  17.200
   21BMANN   C536259   0.351   1.415  17.083
   21BMANN   H536260   0.256   1.427  17.026
   21BMANN   O536261   0.339   1.303  17.172
   21BMANN   C236262   0.245   1.436  17.350
   21BMANN   H236263   0.151   1.447  17.408
   21BMANN    N36264   0.352   1.414  17.447
   21BMANN   HN36265   0.410   1.336  17.427
   21BMANN    C36266   0.368   1.481  17.562
   21BMANN    O36267   0.299   1.579  17.590
   21BMANN   CT36268   0.473   1.430  17.656
   21BMANN  HT136269   0.567   1.489  17.643
   21BMANN  HT236270   0.494   1.322  17.636
   21BMANN  HT336271   0.438   1.440  17.760
   21BMANN   C336272   0.259   1.559  17.261
   21BMANN   H336273   0.168   1.567  17.199
   21BMANN   O336274   0.267   1.679  17.337
   21BMANN  HO336275   0.303   1.657  17.423
   21BMANN   C436276   0.376   1.540  17.166
   21BMANN   H436277   0.468   1.523  17.226
   21BMANN   O436278   0.398   1.653  17.084
   21BMANN  HO436279   0.382   1.731  17.137
   21BMANN   C636280   0.461   1.390  16.982
   21BMANN  H6136281   0.449   1.456  16.894
   21BMANN  H6236282   0.559   1.415  17.029
   21BMANN   O636283   0.464   1.253  16.938
   21BMANN  HO636284   0.453   1.199  17.016
   22BGLCN   C136285   8.135   1.085  17.661
   22BGLCN   H136286   8.116   0.976  17.666
   22BGLCN   C536287   7.920   1.140  17.747
   22BGLCN   H536288   7.903   1.031  17.761
   22BGLCN   O536289   8.015   1.158  17.640
   22BGLCN   C236290   0.060   1.133  17.786
   22BGLCN   H236291   0.080   1.242  17.775
   22BGLCN    N36292   0.188   1.066  17.801
   22BGLCN   HN36293   0.200   0.984  17.745
   22BGLCN    C36294   0.291   1.114  17.871
   22BGLCN    O36295   0.286   1.221  17.931
   22BGLCN   CT36296   0.416   1.030  17.872
   22BGLCN  HT136297   0.481   1.058  17.787
   22BGLCN  HT236298   0.390   0.922  17.866
   22BGLCN  HT336299   0.471   1.048  17.967
   22BGLCN   C336300   8.108   1.114  17.903
   22BGLCN   H336301   8.079   1.007  17.901
   22BGLCN   O336302   0.034   1.142  18.026
   22BGLCN   C436303   7.983   1.196  17.874
   22BGLCN   H436304   8.014   1.301  17.854
   22BGLCN   O436305   7.889   1.200  17.980
   22BGLCN  HO436306   7.836   1.279  17.967
   22BGLCN   C636307   7.787   1.199  17.707
   22BGLCN  H6136308   7.711   1.177  17.785
   22BGLCN  H6236309   7.795   1.309  17.697
   22BGLCN   O636310   7.742   1.144  17.583
   22BGLCN  HO636311   7.805   1.165  17.513
   23AGAL    C136312   8.128   1.079  18.142
   23AGAL    H136313   8.035   1.130  18.172
   23AGAL    C536314   0.067   0.862  18.088
   23AGAL    H536315   0.124   0.912  18.007
   23AGAL    O536316   8.094   0.941  18.118
   23AGAL    C236317   0.080   1.088  18.260
   23AGAL    H236318   0.028   1.050  18.350
   23AGAL    O236319   0.121   1.225  18.278
   23AGAL    C336320   0.203   1.002  18.237
   23AGAL    H336321   0.260   1.043  18.151
   23AGAL    O336322   0.288   1.003  18.351
   23AGAL   HO336323   0.250   0.940  18.412
   23AGAL    C436324   0.160   0.858  18.208
   23AGAL    H436325   0.250   0.799  18.182
   23AGAL    O436326   0.096   0.795  18.319
   23AGAL   HO436327   0.047   0.723  18.280
   23AGAL    C636328   0.027   0.728  18.028
   23AGAL   H6136329   8.112   0.747  17.936
   23AGAL   H6236330   0.118   0.672  17.997
   23AGAL    O636331   8.093   0.647  18.116
   23AGAL   HO636332   8.043   0.584  18.062
   24ARHM    C136333   0.051   1.300  18.372
   24ARHM    H136334   8.091   1.260  18.378
   24ARHM    C536335   0.161   1.508  18.332
   24ARHM    H536336   0.227   1.461  18.256
   24ARHM    O536337   0.036   1.438  18.336
   24ARHM    C236338   0.117   1.286  18.506
   24ARHM    H236339   0.135   1.178  18.527
   24ARHM    O236340   0.032   1.341  18.608
   24ARHM    C336341   0.251   1.356  18.505
   24ARHM    H336342   0.316   1.309  18.428
   24ARHM    O336343   0.318   1.342  18.630
   24ARHM   HO336344   0.390   1.405  18.631
   24ARHM    C436345   0.230   1.501  18.468
   24ARHM    H436346   0.164   1.548  18.544
   24ARHM    O436347   0.353   1.574  18.466
   24ARHM   HO436348   0.336   1.668  18.470
   24ARHM    C636349   0.129   1.651  18.286
   24ARHM   H6136350   0.223   1.708  18.269
   24ARHM   H6236351   0.073   1.649  18.190
   24ARHM   H6336352   0.068   1.705  18.362
   25ARHM    C136353   8.074   1.256  18.651
   25ARHM    H136354   8.061   1.172  18.579
   25ARHM    C536355   7.950   1.430  18.755
   25ARHM    H536356   8.029   1.504  18.729
   25ARHM    O536357   7.948   1.325  18.656
   25ARHM    C236358   8.113   1.197  18.784
   25ARHM    H236359   0.071   1.154  18.776
   25ARHM    O236360   8.021   1.096  18.830
   25ARHM    C336361   8.117   1.308  18.885
   25ARHM    H336362   0.047   1.384  18.850
   25ARHM    O336363   0.016   1.256  19.010
   25ARHM    C436364   7.980   1.372  18.892
   25ARHM    H436365   7.905   1.293  18.915
   25ARHM    O436366   7.971   1.469  18.996
   25ARHM   HO436367   7.879   1.493  19.008
   25ARHM    C636368   7.815   1.503  18.746
   25ARHM   H6136369   7.793   1.534  18.641
   25ARHM   H6236370   7.732   1.437  18.779
   25ARHM   H6336371   7.816   1.594  18.809
   26BMANN   C136372   8.040   0.969  18.772
   26BMANN   H136373   0.003   0.951  18.746
   26BMANN   C536374   7.971   0.824  18.596
   26BMANN   H536375   8.078   0.812  18.567
   26BMANN   O536376   7.956   0.953  18.657
   26BMANN   C236377   7.993   0.867  18.874
   26BMANN   H236378   8.060   0.877  18.962
   26BMANN    N36379   7.854   0.889  18.912
   26BMANN   HN36380   7.792   0.912  18.838
   26BMANN    C36381   7.802   0.870  19.033
   26BMANN    O36382   7.871   0.846  19.132
   26BMANN   CT36383   7.653   0.881  19.044
   26BMANN  HT136384   7.605   0.848  18.950
   26BMANN  HT236385   7.626   0.987  19.064
   26BMANN  HT336386   7.617   0.817  19.127
   26BMANN   C336387   8.017   0.727  18.818
   26BMANN   H336388   8.124   0.717  18.790
   26BMANN   O336389   7.990   0.628  18.917
   26BMANN  HO336390   8.044   0.647  18.993
   26BMANN   C436391   7.933   0.713  18.695
   26BMANN   H436392   7.826   0.723  18.723
   26BMANN   O436393   7.947   0.584  18.635
   26BMANN  HO436394   7.884   0.525  18.676
   26BMANN   C636395   7.889   0.824  18.468
   26BMANN  H6136396   7.883   0.928  18.428
   26BMANN  H6236397   7.940   0.763  18.391
   26BMANN   O636398   7.757   0.773  18.488
   26BMANN  HO636399   7.765   0.683  18.520
   27BGLCN   C136400   0.106   1.339  19.078
   27BGLCN   H136401   0.084   1.446  19.059
   27BGLCN   C536402   0.335   1.387  19.113
   27BGLCN   H536403   0.309   1.494  19.100
   27BGLCN   O536404   0.239   1.308  19.041
   27BGLCN   C236405   0.083   1.307  19.223
   27BGLCN   H236406   0.103   1.199  19.239
   27BGLCN    N36407   8.084   1.332  19.247
   27BGLCN   HN36408   8.040   1.378  19.170
   27BGLCN    C36409   8.004   1.267  19.333
   27BGLCN    O36410   8.043   1.207  19.432
   27BGLCN   CT36411   7.858   1.269  19.299
   27BGLCN  HT136412   7.826   1.369  19.262
   27BGLCN  HT236413   7.798   1.242  19.388
   27BGLCN  HT336414   7.838   1.194  19.219
   27BGLCN   C336415   0.182   1.386  19.307
   27BGLCN   H336416   0.165   1.494  19.290
   27BGLCN   O336417   0.153   1.352  19.444
   27BGLCN   C436418   0.324   1.354  19.261
   27BGLCN   H436419   0.342   1.245  19.274
   27BGLCN   O436420   0.425   1.423  19.333
   27BGLCN  HO436421   0.413   1.518  19.325
   27BGLCN   C636422   0.471   1.368  19.049
   27BGLCN  H6136423   0.549   1.424  19.105
   27BGLCN  H6236424   0.499   1.260  19.049
   27BGLCN   O636425   0.468   1.417  18.914
   27BGLCN  HO636426   0.551   1.399  18.869
   28AGAL    C136427   0.219   1.422   0.074
   28AGAL    H136428   0.323   1.385   0.085
   28AGAL    C536429   0.088   1.622   0.043
   28AGAL    H536430   0.033   1.570  19.434
   28AGAL    O536431   0.221   1.565   0.050
   28AGAL    C236432   0.147   1.395   0.205
   28AGAL    H236433   0.199   1.459   0.279
   28AGAL    O236434   0.149   1.258   0.251
   28AGAL    C336435   0.005   1.447   0.191
   28AGAL    H336436   8.104   1.400   0.101
   28AGAL    O336437   8.067   1.407   0.299
   28AGAL   HO336438   8.079   1.312   0.306
   28AGAL    C436439   0.007   1.597   0.170
   28AGAL    H436440   8.047   1.630   0.151
   28AGAL    O436441   0.055   1.670   0.282
   28AGAL   HO436442   0.002   1.749   0.290
   28AGAL    C636443   0.094   1.768   0.001
   28AGAL   H6136444   0.122   1.773  19.366
   28AGAL   H6236445   8.138   1.815   0.011
   28AGAL    O636446   0.190   1.844   0.074
   28AGAL   HO636447   0.196   1.811   0.164
   29ARHM    C136448   0.186   1.250   0.388
   29ARHM    H136449   0.136   1.334   0.441
   29ARHM    C536450   0.400   1.156   0.342
   29ARHM    H536451   0.374   1.152   0.234
   29ARHM    O536452   0.327   1.263   0.404
   29ARHM    C236453   0.140   1.120   0.455
   29ARHM    H236454   0.032   1.106   0.432
   29ARHM    O236455   0.157   1.123   0.599
   29ARHM    C336456   0.213   1.003   0.394
   29ARHM    H336457   0.188   0.997   0.286
   29ARHM    O336458   0.173   0.880   0.455
   29ARHM   HO336459   0.230   0.811   0.421
   29ARHM    C436460   0.363   1.024   0.408
   29ARHM    H436461   0.389   1.030   0.516
   29ARHM    O436462   0.437   0.915   0.351
   29ARHM   HO436463   0.488   0.948   0.277
   29ARHM    C636464   0.549   1.192   0.354
   29ARHM   H6136465   0.567   1.293   0.311
   29ARHM   H6236466   0.578   1.193   0.461
   29ARHM   H6336467   0.613   1.119   0.300
   30ARHM    C136468   0.051   1.179   0.672
   30ARHM    H136469   8.099   1.133   0.639
   30ARHM    C536470   0.169   1.386   0.694
   30ARHM    H536471   0.254   1.343   0.637
   30ARHM    O536472   0.046   1.322   0.655
   30ARHM    C236473   0.069   1.150   0.821
   30ARHM    H236474   0.083   1.040   0.832
   30ARHM    O236475   8.094   1.191   0.893
   30ARHM    C336476   0.198   1.217   0.869
   30ARHM    H336477   0.280   1.173   0.809
   30ARHM    O336478   0.229   1.185   1.007
   30ARHM    C436479   0.196   1.365   0.842
   30ARHM    H436480   0.118   1.416   0.902
   30ARHM    O436481   0.322   1.423   0.872
   30ARHM   HO436482   0.379   1.358   0.914
   30ARHM    C636483   0.155   1.535   0.655
   30ARHM   H6136484   0.248   1.590   0.681
   30ARHM   H6236485   0.139   1.544   0.545
   30ARHM   H6336486   0.071   1.583   0.708
   31BMANN   C136487   8.005   1.088   0.933
   31BMANN   H136488   8.062   0.996   0.961
   31BMANN   C536489   7.814   0.953   0.875
   31BMANN   H536490   7.871   0.860   0.895
   31BMANN   O536491   7.905   1.058   0.834
   31BMANN   C236492   7.930   1.140   1.054
   31BMANN   H236493   8.006   1.159   1.133
   31BMANN    N36494   7.854   1.263   1.028
   31BMANN   HN36495   7.784   1.260   0.957
   31BMANN    C36496   7.860   1.372   1.105
   31BMANN    O36497   7.948   1.387   1.189
   31BMANN   CT36498   7.755   1.478   1.084
   31BMANN  HT136499   7.684   1.446   1.006
   31BMANN  HT236500   7.802   1.574   1.054
   31BMANN  HT336501   7.700   1.493   1.179
   31BMANN   C336502   7.839   1.031   1.108
   31BMANN   H336503   7.901   0.942   1.132
   31BMANN   O336504   7.777   1.074   1.229
   31BMANN  HO336505   7.760   1.000   1.287
   31BMANN   C436506   7.739   0.995   1.001
   31BMANN   H436507   7.675   1.083   0.978
   31BMANN   O436508   7.652   0.890   1.045
   31BMANN  HO436509   7.575   0.886   0.989
   31BMANN   C636510   7.718   0.928   0.760
   31BMANN  H6136511   7.633   0.865   0.795
   31BMANN  H6236512   7.675   1.024   0.724
   31BMANN   O636513   7.778   0.859   0.651
   31BMANN  HO636514   7.847   0.910   0.608
   32BGLCN   C136515   0.163   1.254   1.110
   32BGLCN   H136516   0.054   1.257   1.091
   32BGLCN   C536517   0.137   1.456   1.236
   32BGLCN   H536518   0.030   1.461   1.208
   32BGLCN   O536519   0.210   1.388   1.133
   32BGLCN   C236520   0.190   1.179   1.239
   32BGLCN   H236521   0.296   1.205   1.263
   32BGLCN    N36522   0.187   1.034   1.221
   32BGLCN   HN36523   0.125   0.997   1.152
   32BGLCN    C36524   0.280   0.953   1.275
   32BGLCN    O36525   0.364   0.991   1.355
   32BGLCN   CT36526   0.275   0.809   1.231
   32BGLCN  HT136527   0.209   0.798   1.142
   32BGLCN  HT236528   0.236   0.745   1.314
   32BGLCN  HT336529   0.377   0.776   1.204
   32BGLCN   C336530   0.105   1.238   1.351
   32BGLCN   H336531   8.143   1.237   1.317
   32BGLCN   O336532   0.115   1.163   1.473
   32BGLCN   C436533   0.150   1.382   1.369
   32BGLCN   H436534   0.256   1.383   1.402
   32BGLCN   O436535   0.071   1.448   1.467
   32BGLCN  HO436536   0.124   1.513   1.513
   32BGLCN   C636537   0.189   1.600   1.243
   32BGLCN  H6136538   0.134   1.657   1.321
   32BGLCN  H6236539   0.297   1.598   1.273
   32BGLCN   O636540   0.178   1.669   1.119
   32BGLCN  HO636541   0.086   1.670   1.089
   33AGAL    C136542   8.136   1.145   1.541
   33AGAL    H136543   8.077   1.239   1.539
   33AGAL    C536544   8.127   0.912   1.488
   33AGAL    H536545   0.081   0.927   1.439
   33AGAL    O536546   8.058   1.039   1.483
   33AGAL    C236547   0.017   1.107   1.686
   33AGAL    H236548   8.060   1.086   1.728
   33AGAL    O236549   0.073   1.216   1.761
   33AGAL    C336550   0.097   0.978   1.694
   33AGAL    H336551   0.189   0.993   1.634
   33AGAL    O336552   0.141   0.947   1.826
   33AGAL   HO336553   0.065   0.929   1.882
   33AGAL    C436554   0.015   0.867   1.631
   33AGAL    H436555   0.077   0.775   1.627
   33AGAL    O436556   8.041   0.837   1.706
   33AGAL   HO436557   7.987   0.783   1.648
   33AGAL    C636558   8.054   0.811   1.401
   33AGAL   H6136559   8.016   0.861   1.309
   33AGAL   H6236560   8.128   0.735   1.367
   33AGAL    O636561   7.946   0.743   1.466
   33AGAL   HO636562   7.865   0.792   1.454
   34ARHM    C136563   0.003   1.239   1.880
   34ARHM    H136564   8.132   1.143   1.933
   34ARHM    C536565   8.028   1.423   1.784
   34ARHM    H536566   8.078   1.407   1.686
   34ARHM    O536567   8.019   1.299   1.855
   34ARHM    C236568   0.085   1.333   1.967
   34ARHM    H236569   0.185   1.288   1.981
   34ARHM    O236570   0.027   1.355   2.098
   34ARHM    C336571   0.103   1.465   1.894
   34ARHM    H336572   0.155   1.447   1.798
   34ARHM    O336573   0.181   1.557   1.969
   34ARHM   HO336574   0.137   1.642   1.959
   34ARHM    C436575   8.110   1.522   1.865
   34ARHM    H436576   8.058   1.537   1.962
   34ARHM    O436577   8.117   1.650   1.801
   34ARHM   HO436578   8.038   1.700   1.824
   34ARHM    C636579   7.883   1.466   1.760
   34ARHM   H6136580   7.830   1.478   1.857
   34ARHM   H6236581   7.879   1.562   1.705
   34ARHM   H6336582   7.829   1.389   1.701
   35ARHM    C136583   0.002   1.239   2.175
   35ARHM    H136584   0.078   1.161   2.153
   35ARHM    C536585   7.912   1.284   2.173
   35ARHM    H536586   7.931   1.370   2.106
   35ARHM    O536587   8.014   1.186   2.152
   35ARHM    C236588   0.012   1.280   2.321
   35ARHM    H236589   0.109   1.331   2.335
   35ARHM    O236590   0.005   1.168   2.412
   35ARHM    C336591   8.050   1.384   2.353
   35ARHM    H336592   8.070   1.475   2.292
   35ARHM    O336593   8.056   1.420   2.491
   35ARHM   HO336594   8.065   1.515   2.503
   35ARHM    C436595   7.913   1.329   2.319
   35ARHM    H436596   7.891   1.241   2.384
   35ARHM    O436597   7.813   1.429   2.341
   35ARHM   HO436598   7.820   1.455   2.434
   35ARHM    C636599   7.778   1.223   2.128
   35ARHM   H6136600   7.786   1.187   2.023
   35ARHM   H6236601   7.751   1.136   2.192
   35ARHM   H6336602   7.696   1.298   2.133
   36BMANN   C136603   0.121   1.089   2.412
   36BMANN   H136604   0.206   1.145   2.367
   36BMANN   C536605   0.222   0.889   2.334
   36BMANN   H536606   0.300   0.952   2.287
   36BMANN   O536607   0.101   0.967   2.340
   36BMANN   C236608   0.155   1.054   2.555
   36BMANN   H236609   0.174   1.152   2.605
   36BMANN    N36610   0.048   0.988   2.628
   36BMANN   HN36611   8.121   0.943   2.574
   36BMANN    C36612   0.041   0.984   2.762
   36BMANN    O36613   0.120   1.046   2.833
   36BMANN   CT36614   8.079   0.899   2.825
   36BMANN  HT136615   8.065   0.806   2.766
   36BMANN  HT236616   7.983   0.954   2.831
   36BMANN  HT336617   8.110   0.871   2.927
   36BMANN   C336618   0.287   0.977   2.554
   36BMANN   H336619   0.364   1.040   2.505
   36BMANN   O336620   0.333   0.953   2.687
   36BMANN  HO336621   0.269   0.991   2.748
   36BMANN   C436622   0.269   0.850   2.474
   36BMANN   H436623   0.192   0.786   2.522
   36BMANN   O436624   0.391   0.775   2.466
   36BMANN  HO436625   0.429   0.770   2.554
   36BMANN   C636626   0.198   0.773   2.239
   36BMANN  H6136627   0.153   0.810   2.145
   36BMANN  H6236628   0.297   0.729   2.212
   36BMANN   O636629   0.116   0.670   2.295
   36BMANN  HO636630   0.141   0.587   2.254
    1ECLIP HB6S36631   1.293   0.251  11.818
    1ECLIP  OB636632   1.446   0.293  11.951
    1ECLIP  CB636633   1.351   0.340  11.852
    1ECLIP HB6R36634   1.279   0.411  11.897
    1ECLIP  CB536635   1.404   0.409  11.726
    1ECLIP  OB536636   1.513   0.332  11.677
    1ECLIP  HB536637   1.439   0.511  11.753
    1ECLIP  CB136638   1.574   0.386  11.559
    1ECLIP  HB136639   1.611   0.488  11.581
    1ECLIP  OA636640   1.684   0.307  11.517
    1ECLIP  CA636641   1.668   0.167  11.546
    1ECLIP HA6R36642   1.570   0.142  11.592
    1ECLIP HA6S36643   1.746   0.136  11.619
    1ECLIP  CB436644   1.298   0.414  11.614
    1ECLIP  HB436645   1.277   0.307  11.592
    1ECLIP  OB436646   1.182   0.484  11.663
    1ECLIP   PB36647   1.029   0.424  11.650
    1ECLIP OPB436648   0.959   0.457  11.781
    1ECLIP OPB336649   1.044   0.274  11.621
    1ECLIP OPB236650   0.959   0.501  11.540
    1ECLIP  CB336651   1.356   0.477  11.489
    1ECLIP  OB336652   1.257   0.480  11.384
    1ECLIP  HB336653   1.392   0.577  11.520
    1ECLIP  C7136654   1.266   0.588  11.305
    1ECLIP  O7136655   1.348   0.677  11.319
    1ECLIP  C7236656   1.191   0.577  11.173
    1ECLIP H72R36657   1.265   0.547  11.095
    1ECLIP H72S36658   1.159   0.681  11.150
    1ECLIP  CB236659   1.475   0.392  11.444
    1ECLIP  HB236660   1.436   0.289  11.429
    1ECLIP  NB236661   1.540   0.432  11.318
    1ECLIP HNB236662   1.622   0.487  11.326
    1ECLIP  CA436663   1.799   0.078  11.342
    1ECLIP  HA436664   1.807   0.177  11.293
    1ECLIP  OA436665   1.913   0.062  11.426
    1ECLIP HOA436666   1.907   8.121  11.471
    1ECLIP  CA536667   1.673   0.081  11.423
    1ECLIP  HA536668   1.654   8.121  11.459
    1ECLIP  OA536669   1.566   0.117  11.337
    1ECLIP  CA136670   1.538   0.017  11.237
    1ECLIP  HA136671   1.469   0.064  11.164
    1ECLIP  OA136672   1.469   8.052  11.302
    1ECLIP OPA236673   1.309   8.113  11.515
    1ECLIP OPA336674   1.292   0.094  11.320
    1ECLIP OPA436675   1.208   8.008  11.315
    1ECLIP   PA36676   1.319   8.096  11.364
    1ECLIP  CA336677   1.786   8.115  11.235
    1ECLIP  HA336678   1.766   8.018  11.284
    1ECLIP  OA336679   1.912   8.102  11.166
    1ECLIP  C3136680   1.960   0.061  11.090
    1ECLIP  O3136681   1.982   0.043  10.971
    1ECLIP  C3236682   2.077   0.126  11.169
    1ECLIP H32R36683   2.164   0.111  11.102
    1ECLIP H32S36684   2.098   0.067  11.261
    1ECLIP  CA236685   1.664   0.002  11.148
    1ECLIP  HA236686   1.682   0.102  11.102
    1ECLIP  NA236687   1.644   8.049  11.039
    1ECLIP HNA236688   1.665   7.954  11.062
    1ECLIP  C7336689   1.069   0.485  11.167
    1ECLIP H73R36690   1.020   0.479  11.267
    1ECLIP  O7336691   1.108   0.359  11.115
    1ECLIP  C8136692   1.105   0.253  11.191
    1ECLIP  O8136693   1.066   0.247  11.307
    1ECLIP  C8236694   1.124   0.128  11.104
    1ECLIP H82R36695   1.093   0.042  11.167
    1ECLIP H82S36696   1.233   0.118  11.085
    1ECLIP  C8336697   1.049   0.120  10.970
    1ECLIP H83R36698   1.095   0.191  10.898
    1ECLIP H83S36699   0.942   0.149  10.984
    1ECLIP  C8436700   1.057   8.120  10.918
    1ECLIP H84R36701   0.956   8.075  10.912
    1ECLIP H84S36702   1.116   8.059  10.989
    1ECLIP  C8536703   1.127   8.112  10.782
    1ECLIP H85R36704   1.229   0.010  10.792
    1ECLIP H85S36705   1.070   0.030  10.710
    1ECLIP  C8636706   1.138   7.967  10.731
    1ECLIP H86R36707   1.035   7.929  10.712
    1ECLIP H86S36708   1.183   7.904  10.810
    1ECLIP  C8736709   1.222   7.955  10.603
    1ECLIP H87R36710   1.203   7.856  10.556
    1ECLIP H87S36711   1.329   7.958  10.632
    1ECLIP  C8836712   1.196   8.068  10.504
    1ECLIP H88R36713   1.233   0.019  10.549
    1ECLIP H88S36714   1.087   8.079  10.487
    1ECLIP  C8936715   1.267   8.051  10.369
    1ECLIP H89R36716   1.373   8.025  10.385
    1ECLIP H89S36717   1.264   0.008  10.322
    1ECLIP C81036718   1.198   7.949  10.278
    1ECLIPH810R36719   1.089   7.947  10.302
    1ECLIPH810S36720   1.237   7.848  10.302
    1ECLIP C81136721   1.214   7.975  10.127
    1ECLIPH811R36722   1.159   7.897  10.071
    1ECLIPH811S36723   1.322   7.964  10.102
    1ECLIP C81236724   1.167   8.114  10.078
    1ECLIPH812R36725   1.188   8.124   9.970
    1ECLIPH812S36726   1.227   0.049  10.129
    1ECLIP C81336727   1.018   8.143  10.103
    1ECLIPH813R36728   0.958   8.094  10.023
    1ECLIPH813S36729   0.986   8.099  10.200
    1ECLIP C81436730   0.987   0.149  10.109
    1ECLIPH814R36731   1.031   0.201  10.022
    1ECLIPH814S36732   1.030   0.193  10.201
    1ECLIPH814T36733   0.877   0.166  10.111
    1ECLIP  C7436734   0.966   0.538  11.063
    1ECLIP H74R36735   0.942   0.644  11.086
    1ECLIP H74S36736   0.874   0.478  11.079
    1ECLIP  C7536737   1.004   0.523  10.913
    1ECLIP H75R36738   0.909   0.523  10.855
    1ECLIP H75S36739   1.051   0.424  10.897
    1ECLIP  C7636740   1.095   0.631  10.851
    1ECLIP H76R36741   1.192   0.634  10.904
    1ECLIP H76S36742   1.047   0.730  10.862
    1ECLIP  C7736743   1.122   0.603  10.702
    1ECLIP H77R36744   1.025   0.586  10.650
    1ECLIP H77S36745   1.181   0.509  10.694
    1ECLIP  C7836746   1.198   0.715  10.630
    1ECLIP H78R36747   1.134   0.805  10.624
    1ECLIP H78S36748   1.288   0.742  10.689
    1ECLIP  C7936749   1.245   0.678  10.487
    1ECLIP H79R36750   1.328   0.604  10.494
    1ECLIP H79S36751   1.287   0.769  10.439
    1ECLIP C71036752   1.136   0.618  10.397
    1ECLIPH710R36753   1.101   0.522  10.440
    1ECLIPH710S36754   1.049   0.688  10.393
    1ECLIP C71136755   1.185   0.592  10.253
    1ECLIPH711R36756   1.220   0.688  10.209
    1ECLIPH711S36757   1.272   0.523  10.258
    1ECLIP C71236758   1.077   0.530  10.164
    1ECLIPH712R36759   0.994   0.603  10.151
    1ECLIPH712S36760   1.035   0.441  10.216
    1ECLIP C71336761   1.128   0.485  10.026
    1ECLIPH713R36762   1.203   0.405  10.042
    1ECLIPH713S36763   1.044   0.441   9.969
    1ECLIP C71436764   1.193   0.596   9.942
    1ECLIPH714R36765   1.121   0.679   9.927
    1ECLIPH714S36766   1.283   0.636   9.993
    1ECLIPH714T36767   1.224   0.557   9.843
    1ECLIP  C5136768   1.497   0.394  11.195
    1ECLIP  O5136769   1.395   0.329  11.181
    1ECLIP  C5236770   1.579   0.439  11.075
    1ECLIP H52R36771   1.562   0.548  11.060
    1ECLIP H52S36772   1.685   0.421  11.101
    1ECLIP  C5336773   1.546   0.361  10.946
    1ECLIP H53R36774   1.548   0.252  10.969
    1ECLIP  O5336775   1.640   0.398  10.844
    1ECLIP  C6136776   1.740   0.312  10.823
    1ECLIP  O6136777   1.782   0.236  10.908
    1ECLIP  C6236778   1.828   0.369  10.710
    1ECLIP H62R36779   1.908   0.430  10.757
    1ECLIP H62S36780   1.765   0.435  10.647
    1ECLIP  C6336781   1.895   0.261  10.621
    1ECLIP H63R36782   1.816   0.198  10.574
    1ECLIP H63S36783   1.957   0.195  10.685
    1ECLIP  C6436784   1.982   0.317  10.507
    1ECLIP H64R36785   2.042   0.234  10.464
    1ECLIP H64S36786   2.054   0.391  10.548
    1ECLIP  C6536787   1.900   0.381  10.394
    1ECLIP H65R36788   1.840   0.464  10.439
    1ECLIP H65S36789   1.827   0.307  10.355
    1ECLIP  C6636790   1.982   0.440  10.279
    1ECLIP H66R36791   2.056   0.513  10.321
    1ECLIP H66S36792   1.914   0.498  10.213
    1ECLIP  C6736793   2.057   0.337  10.192
    1ECLIP H67R36794   2.138   0.290  10.251
    1ECLIP H67S36795   2.105   0.392  10.108
    1ECLIP  C6836796   1.966   0.228  10.135
    1ECLIP H68R36797   1.873   0.274  10.095
    1ECLIP H68S36798   1.937   0.158  10.216
    1ECLIP  C6936799   2.034   0.150  10.021
    1ECLIP H69R36800   2.131   0.110  10.058
    1ECLIP H69S36801   2.056   0.222   9.940
    1ECLIP C61036802   1.951   0.033   9.967
    1ECLIPH610R36803   1.846   0.066   9.953
    1ECLIPH610S36804   1.950   8.096  10.043
    1ECLIP C61136805   2.003   8.121   9.834
    1ECLIPH611R36806   2.111   8.097   9.846
    1ECLIPH611S36807   1.950   8.026   9.813
    1ECLIP C61236808   1.983   0.073   9.716
    1ECLIPH612R36809   1.875   0.095   9.702
    1ECLIPH612S36810   2.038   0.168   9.732
    1ECLIPH612T36811   2.022   0.026   9.623
    1ECLIP  C5436812   1.406   0.392  10.886
    1ECLIP H54R36813   1.402   0.500  10.859
    1ECLIP H54S36814   1.328   0.373  10.962
    1ECLIP  C5536815   1.369   0.306  10.763
    1ECLIP H55R36816   1.259   0.313  10.748
    1ECLIP H55S36817   1.392   0.200  10.784
    1ECLIP  C5636818   1.438   0.350  10.633
    1ECLIP H56R36819   1.547   0.330  10.639
    1ECLIP H56S36820   1.424   0.459  10.620
    1ECLIP  C5736821   1.387   0.276  10.509
    1ECLIP H57R36822   1.277   0.292  10.499
    1ECLIP H57S36823   1.405   0.167  10.523
    1ECLIP  C5836824   1.458   0.323  10.382
    1ECLIP H58R36825   1.443   0.432  10.371
    1ECLIP H58S36826   1.568   0.306  10.393
    1ECLIP  C5936827   1.408   0.250  10.258
    1ECLIP H59R36828   1.297   0.259  10.252
    1ECLIP H59S36829   1.433   0.142  10.268
    1ECLIP C51036830   1.470   0.304  10.129
    1ECLIPH510R36831   1.580   0.299  10.139
    1ECLIPH510S36832   1.442   0.411  10.117
    1ECLIP C51136833   1.424   0.224  10.007
    1ECLIPH511R36834   1.458   0.119  10.021
    1ECLIPH511S36835   1.313   0.222  10.002
    1ECLIP C51236836   1.480   0.277   9.875
    1ECLIPH512R36837   1.448   0.209   9.793
    1ECLIPH512S36838   1.437   0.378   9.855
    1ECLIP C51336839   1.632   0.287   9.875
    1ECLIPH513R36840   1.674   0.191   9.913
    1ECLIPH513S36841   1.665   0.367   9.945
    1ECLIP C51436842   1.691   0.315   9.737
    1ECLIPH514R36843   1.655   0.412   9.698
    1ECLIPH514S36844   1.802   0.318   9.744
    1ECLIPH514T36845   1.663   0.235   9.665
    1ECLIP  C3336846   2.071   0.280  11.198
    1ECLIP H33R36847   2.171   0.322  11.172
    1ECLIP  O3336848   2.048   0.301  11.338
    1ECLIP HO3336849   1.984   0.238  11.372
    1ECLIP  C3436850   1.966   0.354  11.113
    1ECLIP H34R36851   1.866   0.306  11.126
    1ECLIP H34S36852   1.996   0.338  11.007
    1ECLIP  C3536853   1.946   0.506  11.133
    1ECLIP H35R36854   2.039   0.555  11.170
    1ECLIP H35S36855   1.869   0.521  11.212
    1ECLIP  C3636856   1.900   0.576  11.003
    1ECLIP H36R36857   1.822   0.510  10.958
    1ECLIP H36S36858   1.984   0.582  10.931
    1ECLIP  C3736859   1.833   0.714  11.017
    1ECLIP H37R36860   1.910   0.793  11.021
    1ECLIP H37S36861   1.777   0.717  11.113
    1ECLIP  C3836862   1.730   0.746  10.905
    1ECLIP H38R36863   1.648   0.672  10.909
    1ECLIP H38S36864   1.686   0.846  10.924
    1ECLIP  C3936865   1.785   0.744  10.761
    1ECLIP H39R36866   1.829   0.644  10.741
    1ECLIP H39S36867   1.867   0.819  10.750
    1ECLIP C31036868   1.677   0.771  10.654
    1ECLIPH310R36869   1.650   0.879  10.655
    1ECLIPH310S36870   1.586   0.714  10.679
    1ECLIP C31136871   1.722   0.730  10.513
    1ECLIPH311R36872   1.820   0.777  10.490
    1ECLIPH311S36873   1.737   0.620  10.515
    1ECLIP C31236874   1.623   0.763  10.400
    1ECLIPH312R36875   1.522   0.723  10.427
    1ECLIPH312S36876   1.614   0.873  10.390
    1ECLIP C31336877   1.665   0.702  10.265
    1ECLIPH313R36878   1.767   0.738  10.241
    1ECLIPH313S36879   1.670   0.592  10.276
    1ECLIP C31436880   1.571   0.736  10.149
    1ECLIPH314R36881   1.567   0.846  10.133
    1ECLIPH314S36882   1.606   0.688  10.055
    1ECLIPH314T36883   1.468   0.700  10.170
    1ECLIP  C1136884   1.603   8.077  10.913
    1ECLIP  O1136885   1.568   0.045  10.878
    1ECLIP  C1236886   1.597   7.963  10.813
    1ECLIP H12R36887   1.502   7.908  10.829
    1ECLIP H12S36888   1.683   7.895  10.831
    1ECLIP  C1336889   1.604   8.014  10.667
    1ECLIP H13R36890   1.525   8.090  10.649
    1ECLIP  O1336891   1.577   7.903  10.583
    1ECLIP HO1336892   1.590   7.923  10.490
    1ECLIP  C1436893   1.741   8.071  10.626
    1ECLIP H14R36894   1.819   8.010  10.676
    1ECLIP H14S36895   1.749   0.029  10.669
    1ECLIP  C1536896   1.775   8.070  10.474
    1ECLIP H15R36897   1.779   7.965  10.440
    1ECLIP H15S36898   1.878   8.111  10.462
    1ECLIP  C1636899   1.681   0.006  10.382
    1ECLIP H16R36900   1.702   0.114  10.396
    1ECLIP H16S36901   1.575   8.134  10.411
    1ECLIP  C1736902   1.697   8.114  10.233
    1ECLIP H17R36903   1.805   8.107  10.210
    1ECLIP H17S36904   1.655   0.052  10.171
    1ECLIP  C1836905   1.627   7.983  10.194
    1ECLIP H18R36906   1.665   7.902  10.259
    1ECLIP H18S36907   1.518   7.993  10.215
    1ECLIP  C1936908   1.646   7.938  10.047
    1ECLIP H19R36909   1.602   7.836  10.039
    1ECLIP H19S36910   1.754   7.929  10.024
    1ECLIP C11036911   1.576   8.027   9.943
    1ECLIPH110R36912   1.475   8.054   9.982
    1ECLIPH110S36913   1.633   8.121   9.930
    1ECLIP C11136914   1.556   7.957   9.808
    1ECLIPH111R36915   1.655   7.931   9.764
    1ECLIPH111S36916   1.501   7.862   9.825
    1ECLIP C11236917   1.476   8.041   9.708
    1ECLIPH112R36918   1.380   8.072   9.756
    1ECLIPH112S36919   1.532   8.133   9.683
    1ECLIP C11336920   1.443   7.964   9.579
    1ECLIPH113R36921   1.538   7.933   9.530
    1ECLIPH113S36922   1.388   7.871   9.606
    1ECLIP C11436923   1.358   8.045   9.480
    1ECLIPH114R36924   1.264   8.078   9.529
    1ECLIPH114S36925   1.414   8.135   9.447
    1ECLIPH114T36926   1.332   7.984   9.391
    2AKDO    C136927   1.524   0.508  12.025
    2AKDO   O1136928   1.465   0.614  12.060
    2AKDO   O1236929   1.645   0.497  11.989
    2AKDO    C236930   1.456   0.374  12.067
    2AKDO    C636931   1.262   0.278  12.168
    2AKDO    H636932   1.269   0.208  12.082
    2AKDO    O636933   1.326   0.400  12.127
    2AKDO    C336934   1.539   0.298  12.173
    2AKDO   H3136935   1.560   0.366  12.258
    2AKDO   H3236936   1.635   0.271  12.123
    2AKDO    C436937   1.474   0.172  12.222
    2AKDO    H436938   1.457   0.106  12.134
    2AKDO    O436939   1.553   0.103  12.321
    2AKDO    C536940   1.338   0.206  12.281
    2AKDO    H536941   1.288   0.107  12.294
    2AKDO    O536942   1.350   0.272  12.410
    2AKDO    C736943   1.113   0.305  12.180
    2AKDO    H736944   1.092   0.379  12.261
    2AKDO    O736945   1.042   0.183  12.203
    2AKDO   HO736946   1.064   0.128  12.127
    2AKDO    C836947   1.068   0.367  12.047
    2AKDO   H8136948   1.123   0.462  12.031
    2AKDO   H8236949   1.094   0.298  11.964
    2AKDO    O836950   0.929   0.399  12.034
    2AKDO   HO836951   0.928   0.419  11.940
    3AKDO    C136952   1.612   8.061  12.173
    3AKDO   O1136953   1.688   8.034  12.076
    3AKDO   O1236954   1.516   7.990  12.217
    3AKDO    C236955   1.662   0.024  12.276
    3AKDO    C636956   1.822   0.195  12.337
    3AKDO    H636957   1.737   0.258  12.371
    3AKDO    O636958   1.775   0.105  12.233
    3AKDO    C336959   1.709   8.088  12.397
    3AKDO   H3136960   1.789   8.018  12.362
    3AKDO   H3236961   1.624   8.026  12.433
    3AKDO    C436962   1.760   0.028  12.508
    3AKDO    H436963   1.678   0.093  12.545
    3AKDO    O436964   1.799   8.081  12.611
    3AKDO   HO436965   1.790   8.124  12.696
    3AKDO    C536966   1.873   0.115  12.456
    3AKDO    H536967   1.902   0.185  12.537
    3AKDO    O536968   1.990   0.043  12.420
    3AKDO   HO536969   1.973   0.001  12.335
    3AKDO    C736970   1.929   0.290  12.283
    3AKDO    H736971   2.019   0.231  12.253
    3AKDO    O736972   1.967   0.386  12.382
    3AKDO   HO736973   2.021   0.447  12.331
    3AKDO    C836974   1.880   0.365  12.161
    3AKDO   H8136975   1.846   0.294  12.083
    3AKDO   H8236976   1.795   0.431  12.188
    3AKDO    O836977   1.986   0.445  12.107
    3AKDO   HO836978   1.942   0.508  12.049
    4AHEP    C136979   1.238   0.262  12.495
    4AHEP    H136980   1.159   0.328  12.452
    4AHEP    C536981   1.273   0.036  12.563
    4AHEP    H536982   1.371   0.045  12.512
    4AHEP    O536983   1.183   0.129  12.501
    4AHEP    C236984   1.261   0.310  12.639
    4AHEP    H236985   1.314   0.407  12.631
    4AHEP    O236986   1.138   0.334  12.708
    4AHEP   HO236987   1.103   0.248  12.732
    4AHEP    C336988   1.353   0.215  12.716
    4AHEP    H336989   1.454   0.218  12.671
    4AHEP    O336990   1.355   0.251  12.857
    4AHEP    C436991   1.296   0.074  12.711
    4AHEP    H436992   1.200   0.069  12.767
    4AHEP    O436993   1.395   8.133  12.771
    4AHEP    P436994   1.369   7.996  12.857
    4AHEP  OP4236995   1.502   7.957  12.916
    4AHEP  OP4336996   1.329   7.887  12.758
    4AHEP  OP4436997   1.261   8.022  12.960
    4AHEP    C636998   1.225   8.038  12.535
    4AHEP    H636999   1.315   7.973  12.546
    4AHEP    O637000   1.124   7.998  12.628
    4AHEP   HO637001   1.176   7.959  12.699
    4AHEP    C737002   1.175   8.013  12.393
    4AHEP   H7137003   1.166   7.904  12.378
    4AHEP   H7237004   1.251   8.047  12.320
    4AHEP    O737005   1.050   8.077  12.365
    4AHEP   HO737006   1.071   0.026  12.370
    5AHEP    C137007   1.477   0.295  12.914
    5AHEP    H137008   1.561   0.241  12.866
    5AHEP    C537009   1.396   0.516  12.963
    5AHEP    H537010   1.298   0.490  12.918
    5AHEP    O537011   1.498   0.436  12.899
    5AHEP    C237012   1.478   0.266  13.064
    5AHEP    H237013   1.456   0.157  13.076
    5AHEP    O237014   1.607   0.290  13.121
    5AHEP   HO237015   1.677   0.265  13.061
    5AHEP    C337016   1.368   0.344  13.137
    5AHEP    H337017   1.269   0.316  13.096
    5AHEP    O337018   1.370   0.320  13.280
    5AHEP    C437019   1.390   0.492  13.114
    5AHEP    H437020   1.484   0.526  13.163
    5AHEP    O437021   1.278   0.569  13.158
    5AHEP    P437022   1.261   0.649  13.300
    5AHEP  OP4237023   1.156   0.755  13.270
    5AHEP  OP4337024   1.393   0.713  13.336
    5AHEP  OP4437025   1.207   0.550  13.402
    5AHEP    C637026   1.430   0.661  12.924
    5AHEP    H637027   1.348   0.726  12.962
    5AHEP    O637028   1.555   0.701  12.983
    5AHEP   HO637029   1.615   0.667  12.916
    5AHEP    C737030   1.440   0.673  12.772
    5AHEP   H7137031   1.391   0.767  12.741
    5AHEP   H7237032   1.384   0.592  12.721
    5AHEP    O737033   1.577   0.680  12.729
    6AHEP    C137034   1.614   0.575  12.643
    6AHEP    H137035   1.557   0.482  12.666
    6AHEP    C537036   1.668   0.726  12.464
    6AHEP    H537037   1.636   0.810  12.529
    6AHEP    O537038   1.595   0.608  12.505
    6AHEP    C237039   1.761   0.547  12.671
    6AHEP    H237040   1.770   0.536  12.781
    6AHEP    O237041   1.805   0.422  12.617
    6AHEP   HO237042   1.838   0.432  12.527
    6AHEP    C337043   1.843   0.668  12.632
    6AHEP    H337044   1.808   0.755  12.692
    6AHEP    O337045   1.981   0.652  12.664
    6AHEP   HO337046   2.023   0.600  12.596
    6AHEP    C437047   1.818   0.703  12.486
    6AHEP    H437048   1.850   0.617  12.422
    6AHEP    O437049   1.892   0.818  12.446
    6AHEP   HO437050   1.915   0.806  12.353
    6AHEP    C637051   1.634   0.768  12.321
    6AHEP    H637052   1.685   0.865  12.300
    6AHEP    O637053   1.689   0.673  12.230
    6AHEP   HO637054   1.623   0.648  12.165
    6AHEP    C737055   1.485   0.792  12.296
    6AHEP   H7137056   1.472   0.831  12.193
    6AHEP   H7237057   1.449   0.871  12.365
    6AHEP    O737058   1.402   0.676  12.312
    6AHEP   HO737059   1.416   0.628  12.230
    7AGLC    C137060   1.300   0.208  13.328
    7AGLC    H137061   1.200   0.202  13.281
    7AGLC    C537062   1.503   0.087  13.366
    7AGLC    H537063   1.558   0.177  13.332
    7AGLC    O537064   1.373   0.086  13.304
    7AGLC    C237065   1.283   0.218  13.480
    7AGLC    H237066   1.235   0.123  13.513
    7AGLC    O237067   1.191   0.320  13.519
    7AGLC   HO237068   1.212   0.402  13.472
    7AGLC    C337069   1.417   0.227  13.552
    7AGLC    H337070   1.472   0.313  13.508
    7AGLC    O337071   1.408   0.244  13.695
    7AGLC    C437072   1.491   0.099  13.517
    7AGLC    H437073   1.432   0.012  13.555
    7AGLC    O437074   1.620   0.092  13.575
    7AGLC   HO437075   1.650   0.001  13.577
    7AGLC    C637076   1.584   8.112  13.320
    7AGLC   H6137077   1.577   8.104  13.209
    7AGLC   H6237078   1.690   8.129  13.346
    7AGLC    O637079   1.541   7.989  13.379
    7AGLC   HO637080   1.470   7.954  13.326
    8AGLC    C137081   1.494   0.345  13.747
    8AGLC    H137082   1.594   0.340  13.697
    8AGLC    C537083   1.310   0.494  13.780
    8AGLC    H537084   1.245   0.415  13.737
    8AGLC    O537085   1.441   0.476  13.725
    8AGLC    C237086   1.509   0.330  13.899
    8AGLC    H237087   1.573   0.413  13.934
    8AGLC    O237088   1.569   0.206  13.941
    8AGLC    C337089   1.373   0.342  13.965
    8AGLC    H337090   1.307   0.264  13.921
    8AGLC    O337091   1.386   0.310  14.106
    8AGLC    C437092   1.314   0.478  13.932
    8AGLC    H437093   1.377   0.559  13.974
    8AGLC    O437094   1.181   0.490  13.984
    8AGLC   HO437095   1.124   0.434  13.931
    8AGLC    C637096   1.257   0.628  13.729
    8AGLC   H6137097   1.293   0.644  13.625
    8AGLC   H6237098   1.147   0.624  13.724
    8AGLC    O637099   1.297   0.739  13.810
    8AGLC   HO637100   1.226   0.759  13.872
    9AGAL    C137101   1.695   0.171  13.888
    9AGAL    H137102   1.696   0.181  13.777
    9AGAL    C537103   1.812   0.247  14.080
    9AGAL    H537104   1.711   0.268  14.122
    9AGAL    O537105   1.799   0.255  13.937
    9AGAL    C237106   1.723   0.025  13.921
    9AGAL    H237107   1.817   8.140  13.870
    9AGAL    O237108   1.614   8.096  13.858
    9AGAL    C337109   1.742   0.010  14.072
    9AGAL    H337110   1.647   0.039  14.122
    9AGAL    O337111   1.774   8.020  14.110
    9AGAL   HO337112   1.841   7.988  14.049
    9AGAL    C437113   1.851   0.105  14.120
    9AGAL    H437114   1.854   0.101  14.231
    9AGAL    O437115   1.981   0.068  14.072
    9AGAL   HO437116   2.024   0.150  14.046
    9AGAL    C637117   1.899   0.363  14.128
    9AGAL   H6137118   1.875   0.454  14.069
    9AGAL   H6237119   1.872   0.385  14.233
    9AGAL    O637120   2.040   0.338  14.122
    9AGAL   HO637121   2.074   0.373  14.039
   10AGAL    C137122   1.558   7.979  13.913
   10AGAL    H137123   1.638   7.903  13.925
   10AGAL    C537124   1.384   8.095  14.030
   10AGAL    H537125   1.417   0.041  13.974
   10AGAL    O537126   1.496   8.005  14.040
   10AGAL    C237127   1.450   7.918  13.821
   10AGAL    H237128   1.418   7.823  13.869
   10AGAL    O237129   1.503   7.882  13.693
   10AGAL   HO237130   1.444   7.821  13.648
   10AGAL    C337131   1.330   8.010  13.808
   10AGAL    H337132   1.363   8.106  13.764
   10AGAL    O337133   1.227   7.956  13.724
   10AGAL   HO337134   1.259   7.946  13.634
   10AGAL    C437135   1.272   8.036  13.946
   10AGAL    H437136   1.191   8.112  13.937
   10AGAL    O437137   1.216   7.917  14.002
   10AGAL   HO437138   1.190   7.866  13.926
   10AGAL    C637139   1.346   0.003  14.167
   10AGAL   H6137140   1.429   0.066  14.203
   10AGAL   H6237141   1.255   0.066  14.159
   10AGAL    O637142   1.323   8.045  14.265
   10AGAL   HO637143   1.394   7.980  14.258
   11BGLC    C137144   1.404   0.413  14.202
   11BGLC    H137145   1.308   0.467  14.217
   11BGLC    C537146   1.528   0.609  14.262
   11BGLC    H537147   1.431   0.658  14.283
   11BGLC    O537148   1.507   0.504  14.164
   11BGLC    C237149   1.447   0.344  14.332
   11BGLC    H237150   1.540   0.288  14.311
   11BGLC    O237151   1.348   0.251  14.380
   11BGLC   HO237152   1.358   0.169  14.331
   11BGLC    C337153   1.474   0.446  14.439
   11BGLC    H337154   1.381   0.499  14.467
   11BGLC    O337155   1.537   0.385  14.553
   11BGLC    C437156   1.577   0.545  14.391
   11BGLC    H437157   1.673   0.492  14.370
   11BGLC    O437158   1.600   0.643  14.491
   11BGLC   HO437159   1.575   0.603  14.575
   11BGLC    C637160   1.623   0.713  14.206
   11BGLC   H6137161   1.655   0.782  14.286
   11BGLC   H6237162   1.714   0.663  14.165
   11BGLC    O637163   1.561   0.791  14.104
   11BGLC   HO637164   1.596   0.764  14.019
   12BGLCN   C137165   1.465   0.386  14.673
   12BGLCN   H137166   1.376   0.320  14.663
   12BGLCN   C537167   1.355   0.521  14.834
   12BGLCN   H537168   1.263   0.459  14.825
   12BGLCN   O537169   1.427   0.518  14.709
   12BGLCN   C237170   1.562   0.331  14.776
   12BGLCN   H237171   1.644   0.406  14.785
   12BGLCN    N37172   1.621   0.206  14.729
   12BGLCN   HN37173   1.562   0.145  14.676
   12BGLCN    C37174   1.753   0.178  14.733
   12BGLCN    O37175   1.834   0.246  14.793
   12BGLCN   CT37176   1.797   0.053  14.661
   12BGLCN  HT137177   1.894   0.020  14.702
   12BGLCN  HT237178   1.809   0.075  14.553
   12BGLCN  HT337179   1.722   8.116  14.674
   12BGLCN   C337180   1.493   0.325  14.911
   12BGLCN   H337181   1.408   0.253  14.907
   12BGLCN   O337182   1.587   0.287  15.013
   12BGLCN   C437183   1.444   0.465  14.944
   12BGLCN   H437184   1.533   0.531  14.955
   12BGLCN   O437185   1.373   0.468  15.067
   12BGLCN  HO437186   1.287   0.426  15.058
   12BGLCN   C637187   1.316   0.666  14.858
   12BGLCN  H6137188   1.281   0.680  14.962
   12BGLCN  H6237189   1.406   0.731  14.844
   12BGLCN   O637190   1.213   0.711  14.769
   12BGLCN  HO637191   1.128   0.703  14.813
   13AGAL    C137192   1.542   0.208  15.120
   13AGAL    H137193   1.437   0.233  15.147
   13AGAL    C537194   1.687   0.030  15.052
   13AGAL    H537195   1.720   0.098  14.970
   13AGAL    O537196   1.552   0.067  15.088
   13AGAL    C237197   1.631   0.230  15.242
   13AGAL    H237198   1.600   0.156  15.319
   13AGAL    O237199   1.614   0.362  15.299
   13AGAL    C337200   1.775   0.200  15.204
   13AGAL    H337201   1.801   0.262  15.116
   13AGAL    O337202   1.870   0.235  15.305
   13AGAL   HO337203   1.949   0.264  15.259
   13AGAL    C437204   1.784   0.054  15.166
   13AGAL    H437205   1.888   0.032  15.131
   13AGAL    O437206   1.755   8.112  15.275
   13AGAL   HO437207   1.685   8.053  15.247
   13AGAL    C637208   1.690   8.034  14.991
   13AGAL   H6137209   1.620   8.031  14.905
   13AGAL   H6237210   1.791   8.014  14.950
   13AGAL    O637211   1.656   7.930  15.083
   13AGAL   HO637212   1.738   7.892  15.116
   14ARHM    C137213   1.560   0.369  15.429
   14ARHM    H137214   1.482   0.290  15.439
   14ARHM    C537215   1.582   0.605  15.443
   14ARHM    H537216   1.629   0.608  15.343
   14ARHM    O537217   1.492   0.494  15.451
   14ARHM    C237218   1.669   0.347  15.533
   14ARHM    H237219   1.722   0.252  15.508
   14ARHM    O237220   1.625   0.337  15.671
   14ARHM    C337221   1.766   0.462  15.524
   14ARHM    H337222   1.808   0.466  15.421
   14ARHM    O337223   1.877   0.444  15.613
   14ARHM   HO337224   1.842   0.411  15.696
   14ARHM    C437225   1.691   0.591  15.549
   14ARHM    H437226   1.642   0.586  15.649
   14ARHM    O437227   1.780   0.704  15.551
   14ARHM   HO437228   1.868   0.667  15.564
   14ARHM    C637229   1.496   0.732  15.458
   14ARHM   H6137230   1.419   0.734  15.379
   14ARHM   H6237231   1.445   0.732  15.557
   14ARHM   H6337232   1.559   0.823  15.449
   15ARHM    C137233   1.525   0.242  15.696
   15ARHM    H137234   1.535   0.156  15.626
   15ARHM    C537235   1.367   0.407  15.774
   15ARHM    H537236   1.442   0.488  15.759
   15ARHM    O537237   1.394   0.300  15.682
   15ARHM    C237238   1.540   0.189  15.838
   15ARHM    H237239   1.642   0.149  15.851
   15ARHM    O237240   1.446   0.080  15.850
   15ARHM    C337241   1.518   0.301  15.937
   15ARHM    H337242   1.590   0.382  15.913
   15ARHM    O337243   1.542   0.258  16.072
   15ARHM    C437244   1.378   0.354  15.917
   15ARHM    H437245   1.305   0.271  15.926
   15ARHM    O437246   1.341   0.451  16.015
   15ARHM   HO437247   1.247   0.440  16.033
   15ARHM    C637248   1.228   0.463  15.739
   15ARHM   H6137249   1.202   0.547  15.806
   15ARHM   H6237250   1.228   0.500  15.635
   15ARHM   H6337251   1.151   0.383  15.750
   16BMANN   C137252   1.425   0.026  15.977
   16BMANN   H137253   1.381   0.103  16.043
   16BMANN   C537254   1.521   8.076  16.172
   16BMANN   H537255   1.483   0.019  16.230
   16BMANN   O537256   1.544   8.117  16.036
   16BMANN   C237257   1.320   8.061  15.966
   16BMANN   H237258   1.229   8.111  15.928
   16BMANN    N37259   1.358   7.954  15.874
   16BMANN   HN37260   1.413   7.879  15.910
   16BMANN    C37261   1.316   7.946  15.747
   16BMANN    O37262   1.243   8.031  15.697
   16BMANN   CT37263   1.359   7.826  15.668
   16BMANN  HT137264   1.309   7.735  15.707
   16BMANN  HT237265   1.469   7.814  15.674
   16BMANN  HT337266   1.330   7.840  15.561
   16BMANN   C337267   1.289   8.014  16.107
   16BMANN   H337268   1.251   8.101  16.165
   16BMANN   O337269   1.185   7.916  16.107
   16BMANN  HO337270   1.162   7.895  16.198
   16BMANN   C437271   1.416   7.965  16.175
   16BMANN   H437272   1.456   7.877  16.121
   16BMANN   O437273   1.389   7.929  16.310
   16BMANN  HO437274   1.445   7.855  16.336
   16BMANN   C637275   1.654   8.035  16.232
   16BMANN  H6137276   1.641   8.009  16.339
   16BMANN  H6237277   1.691   7.944  16.180
   16BMANN   O637278   1.752   8.139  16.223
   16BMANN  HO637279   1.762   0.021  16.131
   17BGLCN   C137280   1.628   0.338  16.147
   17BGLCN   H137281   1.610   0.446  16.124
   17BGLCN   C537282   1.857   0.381  16.202
   17BGLCN   H537283   1.849   0.488  16.172
   17BGLCN   O537284   1.765   0.303  16.124
   17BGLCN   C237285   1.597   0.309  16.292
   17BGLCN   H237286   1.633   0.206  16.311
   17BGLCN    N37287   1.454   0.305  16.318
   17BGLCN   HN37288   1.397   0.351  16.251
   17BGLCN    C37289   1.397   0.230  16.414
   17BGLCN    O37290   1.462   0.163  16.495
   17BGLCN   CT37291   1.247   0.230  16.420
   17BGLCN  HT137292   1.208   0.153  16.351
   17BGLCN  HT237293   1.207   0.330  16.391
   17BGLCN  HT337294   1.214   0.205  16.523
   17BGLCN   C337295   1.683   0.402  16.379
   17BGLCN   H337296   1.666   0.506  16.342
   17BGLCN   O337297   1.645   0.395  16.518
   17BGLCN   C437298   1.827   0.365  16.351
   17BGLCN   H437299   1.842   0.258  16.377
   17BGLCN   O437300   1.919   0.441  16.430
   17BGLCN  HO437301   1.962   0.509  16.378
   17BGLCN   C637302   1.995   0.328  16.166
   17BGLCN  H6137303   2.074   0.381  16.225
   17BGLCN  H6237304   2.001   0.221  16.191
   17BGLCN   O637305   2.025   0.345  16.027
   17BGLCN  HO637306   2.046   0.437  16.012
   18AGAL    C137307   1.658   0.515  16.592
   18AGAL    H137308   1.765   0.544  16.599
   18AGAL    C537309   1.442   0.597  16.527
   18AGAL    H537310   1.431   0.502  16.471
   18AGAL    O537311   1.583   0.625  16.535
   18AGAL    C237312   1.604   0.496  16.734
   18AGAL    H237313   1.612   0.597  16.779
   18AGAL    O237314   1.684   0.407  16.814
   18AGAL    C337315   1.456   0.457  16.728
   18AGAL    H337316   1.448   0.367  16.664
   18AGAL    O337317   1.401   0.421  16.855
   18AGAL   HO337318   1.353   0.339  16.847
   18AGAL    C437319   1.380   0.572  16.665
   18AGAL    H437320   1.274   0.541  16.650
   18AGAL    O437321   1.380   0.690  16.746
   18AGAL   HO437322   1.351   0.761  16.689
   18AGAL    C637323   1.373   0.701  16.439
   18AGAL   H6137324   1.434   0.718  16.348
   18AGAL   H6237325   1.276   0.658  16.406
   18AGAL    O637326   1.348   0.825  16.505
   18AGAL   HO637327   1.428   0.878  16.508
   19ARHM    C137328   1.690   0.449  16.948
   19ARHM    H137329   1.598   0.505  16.975
   19ARHM    C537330   1.928   0.474  16.954
   19ARHM    H537331   1.934   0.438  16.849
   19ARHM    O537332   1.800   0.536  16.975
   19ARHM    C237333   1.699   0.328  17.039
   19ARHM    H237334   1.622   0.255  17.005
   19ARHM    O237335   1.672   0.362  17.176
   19ARHM    C337336   1.831   0.257  17.021
   19ARHM    H337337   1.839   0.223  16.916
   19ARHM    O337338   1.838   0.141  17.104
   19ARHM   HO337339   1.810   0.161  17.193
   19ARHM    C437340   1.945   0.355  17.048
   19ARHM    H437341   1.938   0.392  17.153
   19ARHM    O437342   2.073   0.294  17.031
   19ARHM   HO437343   2.064   0.226  16.963
   19ARHM    C637344   2.032   0.585  16.973
   19ARHM   H6137345   2.009   0.670  16.906
   19ARHM   H6237346   2.033   0.619  17.078
   19ARHM   H6337347   2.133   0.546  16.946
   20ARHM    C137348   1.536   0.392  17.198
   20ARHM    H137349   1.474   0.353  17.115
   20ARHM    C537350   1.571   0.596  17.318
   20ARHM    H537351   1.681   0.584  17.311
   20ARHM    O537352   1.509   0.533  17.205
   20ARHM    C237353   1.491   0.325  17.326
   20ARHM    H237354   1.520   0.218  17.322
   20ARHM    O237355   1.349   0.333  17.339
   20ARHM    C337356   1.557   0.387  17.445
   20ARHM    H337357   1.667   0.374  17.435
   20ARHM    O337358   1.511   0.319  17.563
   20ARHM    C437359   1.523   0.534  17.448
   20ARHM    H437360   1.412   0.544  17.454
   20ARHM    O437361   1.578   0.601  17.562
   20ARHM   HO437362   1.526   0.680  17.578
   20ARHM    C637363   1.536   0.746  17.305
   20ARHM   H6137364   1.426   0.760  17.308
   20ARHM   H6237365   1.581   0.803  17.390
   20ARHM   H6337366   1.576   0.787  17.210
   21BMANN   C137367   1.278   0.242  17.259
   21BMANN   H137368   1.346   0.186  17.191
   21BMANN   C537369   1.109   0.227  17.093
   21BMANN   H537370   1.180   0.173  17.026
   21BMANN   O537371   1.183   0.314  17.180
   21BMANN   C237372   1.208   0.145  17.351
   21BMANN   H237373   1.288   0.088  17.404
   21BMANN    N37374   1.128   0.216  17.451
   21BMANN   HN37375   1.079   0.296  17.418
   21BMANN    C37376   1.122   0.183  17.581
   21BMANN    O37377   1.179   0.086  17.629
   21BMANN   CT37378   1.039   0.274  17.667
   21BMANN  HT137379   0.932   0.246  17.658
   21BMANN  HT237380   1.054   0.380  17.635
   21BMANN  HT337381   1.071   0.264  17.773
   21BMANN   C337382   1.131   0.048  17.264
   21BMANN   H337383   1.203   8.141  17.198
   21BMANN   O337384   1.069   8.090  17.342
   21BMANN  HO337385   0.995   8.126  17.391
   21BMANN   C437386   1.033   0.125  17.177
   21BMANN   H437387   0.959   0.177  17.241
   21BMANN   O437388   0.961   0.039  17.089
   21BMANN  HO437389   0.961   8.093  17.123
   21BMANN   C637390   1.018   0.313  17.008
   21BMANN  H6137391   0.963   0.247  16.937
   21BMANN  H6237392   0.943   0.364  17.071
   21BMANN   O637393   1.090   0.410  16.931
   21BMANN  HO637394   1.140   0.467  16.991
   22BGLCN   C137395   1.610   0.302  17.661
   22BGLCN   H137396   1.686   0.383  17.655
   22BGLCN   C537397   1.771   0.153  17.750
   22BGLCN   H537398   1.849   0.232  17.742
   22BGLCN   O537399   1.671   0.174  17.649
   22BGLCN   C237400   1.537   0.310  17.793
   22BGLCN   H237401   1.464   0.226  17.796
   22BGLCN    N37402   1.463   0.436  17.801
   22BGLCN   HN37403   1.500   0.510  17.746
   22BGLCN    C37404   1.347   0.453  17.865
   22BGLCN    O37405   1.288   0.364  17.923
   22BGLCN   CT37406   1.291   0.592  17.862
   22BGLCN  HT137407   1.234   0.608  17.768
   22BGLCN  HT237408   1.372   0.667  17.869
   22BGLCN  HT337409   1.222   0.604  17.948
   22BGLCN   C337410   1.637   0.292  17.906
   22BGLCN   H337411   1.713   0.373  17.900
   22BGLCN   O337412   1.561   0.308  18.027
   22BGLCN   C437413   1.707   0.158  17.888
   22BGLCN   H437414   1.632   0.077  17.897
   22BGLCN   O437415   1.810   0.138  17.986
   22BGLCN  HO437416   1.821   0.045  18.006
   22BGLCN   C637417   1.837   0.019  17.719
   22BGLCN  H6137418   1.919   0.002  17.792
   22BGLCN  H6237419   1.761   8.082  17.731
   22BGLCN   O637420   1.894   0.012  17.588
   22BGLCN  HO637421   1.833   0.050  17.524
   23AGAL    C137422   1.627   0.321  18.150
   23AGAL    H137423   1.674   0.224  18.177
   23AGAL    C537424   1.674   0.553  18.120
   23AGAL    H537425   1.617   0.548  18.024
   23AGAL    O537426   1.728   0.423  18.148
   23AGAL    C237427   1.525   0.356  18.258
   23AGAL    H237428   1.578   0.357  18.355
   23AGAL    O237429   1.417   0.262  18.262
   23AGAL    C337430   1.464   0.493  18.234
   23AGAL    H337431   1.409   0.491  18.137
   23AGAL    O337432   1.372   0.528  18.337
   23AGAL   HO337433   1.427   0.547  18.413
   23AGAL    C437434   1.575   0.596  18.228
   23AGAL    H437435   1.531   0.694  18.198
   23AGAL    O437436   1.637   0.613  18.355
   23AGAL   HO437437   1.725   0.646  18.336
   23AGAL    C637438   1.788   0.650  18.096
   23AGAL   H6137439   1.857   0.606  18.021
   23AGAL   H6237440   1.749   0.745  18.054
   23AGAL    O637441   1.863   0.681  18.215
   23AGAL   HO637442   1.952   0.706  18.190
   24ARHM    C137443   1.432   0.147  18.340
   24ARHM    H137444   1.539   0.118  18.343
   24ARHM    C537445   1.222   0.066  18.266
   24ARHM    H537446   1.210   0.158  18.205
   24ARHM    O537447   1.361   0.036  18.282
   24ARHM    C237448   1.379   0.176  18.478
   24ARHM    H237449   1.425   0.271  18.514
   24ARHM    O237450   1.414   0.071  18.570
   24ARHM    C337451   1.231   0.204  18.470
   24ARHM    H337452   1.215   0.295  18.408
   24ARHM    O337453   1.176   0.230  18.599
   24ARHM   HO337454   1.082   0.210  18.589
   24ARHM    C437455   1.159   0.088  18.404
   24ARHM    H437456   1.172   8.141  18.465
   24ARHM    O437457   1.019   0.116  18.393
   24ARHM   HO437458   0.982   0.067  18.319
   24ARHM    C637459   1.162   8.095  18.186
   24ARHM   H6137460   1.054   8.109  18.165
   24ARHM   H6237461   1.215   8.086  18.088
   24ARHM   H6337462   1.176   7.999  18.240
   25ARHM    C137463   1.543   0.089  18.623
   25ARHM    H137464   1.602   0.153  18.555
   25ARHM    C537465   1.569   8.021  18.726
   25ARHM    H537466   1.467   7.989  18.697
   25ARHM    O537467   1.620   8.113  18.629
   25ARHM    C237468   1.535   0.158  18.757
   25ARHM    H237469   1.464   0.244  18.750
   25ARHM    O237470   1.664   0.205  18.796
   25ARHM    C337471   1.478   0.066  18.861
   25ARHM    H337472   1.374   0.038  18.833
   25ARHM    O337473   1.477   0.135  18.988
   25ARHM    C437474   1.565   8.086  18.864
   25ARHM    H437475   1.668   8.116  18.892
   25ARHM    O437476   1.517   7.994  18.961
   25ARHM   HO437477   1.574   7.917  18.964
   25ARHM    C637478   1.663   7.899  18.721
   25ARHM   H6137479   1.667   7.858  18.618
   25ARHM   H6237480   1.766   7.928  18.750
   25ARHM   H6337481   1.628   7.820  18.790
   26BMANN   C137482   1.703   0.325  18.734
   26BMANN   H137483   1.616   0.375  18.686
   26BMANN   C537484   1.844   0.430  18.575
   26BMANN   H537485   1.753   0.473  18.529
   26BMANN   O537486   1.806   0.305  18.637
   26BMANN   C237487   1.755   0.413  18.845
   26BMANN   H237488   1.670   0.427  18.915
   26BMANN    N37489   1.865   0.351  18.917
   26BMANN   HN37490   1.928   0.295  18.864
   26BMANN    C37491   1.886   0.363  19.049
   26BMANN    O37492   1.807   0.419  19.124
   26BMANN   CT37493   2.013   0.302  19.102
   26BMANN  HT137494   2.083   0.281  19.019
   26BMANN  HT237495   1.989   0.208  19.156
   26BMANN  HT337496   2.060   0.374  19.173
   26BMANN   C337497   1.789   0.548  18.783
   26BMANN   H337498   1.698   0.587  18.732
   26BMANN   O337499   1.823   0.644  18.883
   26BMANN  HO337500   1.850   0.725  18.840
   26BMANN   C437501   1.897   0.529  18.678
   26BMANN   H437502   1.989   0.488  18.725
   26BMANN   O437503   1.928   0.652  18.614
   26BMANN  HO437504   2.006   0.692  18.654
   26BMANN   C637505   1.941   0.403  18.460
   26BMANN  H6137506   1.899   0.325  18.393
   26BMANN  H6237507   1.951   0.496  18.399
   26BMANN   O637508   2.071   0.364  18.505
   26BMANN  HO637509   2.137   0.402  18.447
   27BGLCN   C137510   1.367   0.112  19.071
   27BGLCN   H137511   1.344   0.004  19.076
   27BGLCN   C537512   1.138   0.169  19.111
   27BGLCN   H537513   1.112   0.061  19.115
   27BGLCN   O537514   1.253   0.187  19.027
   27BGLCN   C237515   1.403   0.167  19.209
   27BGLCN   H237516   1.408   0.277  19.194
   27BGLCN    N37517   1.533   0.124  19.258
   27BGLCN   HN37518   1.566   0.034  19.232
   27BGLCN    C37519   1.612   0.205  19.331
   27BGLCN    O37520   1.577   0.318  19.364
   27BGLCN   CT37521   1.747   0.152  19.369
   27BGLCN  HT137522   1.756   0.045  19.342
   27BGLCN  HT237523   1.761   0.163   0.006
   27BGLCN  HT337524   1.825   0.210  19.317
   27BGLCN   C337525   1.287   0.141  19.306
   27BGLCN   H337526   1.264   0.033  19.298
   27BGLCN   O337527   1.329   0.169  19.442
   27BGLCN   C437528   1.167   0.218  19.253
   27BGLCN   H437529   1.193   0.326  19.249
   27BGLCN   O437530   1.051   0.206  19.335
   27BGLCN  HO437531   1.035   0.115  19.361
   27BGLCN   C637532   1.025   0.243  19.043
   27BGLCN  H6137533   0.933   0.240  19.105
   27BGLCN  H6237534   1.052   0.350  19.029
   27BGLCN   O637535   0.995   0.185  18.915
   27BGLCN  HO637536   1.070   0.201  18.858
   28AGAL    C137537   1.251   0.120   0.078
   28AGAL    H137538   1.164   0.187   0.091
   28AGAL    C537539   1.312   8.035   0.049
   28AGAL    H537540   1.382   8.066  19.441
   28AGAL    O537541   1.204   8.130   0.056
   28AGAL    C237542   1.328   0.119   0.211
   28AGAL    H237543   1.255   0.072   0.281
   28AGAL    O237544   1.361   0.248   0.266
   28AGAL    C337545   1.449   0.027   0.202
   28AGAL    H337546   1.510   0.059   0.115
   28AGAL    O337547   1.533   0.032   0.318
   28AGAL   HO337548   1.609   0.088   0.301
   28AGAL    C437549   1.397   8.031   0.176
   28AGAL    H437550   1.484   7.964   0.156
   28AGAL    O437551   1.329   7.977   0.290
   28AGAL   HO437552   1.390   7.917   0.334
   28AGAL    C637553   1.256   7.901   0.004
   28AGAL   H6137554   1.209   7.914  19.377
   28AGAL   H6237555   1.338   7.827  19.466
   28AGAL    O637556   1.157   7.847   0.093
   28AGAL   HO637557   1.090   7.914   0.107
   29ARHM    C137558   1.337   0.256   0.405
   29ARHM    H137559   1.349   0.156   0.452
   29ARHM    C537560   1.186   0.438   0.378
   29ARHM    H537561   1.193   0.434   0.267
   29ARHM    O537562   1.206   0.307   0.432
   29ARHM    C237563   1.439   0.349   0.468
   29ARHM    H237564   1.541   0.308   0.447
   29ARHM    O237565   1.419   0.364   0.611
   29ARHM    C337566   1.429   0.485   0.404
   29ARHM    H337567   1.441   0.475   0.294
   29ARHM    O337568   1.530   0.574   0.451
   29ARHM   HO337569   1.487   0.660   0.458
   29ARHM    C437570   1.290   0.537   0.432
   29ARHM    H437571   1.275   0.545   0.542
   29ARHM    O437572   1.271   0.668   0.378
   29ARHM   HO437573   1.264   0.661   0.283
   29ARHM    C637574   1.043   0.477   0.417
   29ARHM   H6137575   0.971   0.403   0.375
   29ARHM   H6237576   1.032   0.479   0.528
   29ARHM   H6337577   1.018   0.577   0.377
   30ARHM    C137578   1.487   0.270   0.691
   30ARHM    H137579   1.594   0.267   0.661
   30ARHM    C537580   1.294   0.134   0.722
   30ARHM    H537581   1.235   0.208   0.666
   30ARHM    O537582   1.431   0.138   0.679
   30ARHM    C237583   1.480   0.314   0.837
   30ARHM    H237584   1.511   0.421   0.841
   30ARHM    O237585   1.567   0.235   0.919
   30ARHM    C337586   1.337   0.308   0.890
   30ARHM    H337587   1.276   0.376   0.827
   30ARHM    O337588   1.330   0.358   1.025
   30ARHM    C437589   1.284   0.167   0.870
   30ARHM    H437590   1.345   0.094   0.927
   30ARHM    O437591   1.148   0.155   0.913
   30ARHM   HO437592   1.119   0.239   0.949
   30ARHM    C637593   1.238   8.139   0.686
   30ARHM   H6137594   1.130   8.135   0.710
   30ARHM   H6237595   1.250   8.119   0.578
   30ARHM   H6337596   1.290   8.060   0.745
   31BMANN   C137597   1.693   0.292   0.946
   31BMANN   H137598   1.684   0.400   0.970
   31BMANN   C537599   1.916   0.319   0.864
   31BMANN   H537600   1.911   0.426   0.894
   31BMANN   O537601   1.783   0.270   0.837
   31BMANN   C237602   1.742   0.214   1.067
   31BMANN   H237603   1.676   0.239   1.152
   31BMANN    N37604   1.729   0.070   1.047
   31BMANN   HN37605   1.696   0.043   0.956
   31BMANN    C37606   1.746   8.119   1.139
   31BMANN    O37607   1.785   8.143   1.253
   31BMANN   CT37608   1.716   7.978   1.097
   31BMANN  HT137609   1.762   7.957   0.998
   31BMANN  HT237610   1.606   7.964   1.090
   31BMANN  HT337611   1.757   7.908   1.172
   31BMANN   C337612   1.881   0.266   1.100
   31BMANN   H337613   1.874   0.376   1.112
   31BMANN   O337614   1.931   0.219   1.225
   31BMANN  HO337615   1.888   0.136   1.248
   31BMANN   C437616   1.974   0.241   0.983
   31BMANN   H437617   1.976   0.133   0.958
   31BMANN   O437618   2.106   0.283   1.012
   31BMANN  HO437619   2.117   0.277   1.108
   31BMANN   C637620   1.999   0.312   0.737
   31BMANN  H6137621   2.107   0.318   0.762
   31BMANN  H6237622   1.983   0.214   0.687
   31BMANN   O637623   1.968   0.418   0.647
   31BMANN  HO637624   2.038   0.483   0.650
   32BGLCN   C137625   1.356   0.270   1.132
   32BGLCN   H137626   1.443   0.205   1.110
   32BGLCN   C537627   1.268   0.094   1.270
   32BGLCN   H537628   1.354   0.029   1.243
   32BGLCN   O537629   1.243   0.188   1.164
   32BGLCN   C237630   1.385   0.353   1.256
   32BGLCN   H237631   1.289   0.402   1.283
   32BGLCN    N37632   1.481   0.459   1.228
   32BGLCN   HN37633   1.556   0.437   1.165
   32BGLCN    C37634   1.468   0.585   1.271
   32BGLCN    O37635   1.381   0.620   1.350
   32BGLCN   CT37636   1.569   0.684   1.220
   32BGLCN  HT137637   1.612   0.650   1.123
   32BGLCN  HT237638   1.651   0.697   1.294
   32BGLCN  HT337639   1.519   0.782   1.205
   32BGLCN   C337640   1.423   0.258   1.369
   32BGLCN   H337641   1.505   0.194   1.331
   32BGLCN   O337642   1.467   0.323   1.490
   32BGLCN   C437643   1.302   0.171   1.397
   32BGLCN   H437644   1.216   0.236   1.421
   32BGLCN   O437645   1.322   0.084   1.507
   32BGLCN  HO437646   1.308   0.136   1.587
   32BGLCN   C637647   1.145   0.007   1.281
   32BGLCN  H6137648   1.161   8.071   1.356
   32BGLCN  H6237649   1.058   0.068   1.315
   32BGLCN   O637650   1.113   8.091   1.155
   32BGLCN  HO637651   1.112   0.016   1.089
   33AGAL    C137652   1.583   0.263   1.545
   33AGAL    H137653   1.579   0.152   1.531
   33AGAL    C537654   1.719   0.455   1.500
   33AGAL    H537655   1.629   0.508   1.460
   33AGAL    O537656   1.701   0.313   1.480
   33AGAL    C237657   1.595   0.291   1.693
   33AGAL    H237658   1.692   0.247   1.726
   33AGAL    O237659   1.490   0.224   1.764
   33AGAL    C337660   1.604   0.441   1.717
   33AGAL    H337661   1.515   0.489   1.671
   33AGAL    O337662   1.601   0.477   1.856
   33AGAL   HO337663   1.678   0.440   1.899
   33AGAL    C437664   1.729   0.493   1.647
   33AGAL    H437665   1.730   0.604   1.655
   33AGAL    O437666   1.851   0.446   1.704
   33AGAL   HO437667   1.907   0.419   1.631
   33AGAL    C637668   1.839   0.499   1.417
   33AGAL   H6137669   1.814   0.491   1.309
   33AGAL   H6237670   1.862   0.605   1.439
   33AGAL    O637671   1.955   0.420   1.443
   33AGAL   HO637672   1.953   0.341   1.388
   34ARHM    C137673   1.531   0.162   1.884
   34ARHM    H137674   1.588   0.235   1.946
   34ARHM    C537675   1.551   8.087   1.789
   34ARHM    H537676   1.517   8.124   1.690
   34ARHM    O537677   1.617   0.048   1.860
   34ARHM    C237678   1.406   0.119   1.961
   34ARHM    H237679   1.339   0.207   1.968
   34ARHM    O237680   1.431   0.071   2.094
   34ARHM    C337681   1.333   0.009   1.886
   34ARHM    H337682   1.305   0.048   1.786
   34ARHM    O337683   1.213   8.114   1.953
   34ARHM   HO337684   1.155   8.073   1.888
   34ARHM    C437685   1.430   8.038   1.867
   34ARHM    H437686   1.464   8.003   1.967
   34ARHM    O437687   1.370   7.926   1.801
   34ARHM   HO437688   1.414   7.847   1.833
   34ARHM    C637689   1.656   7.977   1.765
   34ARHM   H6137690   1.695   7.939   1.862
   34ARHM   H6237691   1.612   7.892   1.709
   34ARHM   H6337692   1.741   8.017   1.706
   35ARHM    C137693   1.491   0.160   2.184
   35ARHM    H137694   1.459   0.264   2.162
   35ARHM    C537695   1.680   0.015   2.196
   35ARHM    H537696   1.637   8.094   2.117
   35ARHM    O537697   1.634   0.150   2.179
   35ARHM    C237698   1.445   0.117   2.321
   35ARHM    H237699   1.333   0.119   2.322
   35ARHM    O237700   1.494   0.202   2.427
   35ARHM    C337701   1.487   8.118   2.346
   35ARHM    H337702   1.439   8.052   2.271
   35ARHM    O337703   1.441   8.075   2.474
   35ARHM   HO337704   1.465   8.140   2.540
   35ARHM    C437705   1.638   8.107   2.333
   35ARHM    H437706   1.687   0.024   2.411
   35ARHM    O437707   1.682   7.971   2.348
   35ARHM   HO437708   1.634   7.917   2.285
   35ARHM    C637709   1.833   0.019   2.176
   35ARHM   H6137710   1.857   0.061   2.076
   35ARHM   H6237711   1.880   0.083   2.254
   35ARHM   H6337712   1.876   8.061   2.184
   36BMANN   C137713   1.434   0.329   2.433
   36BMANN   H137714   1.325   0.322   2.411
   36BMANN   C537715   1.442   0.553   2.350
   36BMANN   H537716   1.333   0.544   2.333
   36BMANN   O537717   1.499   0.421   2.343
   36BMANN   C237718   1.456   0.377   2.576
   36BMANN   H237719   1.396   0.309   2.640
   36BMANN    N37720   1.595   0.368   2.619
   36BMANN   HN37721   1.664   0.369   2.547
   36BMANN    C37722   1.632   0.354   2.746
   36BMANN    O37723   1.552   0.338   2.838
   36BMANN   CT37724   1.779   0.359   2.775
   36BMANN  HT137725   1.831   0.424   2.702
   36BMANN  HT237726   1.822   0.257   2.771
   36BMANN  HT337727   1.795   0.400   2.878
   36BMANN   C337728   1.395   0.516   2.588
   36BMANN   H337729   1.288   0.510   2.559
   36BMANN   O337730   1.396   0.565   2.722
   36BMANN  HO337731   1.331   0.516   2.773
   36BMANN   C437732   1.463   0.610   2.490
   36BMANN   H437733   1.572   0.613   2.511
   36BMANN   O437734   1.414   0.744   2.499
   36BMANN  HO437735   1.449   0.780   2.581
   36BMANN   C637736   1.494   0.640   2.236
   36BMANN  H6137737   1.474   0.587   2.141
   36BMANN  H6237738   1.437   0.735   2.234
   36BMANN   O637739   1.633   0.670   2.243
   36BMANN  HO637740   1.655   0.712   2.327
    1ECLIP HB6S37741   8.108   8.099  11.841
    1ECLIP  OB637742   7.998   7.949  11.938
    1ECLIP  CB637743   8.105   7.988  11.851
    1ECLIP HB6R37744   0.060   7.956  11.890
    1ECLIP  CB537745   8.080   7.928  11.717
    1ECLIP  OB537746   7.946   7.959  11.680
    1ECLIP  HB537747   8.089   7.818  11.728
    1ECLIP  CB137748   7.910   7.888  11.562
    1ECLIP  HB137749   7.927   7.780  11.579
    1ECLIP  OA637750   7.774   7.901  11.539
    1ECLIP  CA637751   7.720   8.033  11.553
    1ECLIP HA6R37752   7.801   8.110  11.551
    1ECLIP HA6S37753   7.667   8.039  11.650
    1ECLIP  CB437754   0.028   7.976  11.606
    1ECLIP  HB437755   0.009   8.084  11.588
    1ECLIP  OB437756   0.160   7.950  11.656
    1ECLIP   PB37757   0.265   8.075  11.673
    1ECLIP OPB437758   0.379   8.017  11.755
    1ECLIP OPB337759   0.190   0.039  11.749
    1ECLIP OPB237760   0.306   8.115  11.534
    1ECLIP  CB337761   8.140   7.901  11.478
    1ECLIP  OB337762   0.074   7.944  11.367
    1ECLIP  HB337763   0.006   7.792  11.494
    1ECLIP  C7137764   0.199   7.895  11.359
    1ECLIP  O7137765   0.237   7.798  11.423
    1ECLIP  C7237766   0.250   7.923  11.218
    1ECLIP H72R37767   0.177   7.883  11.144
    1ECLIP H72S37768   0.346   7.868  11.207
    1ECLIP  CB237769   7.995   7.929  11.442
    1ECLIP  HB237770   7.983   8.039  11.427
    1ECLIP  NB237771   7.958   7.860  11.319
    1ECLIP HNB237772   7.950   7.761  11.325
    1ECLIP  CA437773   7.584   7.921  11.373
    1ECLIP  HA437774   7.675   7.863  11.347
    1ECLIP  OA437775   7.503   7.848  11.466
    1ECLIP HOA437776   7.461   7.773  11.424
    1ECLIP  CA537777   7.623   8.053  11.439
    1ECLIP  HA537778   7.533   8.108  11.474
    1ECLIP  OA537779   7.695   8.135  11.345
    1ECLIP  CA137780   7.621   0.021  11.227
    1ECLIP  HA137781   7.696   0.070  11.161
    1ECLIP  OA137782   7.510   0.104  11.258
    1ECLIP OPA237783   7.438   0.334  11.347
    1ECLIP OPA337784   7.667   0.300  11.232
    1ECLIP OPA437785   7.476   0.290  11.096
    1ECLIP   PA37786   7.520   0.265  11.238
    1ECLIP  CA337787   7.508   7.946  11.248
    1ECLIP  HA337788   7.411   7.995  11.271
    1ECLIP  OA337789   7.482   7.816  11.194
    1ECLIP  C3137790   7.587   7.748  11.138
    1ECLIP  O3137791   7.636   7.782  11.032
    1ECLIP  C3237792   7.568   7.603  11.173
    1ECLIP H32R37793   7.525   7.558  11.082
    1ECLIP H32S37794   7.500   7.596  11.261
    1ECLIP  CA237795   7.586   8.036  11.155
    1ECLIP  HA237796   7.685   7.990  11.133
    1ECLIP  NA237797   7.515   8.046  11.029
    1ECLIP HNA237798   7.452   7.970  11.015
    1ECLIP  C7337799   0.273   8.073  11.197
    1ECLIP H73R37800   0.331   8.112  11.283
    1ECLIP  O7337801   0.145   8.136  11.189
    1ECLIP  C8137802   0.142   0.121  11.217
    1ECLIP  O8137803   0.237   0.196  11.222
    1ECLIP  C8237804   8.143   0.171  11.193
    1ECLIP H82R37805   8.136   0.271  11.241
    1ECLIP H82S37806   8.073   0.101  11.245
    1ECLIP  C8337807   8.110   0.180  11.042
    1ECLIP H83R37808   8.115   0.077  11.001
    1ECLIP H83S37809   0.044   0.240  10.990
    1ECLIP  C8437810   7.971   0.238  11.012
    1ECLIP H84R37811   7.975   0.347  11.034
    1ECLIP H84S37812   7.901   0.188  11.082
    1ECLIP  C8537813   7.934   0.212  10.865
    1ECLIP H85R37814   7.878   0.116  10.855
    1ECLIP H85S37815   8.030   0.194  10.813
    1ECLIP  C8637816   7.866   0.325  10.786
    1ECLIP H86R37817   7.939   0.408  10.777
    1ECLIP H86S37818   7.776   0.367  10.836
    1ECLIP  C8737819   7.827   0.281  10.644
    1ECLIP H87R37820   7.779   0.366  10.591
    1ECLIP H87S37821   7.752   0.199  10.649
    1ECLIP  C8837822   7.946   0.233  10.560
    1ECLIP H88R37823   7.990   0.142  10.608
    1ECLIP H88S37824   8.026   0.311  10.558
    1ECLIP  C8937825   7.912   0.194  10.415
    1ECLIP H89R37826   7.824   0.126  10.415
    1ECLIP H89S37827   7.998   0.136  10.376
    1ECLIP C81037828   7.888   0.313  10.322
    1ECLIPH810R37829   7.971   0.386  10.332
    1ECLIPH810S37830   7.794   0.364  10.354
    1ECLIP C81137831   7.874   0.274  10.173
    1ECLIPH811R37832   7.841   0.362  10.115
    1ECLIPH811S37833   7.794   0.197  10.165
    1ECLIP C81237834   8.001   0.217  10.108
    1ECLIPH812R37835   7.975   0.178  10.007
    1ECLIPH812S37836   8.040   0.132  10.167
    1ECLIP C81337837   8.113   0.321  10.090
    1ECLIPH813R37838   8.075   0.404  10.026
    1ECLIPH813S37839   8.138   0.365  10.189
    1ECLIP C81437840   0.096   0.263  10.028
    1ECLIPH814R37841   0.074   0.217   9.929
    1ECLIPH814S37842   0.138   0.185  10.094
    1ECLIPH814T37843   0.172   0.342  10.014
    1ECLIP  C7437844   0.355   8.102  11.068
    1ECLIP H74R37845   0.449   8.043  11.071
    1ECLIP H74S37846   0.385   0.065  11.073
    1ECLIP  C7537847   0.285   8.081  10.932
    1ECLIP H75R37848   0.324   0.016  10.864
    1ECLIP H75S37849   0.176   8.096  10.941
    1ECLIP  C7637850   0.315   7.946  10.863
    1ECLIP H76R37851   0.259   7.865  10.913
    1ECLIP H76S37852   0.423   7.924  10.872
    1ECLIP  C7737853   0.280   7.950  10.712
    1ECLIP H77R37854   0.335   8.034  10.665
    1ECLIP H77S37855   0.172   7.971  10.702
    1ECLIP  C7837856   0.315   7.820  10.638
    1ECLIP H78R37857   0.426   7.810  10.637
    1ECLIP H78S37858   0.275   7.733  10.695
    1ECLIP  C7937859   0.263   7.811  10.493
    1ECLIP H79R37860   0.154   7.791  10.495
    1ECLIP H79S37861   0.311   7.723  10.445
    1ECLIP C71037862   0.289   7.934  10.405
    1ECLIPH710R37863   0.233   8.021  10.447
    1ECLIPH710S37864   0.397   7.959  10.409
    1ECLIP C71137865   0.248   7.914  10.258
    1ECLIPH711R37866   0.308   7.831  10.215
    1ECLIPH711S37867   0.141   7.883  10.255
    1ECLIP C71237868   0.265   8.041  10.173
    1ECLIPH712R37869   0.373   8.064  10.166
    1ECLIPH712S37870   0.215   8.125  10.225
    1ECLIP C71337871   0.206   8.030  10.031
    1ECLIPH713R37872   0.096   8.017  10.038
    1ECLIPH713S37873   0.224   8.126   9.978
    1ECLIP C71437874   0.264   7.916   9.946
    1ECLIPH714R37875   0.375   7.924   9.942
    1ECLIPH714S37876   0.238   7.817   9.989
    1ECLIPH714T37877   0.225   7.920   9.842
    1ECLIP  C5137878   7.958   7.914  11.196
    1ECLIP  O5137879   7.943   8.034  11.174
    1ECLIP  C5237880   7.973   7.813  11.084
    1ECLIP H52R37881   8.077   7.773  11.084
    1ECLIP H52S37882   7.904   7.729  11.106
    1ECLIP  C5337883   7.939   7.872  10.946
    1ECLIP H53R37884   7.856   7.944  10.957
    1ECLIP  O5337885   7.904   7.759  10.865
    1ECLIP  C6137886   7.797   7.775  10.789
    1ECLIP  O6137887   7.738   7.880  10.770
    1ECLIP  C6237888   7.791   7.655  10.693
    1ECLIP H62R37889   7.742   7.571  10.746
    1ECLIP H62S37890   7.894   7.625  10.667
    1ECLIP  C6337891   7.713   7.691  10.565
    1ECLIP H63R37892   7.755   7.782  10.518
    1ECLIP H63S37893   7.608   7.715  10.593
    1ECLIP  C6437894   7.712   7.578  10.462
    1ECLIP H64R37895   7.618   7.586  10.403
    1ECLIP H64S37896   7.711   7.479  10.513
    1ECLIP  C6537897   7.827   7.586  10.362
    1ECLIP H65R37898   7.923   7.581  10.417
    1ECLIP H65S37899   7.822   7.685  10.312
    1ECLIP  C6637900   7.824   7.476  10.254
    1ECLIP H66R37901   7.829   7.376  10.302
    1ECLIP H66S37902   7.913   7.488  10.190
    1ECLIP  C6737903   7.701   7.481  10.162
    1ECLIP H67R37904   7.612   7.443  10.216
    1ECLIP H67S37905   7.720   7.412  10.077
    1ECLIP  C6837906   7.671   7.622  10.107
    1ECLIP H68R37907   7.766   7.677  10.092
    1ECLIP H68S37908   7.612   7.678  10.182
    1ECLIP  C6937909   7.596   7.617   9.973
    1ECLIP H69R37910   7.507   7.552   9.990
    1ECLIP H69S37911   7.660   7.566   9.898
    1ECLIP C61037912   7.554   7.756   9.923
    1ECLIPH610R37913   7.641   7.825   9.930
    1ECLIPH610S37914   7.475   7.796   9.990
    1ECLIP C61137915   7.502   7.759   9.778
    1ECLIPH611R37916   7.419   7.687   9.768
    1ECLIPH611S37917   7.461   7.860   9.758
    1ECLIP C61237918   7.608   7.729   9.672
    1ECLIPH612R37919   7.694   7.799   9.681
    1ECLIPH612S37920   7.647   7.625   9.683
    1ECLIPH612T37921   7.566   7.739   9.570
    1ECLIP  C5437922   8.062   7.942  10.883
    1ECLIP H54R37923   8.143   7.867  10.867
    1ECLIP H54S37924   8.100   8.014  10.959
    1ECLIP  C5537925   8.037   8.018  10.752
    1ECLIP H55R37926   8.112   8.099  10.742
    1ECLIP H55S37927   7.936   8.065  10.755
    1ECLIP  C5637928   8.048   7.930  10.626
    1ECLIP H56R37929   7.977   7.845  10.632
    1ECLIP H56S37930   0.005   7.884  10.622
    1ECLIP  C5737931   8.020   8.005  10.496
    1ECLIP H57R37932   8.099   8.081  10.478
    1ECLIP H57S37933   7.922   8.056  10.503
    1ECLIP  C5837934   8.017   7.906  10.379
    1ECLIP H58R37935   8.114   7.852  10.374
    1ECLIP H58S37936   7.939   7.829  10.402
    1ECLIP  C5937937   7.985   7.969  10.244
    1ECLIP H59R37938   8.055   8.054  10.226
    1ECLIP H59S37939   7.882   8.009  10.245
    1ECLIP C51037940   8.001   7.868  10.130
    1ECLIPH510R37941   7.949   7.773  10.157
    1ECLIPH510S37942   8.108   7.844  10.117
    1ECLIP C51137943   7.944   7.920   9.997
    1ECLIPH511R37944   7.833   7.922  10.003
    1ECLIPH511S37945   7.980   8.024   9.982
    1ECLIP C51237946   7.987   7.836   9.877
    1ECLIPH512R37947   7.954   7.890   9.785
    1ECLIPH512S37948   8.098   7.829   9.877
    1ECLIP C51337949   7.928   7.695   9.872
    1ECLIPH513R37950   7.818   7.707   9.874
    1ECLIPH513S37951   7.958   7.638   9.963
    1ECLIP C51437952   7.965   7.615   9.747
    1ECLIPH514R37953   8.075   7.599   9.743
    1ECLIPH514S37954   7.914   7.516   9.749
    1ECLIPH514T37955   7.933   7.669   9.656
    1ECLIP  C3337956   7.697   7.525  11.203
    1ECLIP H33R37957   7.669   7.429  11.253
    1ECLIP  O3337958   7.780   7.599  11.290
    1ECLIP HO3337959   7.845   7.542  11.333
    1ECLIP  C3437960   7.770   7.489  11.072
    1ECLIP H34R37961   7.788   7.582  11.014
    1ECLIP H34S37962   7.702   7.426  11.010
    1ECLIP  C3537963   7.903   7.415  11.089
    1ECLIP H35R37964   7.886   7.313  11.129
    1ECLIP H35S37965   7.967   7.470  11.161
    1ECLIP  C3637966   7.977   7.408  10.955
    1ECLIP H36R37967   7.976   7.509  10.910
    1ECLIP H36S37968   7.924   7.340  10.885
    1ECLIP  C3737969   8.123   7.364  10.969
    1ECLIP H37R37970   8.129   7.253  10.975
    1ECLIP H37S37971   0.021   7.404  11.064
    1ECLIP  C3837972   0.067   7.415  10.854
    1ECLIP H38R37973   0.072   7.526  10.859
    1ECLIP H38S37974   0.171   7.377  10.867
    1ECLIP  C3937975   0.016   7.375  10.715
    1ECLIP H39R37976   8.057   7.415  10.701
    1ECLIP H39S37977   0.010   7.264  10.709
    1ECLIP C31037978   0.105   7.427  10.601
    1ECLIPH310R37979   0.202   7.374  10.603
    1ECLIPH310S37980   0.125   7.535  10.619
    1ECLIP C31137981   0.038   7.410  10.464
    1ECLIPH311R37982   0.017   7.303  10.446
    1ECLIPH311S37983   8.085   7.464  10.468
    1ECLIP C31237984   0.122   7.467  10.349
    1ECLIPH312R37985   0.166   7.564  10.380
    1ECLIPH312S37986   0.206   7.397  10.327
    1ECLIP C31337987   0.039   7.491  10.222
    1ECLIPH313R37988   8.131   7.397  10.196
    1ECLIPH313S37989   8.106   7.567  10.246
    1ECLIP C31437990   0.120   7.539  10.102
    1ECLIPH314R37991   0.196   7.463  10.074
    1ECLIPH314S37992   0.054   7.557  10.015
    1ECLIPH314T37993   0.173   7.634  10.126
    1ECLIP  C1137994   7.527   8.131  10.927
    1ECLIP  O1137995   7.611   0.078  10.924
    1ECLIP  C1237996   7.424   8.111  10.818
    1ECLIP H12R37997   7.356   0.055  10.815
    1ECLIP H12S37998   7.362   8.023  10.846
    1ECLIP  C1337999   7.485   8.083  10.680
    1ECLIP H13R38000   7.589   8.042  10.688
    1ECLIP  O1338001   7.490   0.061  10.608
    1ECLIP HO1338002   7.515   0.047  10.516
    1ECLIP  C1438003   7.399   7.980  10.603
    1ECLIP H14R38004   7.292   7.999  10.629
    1ECLIP H14S38005   7.424   7.879  10.642
    1ECLIP  C1538006   7.409   7.980  10.450
    1ECLIP H15R38007   7.371   8.077  10.412
    1ECLIP H15S38008   7.341   7.902  10.409
    1ECLIP  C1638009   7.550   7.953  10.394
    1ECLIP H16R38010   7.567   7.844  10.397
    1ECLIP H16S38011   7.629   8.001  10.456
    1ECLIP  C1738012   7.564   8.001  10.249
    1ECLIP H17R38013   7.475   7.968  10.191
    1ECLIP H17S38014   7.653   7.952  10.205
    1ECLIP  C1838015   7.581   0.009  10.238
    1ECLIP H18R38016   7.506   0.060  10.302
    1ECLIP H18S38017   7.682   0.037  10.275
    1ECLIP  C1938018   7.562   0.063  10.095
    1ECLIP H19R38019   7.579   0.172  10.093
    1ECLIP H19S38020   7.456   0.046  10.066
    1ECLIP C11038021   7.652   8.139   9.991
    1ECLIPH110R38022   7.756   0.031  10.003
    1ECLIPH110S38023   7.652   8.029  10.004
    1ECLIP C11138024   7.603   0.022   9.848
    1ECLIPH111R38025   7.512   8.107   9.828
    1ECLIPH111S38026   7.574   0.129   9.842
    1ECLIP C11238027   7.708   8.136   9.741
    1ECLIPH112R38028   7.808   0.026   9.775
    1ECLIPH112S38029   7.714   8.026   9.725
    1ECLIP C11338030   7.675   0.064   9.610
    1ECLIPH113R38031   7.566   0.055   9.589
    1ECLIPH113S38032   7.692   0.173   9.625
    1ECLIP C11438033   7.755   0.017   9.489
    1ECLIPH114R38034   7.864   0.035   9.504
    1ECLIPH114S38035   7.741   8.052   9.473
    1ECLIPH114T38036   7.722   0.071   9.398
    2AKDO    C138037   8.103   7.758  12.033
    2AKDO   O1138038   0.083   7.744  12.053
    2AKDO   O1238039   8.020   7.667  12.008
    2AKDO    C238040   8.040   7.898  12.063
    2AKDO    C638041   8.078   8.116  12.147
    2AKDO    H638042   8.033   8.136  12.048
    2AKDO    O638043   8.134   7.985  12.131
    2AKDO    C338044   7.909   7.895  12.144
    2AKDO   H3138045   7.926   7.847  12.242
    2AKDO   H3238046   7.836   7.834  12.088
    2AKDO    C438047   7.852   8.033  12.164
    2AKDO    H438048   7.837   8.077  12.063
    2AKDO    O438049   7.727   8.035  12.231
    2AKDO    C538050   7.954   8.120  12.239
    2AKDO    H538051   7.920   0.082  12.239
    2AKDO    O538052   7.968   8.082  12.379
    2AKDO    C738053   0.034   0.087  12.150
    2AKDO    H738054   0.058   0.115  12.255
    2AKDO    O738055   8.119   0.201  12.084
    2AKDO   HO738056   0.015   0.203  11.997
    2AKDO    C838057   0.165   0.050  12.082
    2AKDO   H8138058   0.210   8.105  12.130
    2AKDO   H8238059   0.146   0.022  11.976
    2AKDO    O838060   0.259   0.158  12.088
    2AKDO   HO838061   0.297   0.163  12.000
    3AKDO    C138062   7.549   8.089  12.051
    3AKDO   O1138063   7.634   0.007  11.980
    3AKDO   O1238064   7.424   8.104  12.044
    3AKDO    C238065   7.599   8.005  12.175
    3AKDO    C638066   7.605   7.774  12.253
    3AKDO    H638067   7.713   7.786  12.275
    3AKDO    O638068   7.573   7.865  12.144
    3AKDO    C338069   7.521   8.040  12.302
    3AKDO   H3138070   7.412   8.028  12.282
    3AKDO   H3238071   7.538   0.003  12.326
    3AKDO    C438072   7.559   7.953  12.418
    3AKDO    H438073   7.668   7.961  12.439
    3AKDO    O438074   7.492   8.002  12.534
    3AKDO   HO438075   7.544   7.985  12.613
    3AKDO    C538076   7.528   7.808  12.381
    3AKDO    H538077   7.569   7.745  12.463
    3AKDO    O538078   7.388   7.778  12.369
    3AKDO   HO538079   7.379   7.684  12.358
    3AKDO    C738080   7.582   7.629  12.206
    3AKDO    H738081   7.479   7.620  12.167
    3AKDO    O738082   7.594   7.539  12.317
    3AKDO   HO738083   7.580   7.451  12.282
    3AKDO    C838084   7.681   7.589  12.099
    3AKDO   H8138085   7.669   7.656  12.012
    3AKDO   H8238086   7.785   7.601  12.136
    3AKDO    O838087   7.664   7.453  12.056
    3AKDO   HO838088   7.570   7.433  12.046
    4AHEP    C138089   8.029   0.032  12.468
    4AHEP    H138090   8.129   0.053  12.424
    4AHEP    C538091   7.845   0.158  12.561
    4AHEP    H538092   7.777   0.079  12.523
    4AHEP    O538093   7.963   0.160  12.477
    4AHEP    C238094   8.065   8.130  12.610
    4AHEP    H238095   8.101   8.026  12.600
    4AHEP    O238096   0.030   0.060  12.666
    4AHEP   HO238097   0.098   8.142  12.692
    4AHEP    C338098   7.946   8.127  12.704
    4AHEP    H338099   7.870   8.057  12.664
    4AHEP    O338100   7.991   8.088  12.835
    4AHEP    C438101   7.882   0.122  12.707
    4AHEP    H438102   7.958   0.194  12.744
    4AHEP    O438103   7.765   0.122  12.790
    4AHEP    P438104   7.730   0.237  12.906
    4AHEP  OP4238105   7.595   0.201  12.964
    4AHEP  OP4338106   7.727   0.374  12.840
    4AHEP  OP4438107   7.841   0.236  13.009
    4AHEP    C638108   7.771   0.291  12.552
    4AHEP    H638109   7.674   0.281  12.605
    4AHEP    O638110   7.846   0.393  12.617
    4AHEP   HO638111   7.813   0.381  12.707
    4AHEP    C738112   7.740   0.340  12.412
    4AHEP   H7138113   7.693   0.441  12.417
    4AHEP   H7238114   7.665   0.273  12.367
    4AHEP    O738115   7.859   0.350  12.332
    4AHEP   HO738116   7.925   0.309  12.388
    5AHEP    C138117   7.928   7.975  12.890
    5AHEP    H138118   7.829   7.960  12.841
    5AHEP    C538119   8.130   7.853  12.944
    5AHEP    H538120   0.047   7.935  12.899
    5AHEP    O538121   8.003   7.851  12.876
    5AHEP    C238122   7.902   8.001  13.037
    5AHEP    H238123   7.853   8.101  13.045
    5AHEP    O238124   7.810   7.905  13.091
    5AHEP   HO238125   7.840   7.818  13.065
    5AHEP    C338126   8.032   8.008  13.113
    5AHEP    H338127   8.092   8.094  13.074
    5AHEP    O338128   8.010   8.022  13.254
    5AHEP    C438129   8.109   7.880  13.093
    5AHEP    H438130   8.056   7.795  13.140
    5AHEP    O438131   0.096   7.899  13.145
    5AHEP    P438132   0.149   7.835  13.286
    5AHEP  OP4238133   0.267   7.923  13.323
    5AHEP  OP4338134   0.191   7.691  13.259
    5AHEP  OP4438135   0.038   7.848  13.387
    5AHEP    C638136   0.061   7.720  12.919
    5AHEP    H638137   0.161   7.728  12.967
    5AHEP    O638138   8.137   7.608  12.978
    5AHEP   HO638139   0.005   7.543  12.908
    5AHEP    C738140   0.081   7.688  12.771
    5AHEP   H7138141   0.190   7.692  12.751
    5AHEP   H7238142   0.036   7.768  12.708
    5AHEP    O738143   0.032   7.558  12.731
    6AHEP    C138144   8.048   7.565  12.673
    6AHEP    H138145   7.997   7.656  12.710
    6AHEP    C538146   8.103   7.454  12.465
    6AHEP    H538147   0.064   7.438  12.498
    6AHEP    O538148   8.053   7.573  12.530
    6AHEP    C238149   7.961   7.447  12.717
    6AHEP    H238150   7.970   7.437  12.827
    6AHEP    O238151   7.822   7.467  12.690
    6AHEP   HO238152   7.785   7.380  12.673
    6AHEP    C338153   8.014   7.319  12.656
    6AHEP    H338154   8.116   7.303  12.696
    6AHEP    O338155   7.935   7.206  12.694
    6AHEP   HO338156   7.977   7.128  12.657
    6AHEP    C438157   8.018   7.334  12.505
    6AHEP    H438158   7.914   7.350  12.467
    6AHEP    O438159   8.068   7.216  12.443
    6AHEP   HO438160   0.009   7.195  12.481
    6AHEP    C638161   8.102   7.468  12.310
    6AHEP    H638162   8.037   7.389  12.266
    6AHEP    O638163   8.046   7.594  12.270
    6AHEP   HO638164   8.041   7.594  12.174
    6AHEP    C738165   0.096   7.452  12.249
    6AHEP   H7138166   0.089   7.454  12.138
    6AHEP   H7238167   0.138   7.353  12.277
    6AHEP    O738168   0.187   7.555  12.292
    6AHEP   HO738169   0.147   7.636  12.261
    7AGLC    C138170   8.007   0.008  13.308
    7AGLC    H138171   8.085   0.072  13.261
    7AGLC    C538172   7.773   8.134  13.347
    7AGLC    H538173   7.775   8.034  13.299
    7AGLC    O538174   7.879   0.070  13.293
    7AGLC    C238175   8.031   8.138  13.458
    7AGLC    H238176   8.023   0.097  13.500
    7AGLC    O238177   0.020   8.095  13.485
    7AGLC   HO238178   0.030   8.008  13.447
    7AGLC    C338179   7.927   8.049  13.524
    7AGLC    H338180   7.930   7.949  13.477
    7AGLC    O338181   7.947   8.037  13.668
    7AGLC    C438182   7.792   8.115  13.497
    7AGLC    H438183   7.791   0.071  13.545
    7AGLC    O438184   7.684   8.039  13.548
    7AGLC   HO438185   7.603   8.062  13.502
    7AGLC    C638186   7.642   0.057  13.309
    7AGLC   H6138187   7.644   0.081  13.200
    7AGLC   H6238188   7.557   8.131  13.325
    7AGLC    O638189   7.620   0.177  13.384
    7AGLC   HO638190   7.658   0.247  13.330
    8AGLC    C138191   7.959   7.904  13.717
    8AGLC    H138192   7.883   7.839  13.669
    8AGLC    C538193   0.053   7.922  13.743
    8AGLC    H538194   0.045   8.028  13.710
    8AGLC    O538195   8.088   7.848  13.688
    8AGLC    C238196   7.942   7.899  13.871
    8AGLC    H238197   7.949   7.792  13.900
    8AGLC    O238198   7.815   7.951  13.920
    8AGLC    C338199   8.056   7.976  13.937
    8AGLC    H338200   8.048   8.082  13.908
    8AGLC    O338201   8.037   7.966  14.080
    8AGLC    C438202   0.046   7.921  13.893
    8AGLC    H438203   0.062   7.815  13.923
    8AGLC    O438204   0.152   8.002  13.946
    8AGLC   HO438205   0.185   8.059  13.876
    8AGLC    C638206   0.183   7.864  13.690
    8AGLC   H6138207   0.178   7.854  13.580
    8AGLC   H6238208   0.266   7.935  13.712
    8AGLC    O638209   0.220   7.737  13.747
    8AGLC   HO638210   0.312   7.725  13.722
    9AGAL    C138211   7.696   7.908  13.856
    9AGAL    H138212   7.707   7.914  13.746
    9AGAL    C538213   7.628   7.747  14.022
    9AGAL    H538214   7.713   7.785  14.082
    9AGAL    O538215   7.663   7.770  13.884
    9AGAL    C238216   7.577   8.000  13.893
    9AGAL    H238217   7.491   7.967  13.830
    9AGAL    O238218   7.606   8.135  13.847
    9AGAL    C338219   7.539   7.976  14.039
    9AGAL    H338220   7.627   8.002  14.102
    9AGAL    O338221   7.426   8.051  14.087
    9AGAL   HO338222   7.351   8.024  14.033
    9AGAL    C438223   7.506   7.829  14.056
    9AGAL    H438224   7.482   7.810  14.163
    9AGAL    O438225   7.392   7.792  13.978
    9AGAL   HO438226   7.422   7.767  13.890
    9AGAL    C638227   7.617   7.598  14.057
    9AGAL   H6138228   7.675   7.537  13.984
    9AGAL   H6238229   7.662   7.582  14.157
    9AGAL    O638230   7.485   7.545  14.069
    9AGAL   HO638231   7.455   7.518  13.981
   10AGAL    C138232   7.532   0.098  13.901
   10AGAL    H138233   7.426   0.066  13.916
   10AGAL    C538234   7.724   0.199  14.000
   10AGAL    H538235   7.783   0.126  13.941
   10AGAL    O538236   7.593   0.141  14.023
   10AGAL    C238237   7.519   0.219  13.808
   10AGAL    H238238   7.457   0.292  13.863
   10AGAL    O238239   7.446   0.188  13.688
   10AGAL   HO238240   7.498   0.132  13.630
   10AGAL    C338241   7.652   0.286  13.781
   10AGAL    H338242   7.720   0.212  13.731
   10AGAL    O338243   7.640   0.399  13.694
   10AGAL   HO338244   7.618   0.371  13.605
   10AGAL    C438245   7.713   0.325  13.914
   10AGAL    H438246   7.815   0.364  13.897
   10AGAL    O438247   7.637   0.426  13.982
   10AGAL   HO438248   7.638   0.504  13.925
   10AGAL    C638249   7.801   0.219  14.129
   10AGAL   H6138250   7.839   0.119  14.162
   10AGAL   H6238251   7.891   0.282  14.110
   10AGAL    O638252   7.724   0.276  14.235
   10AGAL   HO638253   7.777   0.269  14.315
   11BGLC    C138254   8.118   7.879  14.157
   11BGLC    H138255   0.079   7.915  14.160
   11BGLC    C538256   0.049   7.653  14.183
   11BGLC    H538257   0.153   7.692  14.185
   11BGLC    O538258   8.112   7.745  14.107
   11BGLC    C238259   8.061   7.878  14.297
   11BGLC    H238260   7.955   7.846  14.284
   11BGLC    O238261   8.064   8.008  14.357
   11BGLC   HO238262   7.990   8.012  14.417
   11BGLC    C338263   8.134   7.782  14.387
   11BGLC    H338264   0.092   7.820  14.411
   11BGLC    O338265   8.052   7.764  14.506
   11BGLC    C438266   8.136   7.646  14.323
   11BGLC    H438267   8.033   7.605  14.319
   11BGLC    O438268   0.071   7.558  14.402
   11BGLC   HO438269   0.012   7.519  14.466
   11BGLC    C638270   0.050   7.521  14.107
   11BGLC   H6138271   8.118   7.450  14.149
   11BGLC   H6238272   0.022   7.539  14.001
   11BGLC    O638273   0.178   7.459  14.106
   11BGLC   HO638274   0.189   7.405  14.185
   12BGLCN   C138275   8.110   7.786  14.631
   12BGLCN   H138276   8.134   7.894  14.639
   12BGLCN   C538277   0.149   7.733  14.772
   12BGLCN   H538278   0.177   7.840  14.775
   12BGLCN   O538279   0.084   7.708  14.648
   12BGLCN   C238280   8.012   7.745  14.742
   12BGLCN   H238281   8.008   7.634  14.739
   12BGLCN    N38282   7.877   7.788  14.709
   12BGLCN   HN38283   7.868   7.842  14.626
   12BGLCN    C38284   7.768   7.730  14.758
   12BGLCN    O38285   7.770   7.665  14.861
   12BGLCN   CT38286   7.640   7.749  14.682
   12BGLCN  HT138287   7.563   7.679  14.721
   12BGLCN  HT238288   7.656   7.725  14.574
   12BGLCN  HT338289   7.605   7.854  14.691
   12BGLCN   C338290   8.075   7.784  14.878
   12BGLCN   H338291   8.101   7.891  14.865
   12BGLCN   O338292   8.007   7.770  15.006
   12BGLCN   C438293   0.057   7.702  14.888
   12BGLCN   H438294   0.028   7.595  14.883
   12BGLCN   O438295   0.126   7.720  15.011
   12BGLCN  HO438296   0.182   7.799  15.005
   12BGLCN   C638297   0.271   7.645  14.776
   12BGLCN  H6138298   0.258   7.566  14.853
   12BGLCN  H6238299   0.281   7.590  14.680
   12BGLCN   O638300   0.390   7.720  14.803
   12BGLCN  HO638301   0.439   7.735  14.722
   13AGAL    C138302   8.028   7.882  15.090
   13AGAL    H138303   8.135   7.912  15.088
   13AGAL    C538304   7.810   7.962  15.043
   13AGAL    H538305   7.805   7.857  15.006
   13AGAL    O538306   7.950   7.991  15.033
   13AGAL    C238307   7.987   7.863  15.242
   13AGAL    H238308   8.004   7.964  15.286
   13AGAL    O238309   8.061   7.775  15.332
   13AGAL    C338310   7.840   7.834  15.241
   13AGAL    H338311   7.832   7.747  15.172
   13AGAL    O338312   7.777   7.781  15.355
   13AGAL   HO338313   7.693   7.743  15.326
   13AGAL    C438314   7.768   7.952  15.185
   13AGAL    H438315   7.657   7.942  15.185
   13AGAL    O438316   7.794   8.073  15.257
   13AGAL   HO438317   7.763   8.060  15.347
   13AGAL    C638318   7.696   8.006  14.953
   13AGAL   H6138319   7.708   7.974  14.847
   13AGAL   H6238320   7.611   7.943  14.987
   13AGAL    O638321   7.637   8.132  14.969
   13AGAL   HO638322   7.701   0.055  14.944
   14ARHM    C138323   8.084   7.808  15.472
   14ARHM    H138324   8.104   7.916  15.482
   14ARHM    C538325   0.041   7.596  15.507
   14ARHM    H538326   0.021   7.566  15.402
   14ARHM    O538327   0.058   7.739  15.514
   14ARHM    C238328   7.971   7.771  15.570
   14ARHM    H238329   7.881   7.831  15.544
   14ARHM    O238330   7.984   7.796  15.712
   14ARHM    C338331   7.946   7.623  15.553
   14ARHM    H338332   7.930   7.602  15.445
   14ARHM    O338333   7.827   7.581  15.620
   14ARHM   HO338334   7.848   7.572  15.713
   14ARHM    C438335   8.071   7.548  15.595
   14ARHM    H438336   8.095   7.571  15.701
   14ARHM    O438337   8.055   7.407  15.582
   14ARHM   HO438338   8.113   7.366  15.646
   14ARHM    C638339   0.176   7.537  15.549
   14ARHM   H6138340   0.257   7.585  15.488
   14ARHM   H6238341   0.195   7.555  15.656
   14ARHM   H6338342   0.179   7.427  15.530
   15ARHM    C138343   7.995   7.931  15.755
   15ARHM    H138344   7.937   7.995  15.685
   15ARHM    C538345   0.061   7.876  15.849
   15ARHM    H538346   0.048   7.770  15.819
   15ARHM    O538347   8.134   7.963  15.759
   15ARHM    C238348   7.938   7.955  15.897
   15ARHM    H238349   7.828   7.939  15.895
   15ARHM    O238350   7.967   8.092  15.942
   15ARHM    C338351   8.004   7.859  15.990
   15ARHM    H338352   7.996   7.757  15.947
   15ARHM    O338353   7.926   7.858  16.111
   15ARHM    C438354   0.009   7.892  15.992
   15ARHM    H438355   0.024   7.998  16.024
   15ARHM    O438356   0.083   7.811  16.082
   15ARHM   HO438357   0.176   7.835  16.074
   15ARHM    C638358   0.209   7.910  15.830
   15ARHM   H6138359   0.273   7.844  15.893
   15ARHM   H6238360   0.237   7.892  15.724
   15ARHM   H6338361   0.230   8.015  15.857
   16BMANN   C138362   7.914   0.005  16.062
   16BMANN   H138363   7.943   8.088  16.150
   16BMANN   C538364   7.712   0.075  16.174
   16BMANN   H538365   7.749   0.019  16.262
   16BMANN   O538366   7.771   0.016  16.055
   16BMANN   C238367   7.975   0.147  16.080
   16BMANN   H238368   8.081   0.127  16.107
   16BMANN    N38369   7.982   0.233  15.963
   16BMANN   HN38370   7.917   0.211  15.890
   16BMANN    C38371   8.067   0.335  15.941
   16BMANN    O38372   0.011   0.368  16.020
   16BMANN   CT38373   8.049   0.413  15.814
   16BMANN  HT138374   8.123   0.496  15.811
   16BMANN  HT238375   7.947   0.456  15.808
   16BMANN  HT338376   8.067   0.349  15.725
   16BMANN   C338377   7.912   0.214  16.203
   16BMANN   H338378   7.937   0.152  16.292
   16BMANN   O338379   7.964   0.344  16.228
   16BMANN  HO338380   7.929   0.404  16.162
   16BMANN   C438381   7.761   0.218  16.190
   16BMANN   H438382   7.732   0.276  16.100
   16BMANN   O438383   7.701   0.278  16.305
   16BMANN  HO438384   7.697   0.373  16.294
   16BMANN   C638385   7.561   0.060  16.172
   16BMANN  H6138386   7.512   0.140  16.232
   16BMANN  H6238387   7.521   0.067  16.069
   16BMANN   O638388   7.522   8.078  16.226
   16BMANN  HO638389   7.426   8.073  16.232
   17BGLCN   C138390   7.931   7.737  16.181
   17BGLCN   H138391   8.033   7.694  16.174
   17BGLCN   C538392   7.845   7.515  16.214
   17BGLCN   H538393   7.949   7.477  16.202
   17BGLCN   O538394   7.834   7.639  16.139
   17BGLCN   C238395   7.899   7.772  16.324
   17BGLCN   H238396   7.790   7.792  16.327
   17BGLCN    N38397   7.966   7.894  16.370
   17BGLCN   HN38398   8.064   7.902  16.353
   17BGLCN    C38399   7.907   7.997  16.431
   17BGLCN    O38400   7.786   8.004  16.448
   17BGLCN   CT38401   7.997   8.108  16.477
   17BGLCN  HT138402   7.936   0.049  16.515
   17BGLCN  HT238403   8.061   8.143  16.393
   17BGLCN  HT338404   8.064   8.072  16.559
   17BGLCN   C338405   7.922   7.646  16.404
   17BGLCN   H338406   8.019   7.606  16.370
   17BGLCN   O338407   7.932   7.678  16.543
   17BGLCN   C438408   7.823   7.541  16.362
   17BGLCN   H438409   7.719   7.575  16.380
   17BGLCN   O438410   7.847   7.422  16.437
   17BGLCN  HO438411   7.763   7.379  16.457
   17BGLCN   C638412   7.755   7.406  16.156
   17BGLCN  H6138413   7.812   7.354  16.077
   17BGLCN  H6238414   7.731   7.329  16.233
   17BGLCN   O638415   7.633   7.453  16.098
   17BGLCN  HO638416   7.617   7.398  16.021
   18AGAL    C138417   8.024   7.599  16.618
   18AGAL    H138418   7.975   7.503  16.646
   18AGAL    C538419   0.076   7.689  16.510
   18AGAL    H538420   0.007   7.750  16.449
   18AGAL    O538421   0.005   7.570  16.552
   18AGAL    C238422   8.055   7.678  16.742
   18AGAL    H238423   8.127   7.617  16.801
   18AGAL    O238424   7.936   7.699  16.818
   18AGAL    C338425   8.123   7.808  16.703
   18AGAL    H338426   8.057   7.864  16.634
   18AGAL    O338427   0.001   7.891  16.817
   18AGAL   HO338428   8.062   7.933  16.843
   18AGAL    C438429   0.109   7.776  16.630
   18AGAL    H438430   0.152   7.871  16.590
   18AGAL    O438431   0.205   7.716  16.716
   18AGAL   HO438432   0.291   7.705  16.674
   18AGAL    C638433   0.194   7.662  16.416
   18AGAL   H6138434   0.169   7.704  16.316
   18AGAL   H6238435   0.283   7.718  16.451
   18AGAL    O638436   0.226   7.524  16.397
   18AGAL   HO638437   0.276   7.492  16.472
   19ARHM    C138438   7.949   7.664  16.953
   19ARHM    H138439   8.053   7.683  16.987
   19ARHM    C538440   7.783   7.491  16.934
   19ARHM    H538441   7.772   7.512  16.826
   19ARHM    O538442   7.916   7.526  16.977
   19ARHM    C238443   7.852   7.750  17.031
   19ARHM    H238444   7.864   7.854  16.994
   19ARHM    O238445   7.885   7.749  17.171
   19ARHM    C338446   7.709   7.719  16.993
   19ARHM    H338447   7.695   7.744  16.886
   19ARHM    O338448   7.617   7.798  17.069
   19ARHM   HO338449   7.530   7.764  17.045
   19ARHM    C438450   7.680   7.572  17.013
   19ARHM    H438451   7.687   7.548  17.121
   19ARHM    O438452   7.547   7.539  16.975
   19ARHM   HO438453   7.539   7.549  16.880
   19ARHM    C638454   7.773   7.340  16.956
   19ARHM   H6138455   7.855   7.286  16.903
   19ARHM   H6238456   7.778   7.314  17.063
   19ARHM   H6338457   7.677   7.302  16.914
   20ARHM    C138458   7.996   7.832  17.200
   20ARHM    H138459   8.005   7.913  17.125
   20ARHM    C538460   8.135   7.665  17.303
   20ARHM    H538461   8.054   7.590  17.288
   20ARHM    O538462   8.123   7.764  17.200
   20ARHM    C238463   7.972   7.896  17.333
   20ARHM    H238464   7.869   7.938  17.335
   20ARHM    O238465   8.065   8.002  17.357
   20ARHM    C338466   7.980   7.794  17.443
   20ARHM    H338467   7.901   7.718  17.430
   20ARHM    O338468   7.965   7.865  17.565
   20ARHM    C438469   8.116   7.732  17.438
   20ARHM    H438470   0.045   7.815  17.445
   20ARHM    O438471   0.000   7.645  17.547
   20ARHM   HO438472   8.106   7.559  17.528
   20ARHM    C638473   0.123   7.588  17.290
   20ARHM   H6138474   0.208   7.651  17.323
   20ARHM   H6238475   0.122   7.496  17.353
   20ARHM   H6338476   0.140   7.557  17.185
   21BMANN   C138477   8.037   8.122  17.290
   21BMANN   H138478   7.938   8.117  17.239
   21BMANN   C538479   8.109   0.131  17.124
   21BMANN   H538480   8.007   0.125  17.081
   21BMANN   O538481   8.138   0.008  17.193
   21BMANN   C238482   8.036   0.087  17.395
   21BMANN   H238483   7.946   0.066  17.457
   21BMANN    N38484   0.009   0.085  17.481
   21BMANN   HN38485   0.097   0.070  17.437
   21BMANN    C38486   0.002   0.103  17.613
   21BMANN    O38487   8.039   0.110  17.673
   21BMANN   CT38488   0.131   0.115  17.687
   21BMANN  HT138489   0.211   0.156  17.621
   21BMANN  HT238490   0.162   0.016  17.726
   21BMANN  HT338491   0.116   0.184  17.774
   21BMANN   C338492   8.008   0.220  17.329
   21BMANN   H338493   7.909   0.214  17.280
   21BMANN   O338494   8.002   0.326  17.424
   21BMANN  HO338495   7.989   0.407  17.374
   21BMANN   C438496   8.112   0.246  17.223
   21BMANN   H438497   0.069   0.251  17.270
   21BMANN   O438498   8.087   0.369  17.157
   21BMANN  HO438499   0.026   0.416  17.142
   21BMANN   C638500   0.060   0.150  17.009
   21BMANN  H6138501   0.024   0.233  16.945
   21BMANN  H6238502   0.161   0.177  17.047
   21BMANN   O638503   0.070   0.033  16.928
   21BMANN  HO638504   0.108   8.106  16.981
   22BGLCN   C138505   7.887   7.801  17.661
   22BGLCN   H138506   7.899   7.690  17.658
   22BGLCN   C538507   7.666   7.812  17.751
   22BGLCN   H538508   7.658   7.702  17.762
   22BGLCN   O538509   7.753   7.843  17.642
   22BGLCN   C238510   7.945   7.861  17.785
   22BGLCN   H238511   7.938   7.972  17.775
   22BGLCN    N38512   8.086   7.826  17.798
   22BGLCN   HN38513   8.113   7.739  17.758
   22BGLCN    C38514   0.035   7.907  17.851
   22BGLCN    O38515   0.011   8.018  17.896
   22BGLCN   CT38516   0.173   7.850  17.860
   22BGLCN  HT138517   0.244   7.915  17.803
   22BGLCN  HT238518   0.176   7.747  17.818
   22BGLCN  HT338519   0.206   7.847  17.966
   22BGLCN   C338520   7.861   7.823  17.905
   22BGLCN   H338521   7.857   7.712  17.912
   22BGLCN   O338522   7.929   7.876  18.019
   22BGLCN   C438523   7.721   7.874  17.880
   22BGLCN   H438524   7.728   7.984  17.865
   22BGLCN   O438525   7.632   7.851  17.988
   22BGLCN  HO438526   7.579   7.931  17.998
   22BGLCN   C638527   7.531   7.869  17.714
   22BGLCN  H6138528   7.454   7.834  17.786
   22BGLCN  H6238529   7.536   7.980  17.721
   22BGLCN   O638530   7.490   7.834  17.581
   22BGLCN  HO638531   7.557   7.862  17.518
   23AGAL    C138532   7.899   7.823  18.145
   23AGAL    H138533   7.798   7.858  18.177
   23AGAL    C538534   8.027   7.622  18.111
   23AGAL    H538535   8.052   7.656  18.008
   23AGAL    O538536   7.900   7.679  18.151
   23AGAL    C238537   8.004   7.875  18.242
   23AGAL    H238538   7.981   7.829  18.340
   23AGAL    O238539   7.998   8.017  18.261
   23AGAL    C338540   8.141   7.822  18.202
   23AGAL    H338541   0.017   7.857  18.098
   23AGAL    O338542   0.103   7.874  18.282
   23AGAL   HO338543   0.187   7.850  18.243
   23AGAL    C438544   8.140   7.670  18.203
   23AGAL    H438545   0.092   7.633  18.160
   23AGAL    O438546   8.128   7.614  18.333
   23AGAL   HO438547   8.085   7.530  18.321
   23AGAL    C638548   8.012   7.470  18.105
   23AGAL   H6138549   7.932   7.445  18.033
   23AGAL   H6238550   8.106   7.426  18.067
   23AGAL    O638551   7.981   7.409  18.231
   23AGAL   HO638552   8.020   7.322  18.235
   24ARHM    C138553   7.899   8.060  18.352
   24ARHM    H138554   7.818   7.985  18.358
   24ARHM    C538555   7.931   0.144  18.297
   24ARHM    H538556   8.011   0.119  18.224
   24ARHM    O538557   7.837   0.036  18.306
   24ARHM    C238558   7.958   8.079  18.490
   24ARHM    H238559   8.011   7.986  18.521
   24ARHM    O238560   7.859   8.111  18.589
   24ARHM    C338561   8.060   0.046  18.485
   24ARHM    H338562   8.141   0.016  18.415
   24ARHM    O338563   8.119   0.065  18.614
   24ARHM   HO338564   8.072   0.135  18.658
   24ARHM    C438565   7.994   0.173  18.434
   24ARHM    H438566   7.914   0.204  18.504
   24ARHM    O438567   8.090   0.278  18.424
   24ARHM   HO438568   8.047   0.362  18.406
   24ARHM    C638569   7.848   0.260  18.241
   24ARHM   H6138570   7.914   0.346  18.215
   24ARHM   H6238571   7.795   0.229  18.149
   24ARHM   H6338572   7.772   0.293  18.316
   25ARHM    C138573   7.783   8.004  18.641
   25ARHM    H138574   7.793   7.915  18.576
   25ARHM    C538575   7.621   0.012  18.726
   25ARHM    H538576   7.677   0.098  18.683
   25ARHM    O538577   7.644   8.039  18.646
   25ARHM    C238578   7.833   7.971  18.780
   25ARHM    H238579   7.942   7.953  18.775
   25ARHM    O238580   7.765   7.854  18.833
   25ARHM    C338581   7.815   8.092  18.870
   25ARHM    H338582   7.876   0.031  18.830
   25ARHM    O338583   7.864   8.055  19.000
   25ARHM    C438584   7.669   8.132  18.870
   25ARHM    H438585   7.609   8.049  18.914
   25ARHM    O438586   7.647   0.105  18.947
   25ARHM   HO438587   7.675   0.182  18.897
   25ARHM    C638588   7.471   0.045  18.716
   25ARHM   H6138589   7.442   0.060  18.609
   25ARHM   H6238590   7.410   8.105  18.756
   25ARHM   H6338591   7.446   0.137  18.772
   26BMANN   C138592   7.824   7.730  18.798
   26BMANN   H138593   7.920   7.749  18.746
   26BMANN   C538594   7.807   7.527  18.671
   26BMANN   H538595   7.896   7.556  18.611
   26BMANN   O538596   7.739   7.646  18.716
   26BMANN   C238597   7.860   7.650  18.920
   26BMANN   H238598   7.923   7.715  18.984
   26BMANN    N38599   7.741   7.611  18.994
   26BMANN   HN38600   7.661   7.583  18.940
   26BMANN    C38601   7.737   7.595  19.125
   26BMANN    O38602   7.825   7.636  19.200
   26BMANN   CT38603   7.619   7.520  19.177
   26BMANN  HT138604   7.529   7.546  19.117
   26BMANN  HT238605   7.600   7.546  19.284
   26BMANN  HT338606   7.637   7.411  19.169
   26BMANN   C338607   7.942   7.529  18.876
   26BMANN   H338608   8.029   7.566  18.817
   26BMANN   O338609   7.995   7.456  18.986
   26BMANN  HO338610   8.032   7.376  18.949
   26BMANN   C438611   7.856   7.442  18.787
   26BMANN   H438612   7.770   7.405  18.846
   26BMANN   O438613   7.928   7.329  18.738
   26BMANN  HO438614   7.874   7.251  18.750
   26BMANN   C638615   7.714   7.454  18.575
   26BMANN  H6138616   7.635   7.523  18.540
   26BMANN  H6238617   7.772   7.424  18.486
   26BMANN   O638618   7.652   7.338  18.632
   26BMANN  HO638619   7.573   7.317  18.581
   27BGLCN   C138620   7.926   0.013  19.075
   27BGLCN   H138621   7.867   0.107  19.071
   27BGLCN   C538622   8.126   0.134  19.113
   27BGLCN   H538623   8.064   0.226  19.112
   27BGLCN   O538624   8.061   0.035  19.032
   27BGLCN   C238625   7.931   8.102  19.217
   27BGLCN   H238626   7.999   8.014  19.212
   27BGLCN    N38627   7.801   8.057  19.262
   27BGLCN   HN38628   7.724   8.115  19.238
   27BGLCN    C38629   7.781   7.942  19.325
   27BGLCN    O38630   7.873   7.872  19.367
   27BGLCN   CT38631   7.637   7.901  19.340
   27BGLCN  HT138632   7.582   7.977  19.401
   27BGLCN  HT238633   7.629   7.802  19.389
   27BGLCN  HT338634   7.591   7.893  19.239
   27BGLCN   C338635   7.996   0.058  19.311
   27BGLCN   H338636   7.937   0.152  19.303
   27BGLCN   O338637   7.988   0.008  19.447
   27BGLCN   C438638   8.136   0.083  19.257
   27BGLCN   H438639   0.047   8.131  19.256
   27BGLCN   O438640   0.067   0.173  19.336
   27BGLCN  HO438641   0.032   0.262  19.325
   27BGLCN   C638642   0.116   0.170  19.050
   27BGLCN  H6138643   0.169   0.245  19.113
   27BGLCN  H6238644   0.180   0.080  19.044
   27BGLCN   O638645   0.098   0.228  18.921
   27BGLCN  HO638646   0.159   0.189  18.857
   28AGAL    C138647   8.005   0.103   0.078
   28AGAL    H138648   8.112   0.131   0.085
   28AGAL    C538649   7.787   0.203   0.061
   28AGAL    H538650   7.759   0.128  19.456
   28AGAL    O538651   7.930   0.223   0.055
   28AGAL    C238652   7.966   0.049   0.216
   28AGAL    H238653   7.984   0.135   0.284
   28AGAL    O238654   8.047   8.083   0.263
   28AGAL    C338655   7.817   0.018   0.218
   28AGAL    H338656   7.794   8.094   0.134
   28AGAL    O338657   7.778   8.095   0.338
   28AGAL   HO338658   7.686   8.114   0.355
   28AGAL    C438659   7.741   0.147   0.196
   28AGAL    H438660   7.632   0.125   0.190
   28AGAL    O438661   7.761   0.242   0.300
   28AGAL   HO438662   7.758   0.328   0.257
   28AGAL    C638663   7.719   0.333   0.024
   28AGAL   H6138664   7.746   0.359  19.391
   28AGAL   H6238665   7.609   0.321   0.028
   28AGAL    O638666   7.759   0.442   0.108
   28AGAL   HO638667   7.842   0.475   0.074
   29ARHM    C138668   8.075   8.090   0.402
   29ARHM    H138669   8.003   0.013   0.452
   29ARHM    C538670   0.165   8.057   0.362
   29ARHM    H538671   0.145   8.049   0.253
   29ARHM    O538672   0.064   8.140   0.423
   29ARHM    C238673   8.064   7.953   0.468
   29ARHM    H238674   7.964   7.913   0.440
   29ARHM    O238675   8.075   7.958   0.612
   29ARHM    C338676   0.023   7.860   0.410
   29ARHM    H338677   0.002   7.845   0.302
   29ARHM    O338678   0.019   7.732   0.474
   29ARHM   HO338679   0.076   7.734   0.551
   29ARHM    C438680   0.161   7.919   0.426
   29ARHM    H438681   0.183   7.932   0.534
   29ARHM    O438682   0.261   7.834   0.369
   29ARHM   HO438683   0.217   7.758   0.331
   29ARHM    C638684   0.300   8.128   0.381
   29ARHM   H6138685   0.295   0.088   0.341
   29ARHM   H6238686   0.328   8.133   0.488
   29ARHM   H6338687   0.380   8.074   0.326
   30ARHM    C138688   7.950   7.962   0.679
   30ARHM    H138689   7.882   7.884   0.639
   30ARHM    C538690   7.969   0.052   0.718
   30ARHM    H538691   8.064   0.057   0.660
   30ARHM    O538692   7.888   8.091   0.667
   30ARHM    C238693   7.970   7.936   0.828
   30ARHM    H238694   8.014   7.835   0.842
   30ARHM    O238695   7.842   7.946   0.892
   30ARHM    C338696   8.065   8.040   0.887
   30ARHM    H338697   0.012   8.039   0.824
   30ARHM    O338698   8.111   8.003   1.019
   30ARHM    C438699   8.000   0.033   0.867
   30ARHM    H438700   7.905   0.039   0.924
   30ARHM    O438701   8.086   0.139   0.909
   30ARHM   HO438702   0.019   0.139   0.851
   30ARHM    C638703   7.890   0.180   0.684
   30ARHM   H6138704   7.947   0.271   0.711
   30ARHM   H6238705   7.869   0.183   0.575
   30ARHM   H6338706   7.792   0.180   0.737
   31BMANN   C138707   7.773   7.825   0.916
   31BMANN   H138708   7.842   7.752   0.964
   31BMANN   C538709   7.640   7.646   0.830
   31BMANN   H538710   7.709   7.574   0.879
   31BMANN   O538711   7.713   7.767   0.799
   31BMANN   C238712   7.663   7.865   1.012
   31BMANN   H238713   7.710   7.909   1.103
   31BMANN    N38714   7.577   7.970   0.958
   31BMANN   HN38715   7.600   8.000   0.865
   31BMANN    C38716   7.475   8.032   1.019
   31BMANN    O38717   7.435   8.001   1.131
   31BMANN   CT38718   7.410   0.001   0.946
   31BMANN  HT138719   7.341   8.106   0.868
   31BMANN  HT238720   7.488   0.064   0.897
   31BMANN  HT338721   7.352   0.063   1.017
   31BMANN   C338722   7.592   7.737   1.050
   31BMANN   H338723   7.669   7.663   1.082
   31BMANN   O338724   7.508   7.753   1.163
   31BMANN  HO338725   7.473   7.841   1.157
   31BMANN   C438726   7.528   7.676   0.928
   31BMANN   H438727   7.457   7.750   0.884
   31BMANN   O438728   7.453   7.558   0.959
   31BMANN  HO438729   7.401   7.574   1.038
   31BMANN   C638730   7.592   7.579   0.702
   31BMANN  H6138731   7.514   7.502   0.724
   31BMANN  H6238732   7.546   7.653   0.633
   31BMANN   O638733   7.699   7.513   0.635
   31BMANN  HO638734   7.769   7.576   0.622
   32BGLCN   C138735   8.033   8.039   1.132
   32BGLCN   H138736   7.927   8.012   1.112
   32BGLCN   C538737   7.958   0.081   1.264
   32BGLCN   H538738   7.852   0.063   1.234
   32BGLCN   O538739   8.045   0.035   1.159
   32BGLCN   C238740   8.080   7.969   1.261
   32BGLCN   H238741   0.030   8.022   1.288
   32BGLCN    N38742   8.112   7.828   1.250
   32BGLCN   HN38743   8.032   7.770   1.232
   32BGLCN    C38744   0.089   7.775   1.276
   32BGLCN    O38745   0.189   7.845   1.292
   32BGLCN   CT38746   0.099   7.626   1.288
   32BGLCN  HT138747   0.077   7.577   1.190
   32BGLCN  HT238748   0.030   7.587   1.366
   32BGLCN  HT338749   0.203   7.599   1.317
   32BGLCN   C338750   7.980   8.003   1.373
   32BGLCN   H338751   7.880   7.982   1.330
   32BGLCN   O338752   7.994   7.925   1.496
   32BGLCN   C438753   7.989   0.008   1.394
   32BGLCN   H438754   8.093   0.033   1.425
   32BGLCN   O438755   7.901   0.052   1.496
   32BGLCN  HO438756   7.943   0.123   1.546
   32BGLCN   C638757   7.982   0.231   1.273
   32BGLCN  H6138758   7.904   0.279   1.336
   32BGLCN  H6238759   8.080   0.248   1.321
   32BGLCN   O638760   7.985   0.293   1.144
   32BGLCN  HO638761   8.026   0.231   1.083
   33AGAL    C138762   7.869   7.873   1.542
   33AGAL    H138763   7.787   7.944   1.516
   33AGAL    C538764   7.932   7.641   1.518
   33AGAL    H538765   8.035   7.680   1.504
   33AGAL    O538766   7.841   7.746   1.477
   33AGAL    C238767   7.858   7.851   1.693
   33AGAL    H238768   7.753   7.821   1.713
   33AGAL    O238769   7.884   7.974   1.762
   33AGAL    C338770   7.950   7.740   1.740
   33AGAL    H338771   8.053   7.770   1.715
   33AGAL    O338772   7.950   7.721   1.882
   33AGAL   HO338773   7.864   7.688   1.910
   33AGAL    C438774   7.918   7.611   1.667
   33AGAL    H438775   7.992   7.534   1.696
   33AGAL    O438776   7.788   7.560   1.694
   33AGAL   HO438777   7.766   7.574   1.787
   33AGAL    C638778   7.925   7.517   1.430
   33AGAL   H6138779   7.960   7.542   1.327
   33AGAL   H6238780   7.995   7.440   1.469
   33AGAL    O638781   7.796   7.458   1.418
   33AGAL   HO638782   7.728   7.517   1.452
   34ARHM    C138783   7.807   7.999   1.878
   34ARHM    H138784   7.792   7.906   1.937
   34ARHM    C538785   7.687   0.033   1.772
   34ARHM    H538786   7.735   0.010   1.674
   34ARHM    O538787   7.679   8.057   1.849
   34ARHM    C238788   7.886   8.098   1.960
   34ARHM    H238789   7.989   8.059   1.973
   34ARHM    O238790   7.829   8.118   2.091
   34ARHM    C338791   7.903   0.083   1.882
   34ARHM    H338792   7.956   0.061   1.787
   34ARHM    O338793   7.981   0.181   1.951
   34ARHM   HO338794   7.962   0.261   1.901
   34ARHM    C438795   7.767   0.139   1.848
   34ARHM    H438796   7.713   0.164   1.941
   34ARHM    O438797   7.781   0.257   1.769
   34ARHM   HO438798   7.699   0.283   1.727
   34ARHM    C638799   7.542   0.075   1.748
   34ARHM   H6138800   7.493   0.106   1.843
   34ARHM   H6238801   7.536   0.160   1.676
   34ARHM   H6338802   7.484   8.134   1.706
   35ARHM    C138803   7.841   8.011   2.182
   35ARHM    H138804   7.932   7.950   2.160
   35ARHM    C538805   7.605   7.996   2.208
   35ARHM    H538806   7.589   8.068   2.125
   35ARHM    O538807   7.726   7.924   2.183
   35ARHM    C238808   7.855   8.073   2.319
   35ARHM    H238809   7.939   0.001   2.314
   35ARHM    O238810   7.882   7.976   2.424
   35ARHM    C338811   7.732   0.012   2.348
   35ARHM    H338812   7.722   0.090   2.270
   35ARHM    O338813   7.746   0.080   2.473
   35ARHM   HO338814   7.709   0.027   2.544
   35ARHM    C438815   7.611   8.066   2.343
   35ARHM    H438816   7.620   7.988   2.422
   35ARHM    O438817   7.492   8.141   2.363
   35ARHM   HO438818   7.492   0.031   2.453
   35ARHM    C638819   7.492   7.890   2.203
   35ARHM   H6138820   7.505   7.824   2.114
   35ARHM   H6238821   7.494   7.825   2.293
   35ARHM   H6338822   7.393   7.939   2.197
   36BMANN   C138823   8.014   7.927   2.423
   36BMANN   H138824   8.083   8.004   2.382
   36BMANN   C538825   0.022   7.765   2.334
   36BMANN   H538826   0.078   7.849   2.287
   36BMANN   O538827   8.029   7.806   2.344
   36BMANN   C238828   8.059   7.894   2.564
   36BMANN   H238829   8.047   7.986   2.624
   36BMANN    N38830   7.979   7.788   2.623
   36BMANN   HN38831   7.943   7.720   2.560
   36BMANN    C38832   7.959   7.771   2.754
   36BMANN    O38833   7.999   7.851   2.839
   36BMANN   CT38834   7.882   7.649   2.794
   36BMANN  HT138835   7.906   7.565   2.724
   36BMANN  HT238836   7.773   7.669   2.789
   36BMANN  HT338837   7.909   7.618   2.897
   36BMANN   C338838   0.064   7.860   2.557
   36BMANN   H338839   0.117   7.945   2.511
   36BMANN   O338840   0.118   7.841   2.687
   36BMANN  HO338841   0.212   7.860   2.684
   36BMANN   C438842   0.082   7.738   2.471
   36BMANN   H438843   0.032   7.650   2.518
   36BMANN   O438844   0.220   7.707   2.454
   36BMANN  HO438845   0.251   7.660   2.531
   36BMANN   C638846   0.032   7.646   2.239
   36BMANN  H6138847   8.099   7.655   2.159
   36BMANN  H6238848   0.131   7.647   2.189
   36BMANN   O638849   0.014   7.519   2.303
   36BMANN  HO638850   0.100   7.487   2.334
   37PVPG   C1338851   4.372   4.210   7.694
   37PVPG  H13A38852   4.410   4.313   7.677
   37PVPG  H13B38853   4.407   4.178   7.794
   37PVPG   OC338854   4.425   4.120   7.596
   37PVPG   HO338855   4.398   4.035   7.629
   37PVPG   C1238856   4.217   4.212   7.692
   37PVPG  H12A38857   4.184   4.276   7.607
   37PVPG   OC238858   4.168   4.266   7.814
   37PVPG   HO238859   4.186   4.195   7.876
   37PVPG   C1138860   4.154   4.072   7.676
   37PVPG  H11A38861   4.187   4.029   7.579
   37PVPG  H11B38862   4.044   4.087   7.671
   37PVPG     P38863   4.137   3.836   7.783
   37PVPG   O1338864   4.147   3.785   7.645
   37PVPG   O1438865   4.000   3.825   7.839
   37PVPG   O1238866   4.188   3.985   7.785
   37PVPG   O1138867   4.240   3.759   7.874
   37PVPG    C138868   4.360   3.711   7.813
   37PVPG    HA38869   4.410   3.789   7.752
   37PVPG    HB38870   4.336   3.625   7.747
   37PVPG    C238871   4.465   3.659   7.916
   37PVPG    HS38872   4.539   3.601   7.857
   37PVPG   O2138873   4.400   3.572   8.010
   37PVPG   C2138874   4.481   3.504   8.087
   37PVPG   O2238875   4.603   3.494   8.073
   37PVPG   C2238876   4.404   3.437   8.200
   37PVPG   H2R38877   4.399   3.328   8.178
   37PVPG   H2S38878   4.300   3.477   8.204
   37PVPG    C338879   4.543   3.775   7.985
   37PVPG    HX38880   4.636   3.731   8.027
   37PVPG    HY38881   4.577   3.845   7.906
   37PVPG   O3138882   4.472   3.838   8.094
   37PVPG   C3138883   4.432   3.963   8.073
   37PVPG   O3238884   4.448   4.025   7.969
   37PVPG   C3238885   4.384   4.024   8.205
   37PVPG   H2X38886   4.416   4.131   8.206
   37PVPG   H2Y38887   4.438   3.971   8.287
   37PVPG   C2338888   4.476   3.462   8.334
   37PVPG   H3R38889   4.468   3.569   8.362
   37PVPG   H3S38890   4.583   3.436   8.321
   37PVPG   C2438891   4.420   3.376   8.448
   37PVPG   H4R38892   4.421   3.270   8.418
   37PVPG   H4S38893   4.314   3.406   8.467
   37PVPG   C2538894   4.498   3.390   8.580
   37PVPG   H5R38895   4.457   3.315   8.652
   37PVPG   H5S38896   4.480   3.490   8.624
   37PVPG   C2638897   4.650   3.367   8.565
   37PVPG   H6R38898   4.692   3.447   8.500
   37PVPG   H6S38899   4.666   3.269   8.515
   37PVPG   C2738900   4.730   3.369   8.696
   37PVPG   H7R38901   4.718   3.467   8.747
   37PVPG   H7S38902   4.838   3.358   8.669
   37PVPG   C2838903   4.696   3.255   8.791
   37PVPG   H8R38904   4.788   3.216   8.839
   37PVPG   H8S38905   4.653   3.171   8.732
   37PVPG   C2938906   4.597   3.296   8.901
   37PVPG   H9R38907   4.542   3.207   8.937
   37PVPG   H9S38908   4.522   3.366   8.857
   37PVPG  C21038909   4.665   3.366   9.020
   37PVPG  H10R38910   4.588   3.412   9.086
   37PVPG  H10S38911   4.726   3.451   8.982
   37PVPG  C21138912   4.744   3.268   9.102
   37PVPG  H11138913   4.691   3.175   9.125
   37PVPG  C21238914   4.867   3.287   9.153
   37PVPG  H12138915   4.911   3.206   9.214
   37PVPG  C21338916   4.952   3.411   9.140
   37PVPG  H13R38917   4.901   3.492   9.083
   37PVPG  H13S38918   5.046   3.388   9.086
   37PVPG  C21438919   4.986   3.465   9.280
   37PVPG  H14R38920   5.040   3.562   9.270
   37PVPG  H14S38921   5.055   3.394   9.329
   37PVPG  C21538922   4.865   3.488   9.373
   37PVPG  H15R38923   4.901   3.533   9.468
   37PVPG  H15S38924   4.819   3.391   9.398
   37PVPG  C21638925   4.756   3.582   9.317
   37PVPG  H16R38926   4.711   3.536   9.227
   37PVPG  H16S38927   4.804   3.677   9.286
   37PVPG  C21738928   4.644   3.612   9.418
   37PVPG  H17R38929   4.570   3.678   9.369
   37PVPG  H17S38930   4.688   3.668   9.504
   37PVPG  C21838931   4.571   3.490   9.474
   37PVPG  H18R38932   4.640   3.428   9.535
   37PVPG  H18S38933   4.488   3.522   9.541
   37PVPG  H18T38934   4.529   3.429   9.392
   37PVPG   C3338935   4.232   4.015   8.226
   37PVPG   H3X38936   4.200   3.909   8.218
   37PVPG   H3Y38937   4.178   4.073   8.147
   37PVPG   C3438938   4.189   4.067   8.364
   37PVPG   H4X38939   4.080   4.047   8.378
   37PVPG   H4Y38940   4.203   4.177   8.371
   37PVPG   C3538941   4.267   4.000   8.478
   37PVPG   H5X38942   4.369   4.044   8.486
   37PVPG   H5Y38943   4.278   3.892   8.453
   37PVPG   C3638944   4.199   4.009   8.615
   37PVPG   H6X38945   4.095   3.971   8.605
   37PVPG   H6Y38946   4.193   4.114   8.651
   37PVPG   C3738947   4.273   3.922   8.718
   37PVPG   H7X38948   4.367   3.971   8.751
   37PVPG   H7Y38949   4.300   3.826   8.668
   37PVPG   C3838950   4.185   3.887   8.838
   37PVPG   H8X38951   4.083   3.865   8.801
   37PVPG   H8Y38952   4.177   3.974   8.907
   37PVPG   C3938953   4.235   3.763   8.913
   37PVPG   H9X38954   4.322   3.790   8.977
   37PVPG   H9Y38955   4.271   3.688   8.839
   37PVPG  C31038956   4.123   3.698   8.995
   37PVPG  H10X38957   4.163   3.609   9.048
   37PVPG  H10Y38958   4.046   3.662   8.924
   37PVPG  C31138959   4.061   3.790   9.100
   37PVPG  H11X38960   3.969   3.744   9.142
   37PVPG  H11Y38961   4.030   3.886   9.054
   37PVPG  C31238962   4.156   3.817   9.217
   37PVPG  H12X38963   4.261   3.824   9.181
   37PVPG  H12Y38964   4.152   3.730   9.286
   37PVPG  C31338965   4.124   3.947   9.291
   37PVPG  H13X38966   4.016   3.947   9.319
   37PVPG  H13Y38967   4.141   4.033   9.223
   37PVPG  C31438968   4.209   3.963   9.417
   37PVPG  H14X38969   4.190   4.064   9.459
   37PVPG  H14Y38970   4.317   3.957   9.392
   37PVPG  C31538971   4.175   3.858   9.524
   37PVPG  H15X38972   4.081   3.806   9.497
   37PVPG  H15Y38973   4.155   3.911   9.620
   37PVPG  C31638974   4.286   3.754   9.547
   37PVPG  H16X38975   4.379   3.804   9.580
   37PVPG  H16Y38976   4.256   3.682   9.626
   37PVPG  H16Z38977   4.307   3.698   9.454
   38PVPG   C1338978   4.376   5.104   7.693
   38PVPG  H13A38979   4.364   5.046   7.599
   38PVPG  H13B38980   4.289   5.083   7.758
   38PVPG   OC338981   4.380   5.244   7.662
   38PVPG   HO338982   4.321   5.289   7.724
   38PVPG   C1238983   4.504   5.047   7.764
   38PVPG  H12A38984   4.509   5.093   7.865
   38PVPG   OC238985   4.624   5.077   7.692
   38PVPG   HO238986   4.694   5.049   7.750
   38PVPG   C1138987   4.494   4.893   7.780
   38PVPG  H11A38988   4.564   4.862   7.861
   38PVPG  H11B38989   4.528   4.845   7.686
   38PVPG     P38990   4.326   4.706   7.849
   38PVPG   O1338991   4.397   4.616   7.755
   38PVPG   O1438992   4.178   4.695   7.851
   38PVPG   O1238993   4.359   4.855   7.808
   38PVPG   O1138994   4.381   4.694   7.998
   38PVPG    C138995   4.350   4.803   8.088
   38PVPG    HA38996   4.241   4.821   8.093
   38PVPG    HB38997   4.397   4.897   8.052
   38PVPG    C238998   4.399   4.781   8.236
   38PVPG    HS38999   4.379   4.875   8.292
   38PVPG   O2139000   4.538   4.745   8.243
   38PVPG   C2139001   4.623   4.841   8.215
   38PVPG   O2239002   4.595   4.952   8.174
   38PVPG   C2239003   4.765   4.794   8.244
   38PVPG   H2R39004   4.831   4.843   8.170
   38PVPG   H2S39005   4.771   4.683   8.230
   38PVPG    C339006   4.317   4.668   8.307
   38PVPG    HX39007   4.215   4.670   8.264
   38PVPG    HY39008   4.361   4.570   8.280
   38PVPG   O3139009   4.307   4.692   8.449
   38PVPG   C3139010   4.380   4.616   8.530
   38PVPG   O3239011   4.455   4.527   8.494
   38PVPG   C3239012   4.349   4.651   8.676
   38PVPG   H2X39013   4.406   4.581   8.740
   38PVPG   H2Y39014   4.241   4.633   8.693
   38PVPG   C2339015   4.810   4.833   8.387
   38PVPG   H3R39016   4.787   4.941   8.405
   38PVPG   H3S39017   4.921   4.821   8.395
   38PVPG   C2439018   4.746   4.747   8.496
   38PVPG   H4R39019   4.779   4.642   8.479
   38PVPG   H4S39020   4.635   4.747   8.486
   38PVPG   C2539021   4.782   4.787   8.640
   38PVPG   H5R39022   4.714   4.866   8.676
   38PVPG   H5S39023   4.886   4.827   8.643
   38PVPG   C2639024   4.776   4.664   8.731
   38PVPG   H6R39025   4.859   4.598   8.697
   38PVPG   H6S39026   4.682   4.608   8.714
   38PVPG   C2739027   4.794   4.689   8.882
   38PVPG   H7R39028   4.861   4.775   8.902
   38PVPG   H7S39029   4.843   4.599   8.924
   38PVPG   C2839030   4.660   4.704   8.957
   38PVPG   H8R39031   4.580   4.658   8.895
   38PVPG   H8S39032   4.636   4.812   8.968
   38PVPG   C2939033   4.654   4.634   9.094
   38PVPG   H9R39034   4.661   4.524   9.078
   38PVPG   H9S39035   4.555   4.652   9.140
   38PVPG  C21039036   4.764   4.674   9.194
   38PVPG  H10R39037   4.864   4.653   9.152
   38PVPG  H10S39038   4.754   4.608   9.284
   38PVPG  C21139039   4.752   4.819   9.233
   38PVPG  H11139040   4.807   4.888   9.168
   38PVPG  C21239041   4.682   4.868   9.337
   38PVPG  H12139042   4.685   4.976   9.357
   38PVPG  C21339043   4.601   4.791   9.437
   38PVPG  H13R39044   4.586   4.685   9.407
   38PVPG  H13S39045   4.499   4.836   9.443
   38PVPG  C21439046   4.664   4.795   9.578
   38PVPG  H14R39047   4.593   4.752   9.652
   38PVPG  H14S39048   4.680   4.901   9.607
   38PVPG  C21539049   4.797   4.720   9.588
   38PVPG  H15R39050   4.851   4.753   9.678
   38PVPG  H15S39051   4.860   4.746   9.500
   38PVPG  C21639052   4.780   4.567   9.594
   38PVPG  H16R39053   4.691   4.540   9.534
   38PVPG  H16S39054   4.760   4.538   9.700
   38PVPG  C21739055   4.899   4.487   9.541
   38PVPG  H17R39056   4.941   4.537   9.451
   38PVPG  H17S39057   4.859   4.388   9.508
   38PVPG  C21839058   5.010   4.461   9.643
   38PVPG  H18R39059   5.058   4.557   9.674
   38PVPG  H18S39060   4.969   4.412   9.733
   38PVPG  H18T39061   5.089   4.396   9.600
   38PVPG   C3339062   4.383   4.797   8.715
   38PVPG   H3X39063   4.329   4.867   8.647
   38PVPG   H3Y39064   4.492   4.815   8.702
   38PVPG   C3439065   4.344   4.831   8.860
   38PVPG   H4X39066   4.402   4.769   8.931
   38PVPG   H4Y39067   4.238   4.803   8.877
   38PVPG   C3539068   4.362   4.979   8.893
   38PVPG   H5X39069   4.322   5.040   8.809
   38PVPG   H5Y39070   4.470   5.003   8.903
   38PVPG   C3639071   4.288   5.022   9.021
   38PVPG   H6X39072   4.181   4.994   9.010
   38PVPG   H6Y39073   4.293   5.132   9.032
   38PVPG   C3739074   4.343   4.958   9.150
   38PVPG   H7X39075   4.446   4.997   9.169
   38PVPG   H7Y39076   4.355   4.849   9.137
   38PVPG   C3839077   4.259   4.988   9.274
   38PVPG   H8X39078   4.242   5.098   9.283
   38PVPG   H8Y39079   4.316   4.957   9.364
   38PVPG   C3939080   4.124   4.915   9.276
   38PVPG   H9X39081   4.055   4.965   9.204
   38PVPG   H9Y39082   4.079   4.927   9.377
   38PVPG  C31039083   4.131   4.766   9.239
   38PVPG  H10X39084   4.163   4.756   9.134
   38PVPG  H10Y39085   4.029   4.723   9.245
   38PVPG  C31139086   4.224   4.684   9.329
   38PVPG  H11X39087   4.318   4.740   9.348
   38PVPG  H11Y39088   4.252   4.590   9.278
   38PVPG  C31239089   4.159   4.649   9.463
   38PVPG  H12X39090   4.116   4.547   9.455
   38PVPG  H12Y39091   4.074   4.717   9.485
   38PVPG  C31339092   4.257   4.654   9.581
   38PVPG  H13X39093   4.357   4.614   9.553
   38PVPG  H13Y39094   4.215   4.584   9.657
   38PVPG  C31439095   4.269   4.794   9.643
   38PVPG  H14X39096   4.181   4.856   9.613
   38PVPG  H14Y39097   4.360   4.845   9.604
   38PVPG  C31539098   4.272   4.794   9.796
   38PVPG  H15X39099   4.291   4.898   9.832
   38PVPG  H15Y39100   4.360   4.735   9.831
   38PVPG  C31639101   4.143   4.741   9.861
   38PVPG  H16X39102   4.120   4.637   9.832
   38PVPG  H16Y39103   4.153   4.744   9.972
   38PVPG  H16Z39104   4.055   4.802   9.831
   39PVPG   C1339105   2.885   5.035   7.501
   39PVPG  H13A39106   2.857   5.139   7.474
   39PVPG  H13B39107   2.902   4.978   7.408
   39PVPG   OC339108   2.778   4.975   7.574
   39PVPG   HO339109   2.816   4.894   7.608
   39PVPG   C1239110   3.015   5.042   7.584
   39PVPG  H12A39111   3.093   5.090   7.522
   39PVPG   OC239112   3.057   4.910   7.619
   39PVPG   HO239113   3.097   4.920   7.706
   39PVPG   C1139114   2.996   5.130   7.710
   39PVPG  H11A39115   2.920   5.084   7.776
   39PVPG  H11B39116   2.954   5.227   7.678
   39PVPG     P39117   3.162   5.070   7.902
   39PVPG   O1339118   3.281   5.132   7.964
   39PVPG   O1439119   3.177   4.931   7.851
   39PVPG   O1239120   3.122   5.154   7.774
   39PVPG   O1139121   3.031   5.084   7.990
   39PVPG    C139122   2.954   4.974   8.039
   39PVPG    HA39123   2.968   4.882   7.978
   39PVPG    HB39124   2.847   5.001   8.035
   39PVPG    C239125   2.990   4.942   8.186
   39PVPG    HS39126   2.961   5.030   8.246
   39PVPG   O2139127   3.131   4.916   8.190
   39PVPG   C2139128   3.196   4.972   8.290
   39PVPG   O2239129   3.149   5.040   8.379
   39PVPG   C2239130   3.342   4.931   8.277
   39PVPG   H2R39131   3.405   5.008   8.327
   39PVPG   H2S39132   3.367   4.930   8.169
   39PVPG    C339133   2.916   4.817   8.241
   39PVPG    HX39134   2.806   4.829   8.231
   39PVPG    HY39135   2.945   4.731   8.177
   39PVPG   O3139136   2.957   4.789   8.377
   39PVPG   C3139137   2.893   4.860   8.469
   39PVPG   O3239138   2.793   4.926   8.448
   39PVPG   C3239139   2.966   4.848   8.602
   39PVPG   H2X39140   3.046   4.925   8.605
   39PVPG   H2Y39141   3.015   4.748   8.607
   39PVPG   C2339142   3.364   4.792   8.339
   39PVPG   H3R39143   3.456   4.747   8.295
   39PVPG   H3S39144   3.280   4.723   8.316
   39PVPG   C2439145   3.386   4.798   8.490
   39PVPG   H4R39146   3.293   4.833   8.540
   39PVPG   H4S39147   3.466   4.872   8.512
   39PVPG   C2539148   3.431   4.662   8.544
   39PVPG   H5R39149   3.521   4.631   8.487
   39PVPG   H5S39150   3.350   4.588   8.526
   39PVPG   C2639151   3.466   4.662   8.693
   39PVPG   H6R39152   3.562   4.717   8.707
   39PVPG   H6S39153   3.483   4.558   8.727
   39PVPG   C2739154   3.358   4.727   8.779
   39PVPG   H7R39155   3.258   4.692   8.746
   39PVPG   H7S39156   3.361   4.837   8.764
   39PVPG   C2839157   3.374   4.696   8.927
   39PVPG   H8R39158   3.475   4.729   8.960
   39PVPG   H8S39159   3.368   4.587   8.946
   39PVPG   C2939160   3.267   4.768   9.010
   39PVPG   H9R39161   3.170   4.715   9.000
   39PVPG   H9S39162   3.253   4.870   8.968
   39PVPG  C21039163   3.309   4.785   9.157
   39PVPG  H10R39164   3.241   4.859   9.205
   39PVPG  H10S39165   3.410   4.831   9.158
   39PVPG  C21139166   3.316   4.660   9.238
   39PVPG  H11139167   3.417   4.632   9.273
   39PVPG  C21239168   3.212   4.582   9.271
   39PVPG  H12139169   3.230   4.500   9.342
   39PVPG  C21339170   3.068   4.603   9.236
   39PVPG  H13R39171   3.010   4.519   9.280
   39PVPG  H13S39172   3.052   4.595   9.127
   39PVPG  C21439173   3.005   4.735   9.286
   39PVPG  H14R39174   2.894   4.724   9.285
   39PVPG  H14S39175   3.030   4.817   9.215
   39PVPG  C21539176   3.048   4.781   9.426
   39PVPG  H15R39177   2.988   4.869   9.457
   39PVPG  H15S39178   3.153   4.815   9.421
   39PVPG  C21639179   3.038   4.672   9.532
   39PVPG  H16R39180   3.138   4.656   9.578
   39PVPG  H16S39181   3.008   4.574   9.487
   39PVPG  C21739182   2.936   4.703   9.642
   39PVPG  H17R39183   2.836   4.714   9.596
   39PVPG  H17S39184   2.962   4.800   9.691
   39PVPG  C21839185   2.933   4.592   9.745
   39PVPG  H18R39186   2.934   4.495   9.691
   39PVPG  H18S39187   3.022   4.595   9.812
   39PVPG  H18T39188   2.841   4.596   9.807
   39PVPG   C3339189   2.872   4.867   8.723
   39PVPG   H3X39190   2.780   4.806   8.710
   39PVPG   H3Y39191   2.841   4.974   8.730
   39PVPG   C3439192   2.939   4.825   8.854
   39PVPG   H4X39193   3.036   4.877   8.866
   39PVPG   H4Y39194   2.960   4.716   8.848
   39PVPG   C3539195   2.851   4.850   8.977
   39PVPG   H5X39196   2.878   4.773   9.052
   39PVPG   H5Y39197   2.743   4.836   8.952
   39PVPG   C3639198   2.873   4.987   9.042
   39PVPG   H6X39199   2.846   5.069   8.972
   39PVPG   H6Y39200   2.982   4.997   9.064
   39PVPG   C3739201   2.796   5.003   9.174
   39PVPG   H7X39202   2.790   4.904   9.225
   39PVPG   H7Y39203   2.691   5.035   9.154
   39PVPG   C3839204   2.863   5.101   9.272
   39PVPG   H8X39205   2.859   5.203   9.229
   39PVPG   H8Y39206   2.970   5.074   9.283
   39PVPG   C3939207   2.797   5.101   9.410
   39PVPG   H9X39208   2.810   5.002   9.460
   39PVPG   H9Y39209   2.689   5.117   9.396
   39PVPG  C31039210   2.849   5.212   9.502
   39PVPG  H10X39211   2.777   5.228   9.585
   39PVPG  H10Y39212   2.850   5.305   9.442
   39PVPG  C31139213   2.990   5.191   9.563
   39PVPG  H11X39214   3.028   5.293   9.586
   39PVPG  H11Y39215   3.059   5.146   9.489
   39PVPG  C31239216   2.990   5.112   9.694
   39PVPG  H12X39217   3.009   5.004   9.675
   39PVPG  H12Y39218   2.888   5.121   9.738
   39PVPG  C31339219   3.084   5.165   9.804
   39PVPG  H13X39220   3.051   5.120   9.900
   39PVPG  H13Y39221   3.073   5.275   9.813
   39PVPG  C31439222   3.233   5.131   9.789
   39PVPG  H14X39223   3.274   5.183   9.700
   39PVPG  H14Y39224   3.243   5.021   9.774
   39PVPG  C31539225   3.314   5.174   9.913
   39PVPG  H15X39226   3.260   5.137  10.003
   39PVPG  H15Y39227   3.315   5.284   9.919
   39PVPG  C31639228   3.457   5.119   9.918
   39PVPG  H16X39229   3.456   5.008   9.913
   39PVPG  H16Y39230   3.517   5.159   9.833
   39PVPG  H16Z39231   3.506   5.149  10.013
   40PVPG   C1339232   3.806   2.272   7.744
   40PVPG  H13A39233   3.882   2.339   7.789
   40PVPG  H13B39234   3.809   2.286   7.634
   40PVPG   OC339235   3.676   2.308   7.795
   40PVPG   HO339236   3.659   2.243   7.864
   40PVPG   C1239237   3.845   2.126   7.779
   40PVPG  H12A39238   3.769   2.057   7.738
   40PVPG   OC239239   3.845   2.112   7.921
   40PVPG   HO239240   3.880   2.025   7.942
   40PVPG   C1139241   3.985   2.090   7.720
   40PVPG  H11A39242   3.968   2.040   7.622
   40PVPG  H11B39243   4.036   2.017   7.786
   40PVPG     P39244   4.219   2.212   7.702
   40PVPG   O1339245   4.260   2.319   7.607
   40PVPG   O1439246   4.272   2.077   7.674
   40PVPG   O1239247   4.061   2.208   7.698
   40PVPG   O1139248   4.253   2.259   7.849
   40PVPG    C139249   4.171   2.227   7.962
   40PVPG    HA39250   4.197   2.127   8.003
   40PVPG    HB39251   4.063   2.227   7.935
   40PVPG    C239252   4.185   2.333   8.074
   40PVPG    HS39253   4.198   2.431   8.022
   40PVPG   O2139254   4.299   2.303   8.157
   40PVPG   C2139255   4.329   2.400   8.240
   40PVPG   O2239256   4.295   2.517   8.228
   40PVPG   C2239257   4.412   2.343   8.355
   40PVPG   H2R39258   4.505   2.301   8.309
   40PVPG   H2S39259   4.355   2.260   8.402
   40PVPG    C339260   4.055   2.343   8.161
   40PVPG    HX39261   4.061   2.437   8.220
   40PVPG    HY39262   3.967   2.351   8.094
   40PVPG   O3139263   4.041   2.227   8.246
   40PVPG   C3139264   3.950   2.244   8.342
   40PVPG   O3239265   3.880   2.343   8.353
   40PVPG   C3239266   3.953   2.124   8.436
   40PVPG   H2X39267   4.052   2.123   8.485
   40PVPG   H2Y39268   3.944   2.031   8.375
   40PVPG   C2339269   4.451   2.447   8.462
   40PVPG   H3R39270   4.476   2.545   8.416
   40PVPG   H3S39271   4.543   2.411   8.513
   40PVPG   C2439272   4.347   2.466   8.575
   40PVPG   H4R39273   4.393   2.531   8.652
   40PVPG   H4S39274   4.326   2.369   8.623
   40PVPG   C2539275   4.215   2.533   8.533
   40PVPG   H5R39276   4.151   2.461   8.477
   40PVPG   H5S39277   4.236   2.618   8.465
   40PVPG   C2639278   4.136   2.588   8.653
   40PVPG   H6R39279   4.052   2.650   8.617
   40PVPG   H6S39280   4.204   2.654   8.712
   40PVPG   C2739281   4.080   2.479   8.745
   40PVPG   H7R39282   4.158   2.402   8.766
   40PVPG   H7S39283   3.996   2.428   8.694
   40PVPG   C2839284   4.033   2.534   8.881
   40PVPG   H8R39285   3.964   2.620   8.865
   40PVPG   H8S39286   4.120   2.569   8.939
   40PVPG   C2939287   3.960   2.427   8.964
   40PVPG   H9R39288   4.024   2.336   8.967
   40PVPG   H9S39289   3.866   2.401   8.911
   40PVPG  C21039290   3.932   2.471   9.109
   40PVPG  H10R39291   3.898   2.577   9.108
   40PVPG  H10S39292   4.027   2.469   9.166
   40PVPG  C21139293   3.825   2.386   9.173
   40PVPG  H11139294   3.723   2.411   9.142
   40PVPG  C21239295   3.842   2.283   9.258
   40PVPG  H12139296   3.753   2.231   9.296
   40PVPG  C21339297   3.972   2.228   9.310
   40PVPG  H13R39298   4.053   2.303   9.302
   40PVPG  H13S39299   4.002   2.139   9.249
   40PVPG  C21439300   3.966   2.182   9.457
   40PVPG  H14R39301   3.896   2.096   9.467
   40PVPG  H14S39302   3.927   2.265   9.520
   40PVPG  C21539303   4.105   2.141   9.507
   40PVPG  H15R39304   4.176   2.225   9.492
   40PVPG  H15S39305   4.140   2.055   9.446
   40PVPG  C21639306   4.108   2.100   9.654
   40PVPG  H16R39307   4.204   2.048   9.674
   40PVPG  H16S39308   4.026   2.028   9.673
   40PVPG  C21739309   4.099   2.217   9.752
   40PVPG  H17R39310   4.046   2.183   9.844
   40PVPG  H17S39311   4.036   2.298   9.709
   40PVPG  C21839312   4.236   2.272   9.793
   40PVPG  H18R39313   4.225   2.352   9.869
   40PVPG  H18S39314   4.299   2.191   9.837
   40PVPG  H18T39315   4.289   2.313   9.705
   40PVPG   C3339316   3.842   2.127   8.543
   40PVPG   H3X39317   3.744   2.105   8.496
   40PVPG   H3Y39318   3.835   2.228   8.589
   40PVPG   C3439319   3.866   2.027   8.658
   40PVPG   H4X39320   3.897   1.929   8.617
   40PVPG   H4Y39321   3.771   2.012   8.713
   40PVPG   C3539322   3.970   2.080   8.756
   40PVPG   H5X39323   3.932   2.175   8.800
   40PVPG   H5Y39324   4.064   2.104   8.702
   40PVPG   C3639325   4.004   1.985   8.871
   40PVPG   H6X39326   4.050   1.892   8.831
   40PVPG   H6Y39327   3.912   1.957   8.927
   40PVPG   C3739328   4.102   2.055   8.966
   40PVPG   H7X39329   4.048   2.140   9.015
   40PVPG   H7Y39330   4.185   2.098   8.905
   40PVPG   C3839331   4.163   1.968   9.075
   40PVPG   H8X39332   4.187   1.869   9.031
   40PVPG   H8Y39333   4.089   1.951   9.157
   40PVPG   C3939334   4.293   2.029   9.131
   40PVPG   H9X39335   4.367   2.030   9.048
   40PVPG   H9Y39336   4.332   1.962   9.211
   40PVPG  C31039337   4.281   2.172   9.187
   40PVPG  H10X39338   4.271   2.165   9.297
   40PVPG  H10Y39339   4.190   2.223   9.149
   40PVPG  C31139340   4.400   2.263   9.154
   40PVPG  H11X39341   4.378   2.322   9.062
   40PVPG  H11Y39342   4.489   2.200   9.131
   40PVPG  C31239343   4.439   2.357   9.269
   40PVPG  H12X39344   4.536   2.405   9.243
   40PVPG  H12Y39345   4.455   2.298   9.362
   40PVPG  C31339346   4.336   2.467   9.296
   40PVPG  H13X39347   4.243   2.423   9.338
   40PVPG  H13Y39348   4.310   2.513   9.198
   40PVPG  C31439349   4.389   2.577   9.388
   40PVPG  H14X39350   4.328   2.668   9.372
   40PVPG  H14Y39351   4.494   2.599   9.360
   40PVPG  C31539352   4.385   2.546   9.539
   40PVPG  H15X39353   4.452   2.461   9.561
   40PVPG  H15Y39354   4.283   2.516   9.568
   40PVPG  C31639355   4.425   2.668   9.624
   40PVPG  H16X39356   4.411   2.646   9.732
   40PVPG  H16Y39357   4.531   2.695   9.606
   40PVPG  H16Z39358   4.362   2.755   9.598
   41PVPG   C1339359   2.485   4.818   7.859
   41PVPG  H13A39360   2.503   4.757   7.950
   41PVPG  H13B39361   2.583   4.857   7.823
   41PVPG   OC339362   2.400   4.928   7.890
   41PVPG   HO339363   2.408   4.945   7.984
   41PVPG   C1239364   2.429   4.722   7.748
   41PVPG  H12A39365   2.507   4.647   7.724
   41PVPG   OC239366   2.395   4.793   7.629
   41PVPG   HO239367   2.316   4.745   7.603
   41PVPG   C1139368   2.301   4.647   7.793
   41PVPG  H11A39369   2.223   4.722   7.818
   41PVPG  H11B39370   2.324   4.591   7.886
   41PVPG     P39371   2.111   4.498   7.687
   41PVPG   O1339372   2.117   4.351   7.670
   41PVPG   O1439373   2.034   4.574   7.584
   41PVPG   O1239374   2.259   4.556   7.690
   41PVPG   O1139375   2.056   4.534   7.830
   41PVPG    C139376   1.997   4.437   7.918
   41PVPG    HA39377   2.035   4.334   7.900
   41PVPG    HB39378   1.887   4.436   7.902
   41PVPG    C239379   2.022   4.470   8.069
   41PVPG    HS39380   1.948   4.414   8.129
   41PVPG   O2139381   2.012   4.611   8.094
   41PVPG   C2139382   1.889   4.658   8.086
   41PVPG   O2239383   1.788   4.591   8.076
   41PVPG   C2239384   1.891   4.811   8.094
   41PVPG   H2R39385   1.813   4.846   8.023
   41PVPG   H2S39386   1.990   4.849   8.061
   41PVPG    C339387   2.163   4.423   8.116
   41PVPG    HX39388   2.188   4.325   8.071
   41PVPG    HY39389   2.237   4.496   8.076
   41PVPG   O3139390   2.173   4.421   8.260
   41PVPG   C3139391   2.132   4.311   8.321
   41PVPG   O3239392   2.094   4.209   8.264
   41PVPG   C3239393   2.136   4.333   8.472
   41PVPG   H2X39394   2.069   4.259   8.520
   41PVPG   H2Y39395   2.095   4.435   8.493
   41PVPG   C2339396   1.855   4.861   8.236
   41PVPG   H3R39397   1.772   4.798   8.275
   41PVPG   H3S39398   1.816   4.965   8.230
   41PVPG   C2439399   1.973   4.859   8.334
   41PVPG   H4R39400   2.028   4.763   8.325
   41PVPG   H4S39401   1.932   4.863   8.438
   41PVPG   C2539402   2.069   4.977   8.316
   41PVPG   H5R39403   2.036   5.035   8.227
   41PVPG   H5S39404   2.172   4.939   8.294
   41PVPG   C2639405   2.075   5.073   8.436
   41PVPG   H6R39406   1.978   5.076   8.490
   41PVPG   H6S39407   2.092   5.175   8.395
   41PVPG   C2739408   2.191   5.045   8.534
   41PVPG   H7R39409   2.208   5.134   8.597
   41PVPG   H7S39410   2.283   5.030   8.474
   41PVPG   C2839411   2.170   4.923   8.625
   41PVPG   H8R39412   2.270   4.880   8.648
   41PVPG   H8S39413   2.111   4.845   8.574
   41PVPG   C2939414   2.107   4.958   8.761
   41PVPG   H9R39415   2.009   5.008   8.746
   41PVPG   H9S39416   2.174   5.031   8.811
   41PVPG  C21039417   2.088   4.832   8.849
   41PVPG  H10R39418   2.163   4.756   8.818
   41PVPG  H10S39419   1.988   4.789   8.827
   41PVPG  C21139420   2.104   4.858   8.997
   41PVPG  H11139421   2.148   4.956   9.022
   41PVPG  C21239422   2.074   4.771   9.096
   41PVPG  H12139423   2.092   4.799   9.201
   41PVPG  C21339424   2.020   4.633   9.074
   41PVPG  H13R39425   2.110   4.570   9.061
   41PVPG  H13S39426   1.963   4.627   8.979
   41PVPG  C21439427   1.938   4.555   9.181
   41PVPG  H14R39428   2.007   4.515   9.258
   41PVPG  H14S39429   1.897   4.468   9.125
   41PVPG  C21539430   1.818   4.622   9.250
   41PVPG  H15R39431   1.749   4.542   9.283
   41PVPG  H15S39432   1.762   4.683   9.176
   41PVPG  C21639433   1.854   4.703   9.376
   41PVPG  H16R39434   1.763   4.755   9.412
   41PVPG  H16S39435   1.930   4.780   9.351
   41PVPG  C21739436   1.905   4.617   9.492
   41PVPG  H17R39437   2.000   4.568   9.462
   41PVPG  H17S39438   1.832   4.536   9.512
   41PVPG  C21839439   1.929   4.695   9.621
   41PVPG  H18R39440   1.975   4.631   9.698
   41PVPG  H18S39441   1.996   4.782   9.603
   41PVPG  H18T39442   1.833   4.734   9.661
   41PVPG   C3339443   2.278   4.323   8.533
   41PVPG   H3X39444   2.351   4.380   8.471
   41PVPG   H3Y39445   2.309   4.216   8.533
   41PVPG   C3439446   2.290   4.377   8.677
   41PVPG   H4X39447   2.284   4.488   8.675
   41PVPG   H4Y39448   2.390   4.351   8.719
   41PVPG   C3539449   2.181   4.325   8.772
   41PVPG   H5X39450   2.181   4.214   8.774
   41PVPG   H5Y39451   2.083   4.359   8.732
   41PVPG   C3639452   2.192   4.381   8.915
   41PVPG   H6X39453   2.087   4.395   8.950
   41PVPG   H6Y39454   2.242   4.480   8.916
   41PVPG   C3739455   2.258   4.287   9.017
   41PVPG   H7X39456   2.368   4.285   9.006
   41PVPG   H7Y39457   2.219   4.185   8.995
   41PVPG   C3839458   2.217   4.316   9.163
   41PVPG   H8X39459   2.226   4.222   9.222
   41PVPG   H8Y39460   2.110   4.345   9.167
   41PVPG   C3939461   2.301   4.417   9.240
   41PVPG   H9X39462   2.291   4.518   9.194
   41PVPG   H9Y39463   2.407   4.386   9.233
   41PVPG  C31039464   2.260   4.421   9.388
   41PVPG  H10X39465   2.288   4.324   9.435
   41PVPG  H10Y39466   2.150   4.431   9.397
   41PVPG  C31139467   2.325   4.534   9.468
   41PVPG  H11X39468   2.433   4.537   9.441
   41PVPG  H11Y39469   2.318   4.514   9.578
   41PVPG  C31239470   2.266   4.672   9.439
   41PVPG  H12X39471   2.182   4.692   9.510
   41PVPG  H12Y39472   2.224   4.673   9.336
   41PVPG  C31339473   2.369   4.785   9.450
   41PVPG  H13X39474   2.456   4.763   9.385
   41PVPG  H13Y39475   2.406   4.792   9.554
   41PVPG  C31439476   2.307   4.919   9.407
   41PVPG  H14X39477   2.218   4.939   9.470
   41PVPG  H14Y39478   2.273   4.908   9.302
   41PVPG  C31539479   2.404   5.037   9.416
   41PVPG  H15X39480   2.371   5.117   9.346
   41PVPG  H15Y39481   2.504   5.003   9.382
   41PVPG  C31639482   2.412   5.098   9.556
   41PVPG  H16X39483   2.493   5.173   9.562
   41PVPG  H16Y39484   2.316   5.147   9.583
   41PVPG  H16Z39485   2.432   5.018   9.631
   42PVPG   C1339486   4.033   6.030   7.644
   42PVPG  H13A39487   4.129   5.984   7.674
   42PVPG  H13B39488   3.977   5.958   7.581
   42PVPG   OC339489   4.058   6.152   7.573
   42PVPG   HO339490   4.022   6.218   7.632
   42PVPG   C1239491   3.951   6.060   7.772
   42PVPG  H12A39492   3.951   5.969   7.836
   42PVPG   OC239493   3.817   6.095   7.739
   42PVPG   HO239494   3.818   6.190   7.746
   42PVPG   C1139495   4.012   6.179   7.852
   42PVPG  H11A39496   4.120   6.156   7.868
   42PVPG  H11B39497   3.963   6.181   7.951
   42PVPG     P39498   4.051   6.435   7.852
   42PVPG   O1339499   4.002   6.553   7.778
   42PVPG   O1439500   4.198   6.421   7.858
   42PVPG   O1239501   3.994   6.304   7.782
   42PVPG   O1139502   3.988   6.430   7.996
   42PVPG    C139503   3.846   6.449   8.010
   42PVPG    HA39504   3.789   6.386   7.939
   42PVPG    HB39505   3.819   6.555   7.992
   42PVPG    C239506   3.794   6.413   8.153
   42PVPG    HS39507   3.684   6.407   8.144
   42PVPG   O2139508   3.840   6.511   8.247
   42PVPG   C2139509   3.746   6.561   8.326
   42PVPG   O2239510   3.626   6.552   8.308
   42PVPG   C2239511   3.809   6.630   8.446
   42PVPG   H2R39512   3.733   6.625   8.528
   42PVPG   H2S39513   3.827   6.737   8.421
   42PVPG    C339514   3.842   6.272   8.199
   42PVPG    HX39515   3.838   6.204   8.112
   42PVPG    HY39516   3.948   6.280   8.231
   42PVPG   O3139517   3.753   6.219   8.299
   42PVPG   C3139518   3.806   6.183   8.416
   42PVPG   O3239519   3.922   6.197   8.448
   42PVPG   C3239520   3.697   6.118   8.502
   42PVPG   H2X39521   3.639   6.050   8.436
   42PVPG   H2Y39522   3.628   6.197   8.539
   42PVPG   C2339523   3.940   6.563   8.495
   42PVPG   H3R39524   4.025   6.592   8.429
   42PVPG   H3S39525   3.929   6.453   8.488
   42PVPG   C2439526   3.972   6.594   8.641
   42PVPG   H4R39527   3.884   6.564   8.703
   42PVPG   H4S39528   3.989   6.703   8.657
   42PVPG   C2539529   4.094   6.514   8.689
   42PVPG   H5R39530   4.188   6.559   8.651
   42PVPG   H5S39531   4.085   6.413   8.643
   42PVPG   C2639532   4.100   6.498   8.842
   42PVPG   H6R39533   4.000   6.467   8.878
   42PVPG   H6S39534   4.124   6.595   8.889
   42PVPG   C2739535   4.201   6.391   8.888
   42PVPG   H7R39536   4.191   6.380   8.998
   42PVPG   H7S39537   4.305   6.424   8.866
   42PVPG   C2839538   4.176   6.254   8.823
   42PVPG   H8R39539   4.222   6.251   8.721
   42PVPG   H8S39540   4.066   6.244   8.810
   42PVPG   C2939541   4.222   6.133   8.905
   42PVPG   H9R39542   4.171   6.043   8.863
   42PVPG   H9S39543   4.189   6.144   9.010
   42PVPG  C21039544   4.374   6.106   8.900
   42PVPG  H10R39545   4.426   6.189   8.954
   42PVPG  H10S39546   4.408   6.110   8.795
   42PVPG  C21139547   4.406   5.972   8.961
   42PVPG  H11139548   4.414   5.889   8.889
   42PVPG  C21239549   4.423   5.946   9.092
   42PVPG  H12139550   4.445   5.843   9.123
   42PVPG  C21339551   4.414   6.044   9.206
   42PVPG  H13R39552   4.389   6.146   9.172
   42PVPG  H13S39553   4.514   6.051   9.254
   42PVPG  C21439554   4.312   6.004   9.314
   42PVPG  H14R39555   4.285   5.896   9.307
   42PVPG  H14S39556   4.218   6.062   9.300
   42PVPG  C21539557   4.366   6.028   9.456
   42PVPG  H15R39558   4.398   6.134   9.467
   42PVPG  H15S39559   4.455   5.963   9.471
   42PVPG  C21639560   4.263   5.995   9.565
   42PVPG  H16R39561   4.220   5.895   9.546
   42PVPG  H16S39562   4.180   6.069   9.562
   42PVPG  C21739563   4.324   5.993   9.706
   42PVPG  H17R39564   4.376   6.090   9.726
   42PVPG  H17S39565   4.400   5.913   9.711
   42PVPG  C21839566   4.220   5.969   9.815
   42PVPG  H18R39567   4.167   5.873   9.797
   42PVPG  H18S39568   4.267   5.961   9.915
   42PVPG  H18T39569   4.146   6.051   9.818
   42PVPG   C3339570   3.754   6.036   8.620
   42PVPG   H3X39571   3.844   5.981   8.586
   42PVPG   H3Y39572   3.679   5.961   8.652
   42PVPG   C3439573   3.791   6.121   8.743
   42PVPG   H4X39574   3.699   6.156   8.794
   42PVPG   H4Y39575   3.847   6.210   8.708
   42PVPG   C3539576   3.881   6.045   8.842
   42PVPG   H5X39577   3.915   6.115   8.921
   42PVPG   H5Y39578   3.971   6.011   8.787
   42PVPG   C3639579   3.817   5.922   8.910
   42PVPG   H6X39580   3.894   5.874   8.974
   42PVPG   H6Y39581   3.789   5.848   8.832
   42PVPG   C3739582   3.693   5.953   8.997
   42PVPG   H7X39583   3.661   5.859   9.047
   42PVPG   H7Y39584   3.611   5.984   8.930
   42PVPG   C3839585   3.713   6.063   9.102
   42PVPG   H8X39586   3.616   6.081   9.153
   42PVPG   H8Y39587   3.741   6.157   9.051
   42PVPG   C3939588   3.817   6.027   9.209
   42PVPG   H9X39589   3.911   5.989   9.162
   42PVPG   H9Y39590   3.774   5.945   9.269
   42PVPG  C31039591   3.854   6.143   9.303
   42PVPG  H10X39592   3.896   6.098   9.395
   42PVPG  H10Y39593   3.763   6.198   9.335
   42PVPG  C31139594   3.964   6.237   9.249
   42PVPG  H11X39595   4.039   6.178   9.193
   42PVPG  H11Y39596   4.016   6.280   9.337
   42PVPG  C31239597   3.916   6.355   9.162
   42PVPG  H12X39598   3.882   6.316   9.063
   42PVPG  H12Y39599   4.003   6.421   9.143
   42PVPG  C31339600   3.803   6.440   9.223
   42PVPG  H13X39601   3.711   6.378   9.229
   42PVPG  H13Y39602   3.780   6.525   9.156
   42PVPG  C31439603   3.835   6.494   9.363
   42PVPG  H14X39604   3.921   6.564   9.359
   42PVPG  H14Y39605   3.865   6.409   9.428
   42PVPG  C31539606   3.715   6.562   9.430
   42PVPG  H15X39607   3.623   6.539   9.372
   42PVPG  H15Y39608   3.729   6.672   9.426
   42PVPG  C31639609   3.694   6.516   9.575
   42PVPG  H16X39610   3.782   6.541   9.637
   42PVPG  H16Y39611   3.605   6.566   9.619
   42PVPG  H16Z39612   3.677   6.406   9.579
   43PVPG   C1339613   5.064   1.759   7.606
   43PVPG  H13A39614   5.081   1.859   7.562
   43PVPG  H13B39615   5.137   1.745   7.689
   43PVPG   OC339616   5.082   1.657   7.507
   43PVPG   HO339617   5.041   1.579   7.544
   43PVPG   C1239618   4.921   1.753   7.664
   43PVPG  H12A39619   4.848   1.760   7.580
   43PVPG   OC239620   4.898   1.862   7.752
   43PVPG   HO239621   4.823   1.833   7.805
   43PVPG   C1139622   4.896   1.620   7.740
   43PVPG  H11A39623   4.921   1.631   7.847
   43PVPG  H11B39624   4.964   1.541   7.701
   43PVPG     P39625   4.650   1.620   7.820
   43PVPG   O1339626   4.523   1.611   7.745
   43PVPG   O1439627   4.691   1.750   7.876
   43PVPG   O1239628   4.762   1.576   7.717
   43PVPG   O1139629   4.669   1.500   7.921
   43PVPG    C139630   4.560   1.421   7.967
   43PVPG    HA39631   4.569   1.318   7.925
   43PVPG    HB39632   4.460   1.461   7.939
   43PVPG    C239633   4.561   1.409   8.122
   43PVPG    HS39634   4.478   1.339   8.148
   43PVPG   O2139635   4.529   1.540   8.175
   43PVPG   C2139636   4.519   1.546   8.307
   43PVPG   O2239637   4.552   1.457   8.384
   43PVPG   C2239638   4.461   1.680   8.351
   43PVPG   H2R39639   4.411   1.728   8.264
   43PVPG   H2S39640   4.547   1.743   8.383
   43PVPG    C339641   4.694   1.345   8.175
   43PVPG    HX39642   4.664   1.280   8.260
   43PVPG    HY39643   4.737   1.279   8.096
   43PVPG   O3139644   4.792   1.444   8.215
   43PVPG   C3139645   4.865   1.410   8.321
   43PVPG   O3239646   4.873   1.297   8.367
   43PVPG   C3239647   4.944   1.531   8.370
   43PVPG   H2X39648   4.905   1.622   8.320
   43PVPG   H2Y39649   5.050   1.517   8.341
   43PVPG   C2339650   4.360   1.663   8.467
   43PVPG   H3R39651   4.399   1.588   8.540
   43PVPG   H3S39652   4.265   1.623   8.427
   43PVPG   C2439653   4.332   1.790   8.549
   43PVPG   H4R39654   4.238   1.774   8.606
   43PVPG   H4S39655   4.317   1.876   8.481
   43PVPG   C2539656   4.444   1.818   8.650
   43PVPG   H5R39657   4.539   1.837   8.594
   43PVPG   H5S39658   4.460   1.727   8.711
   43PVPG   C2639659   4.415   1.936   8.743
   43PVPG   H6R39660   4.334   1.906   8.814
   43PVPG   H6S39661   4.377   2.021   8.683
   43PVPG   C2739662   4.539   1.982   8.822
   43PVPG   H7R39663   4.511   2.070   8.884
   43PVPG   H7S39664   4.617   2.015   8.750
   43PVPG   C2839665   4.598   1.874   8.913
   43PVPG   H8R39666   4.623   1.785   8.851
   43PVPG   H8S39667   4.519   1.839   8.984
   43PVPG   C2939668   4.727   1.915   8.987
   43PVPG   H9R39669   4.803   1.945   8.911
   43PVPG   H9S39670   4.767   1.827   9.041
   43PVPG  C21039671   4.713   2.028   9.091
   43PVPG  H10R39672   4.675   2.119   9.040
   43PVPG  H10S39673   4.813   2.052   9.132
   43PVPG  C21139674   4.618   1.984   9.199
   43PVPG  H11139675   4.542   1.911   9.169
   43PVPG  C21239676   4.616   2.022   9.327
   43PVPG  H12139677   4.533   1.985   9.388
   43PVPG  C21339678   4.708   2.118   9.398
   43PVPG  H13R39679   4.704   2.217   9.349
   43PVPG  H13S39680   4.813   2.082   9.395
   43PVPG  C21439681   4.667   2.136   9.546
   43PVPG  H14R39682   4.561   2.170   9.554
   43PVPG  H14S39683   4.729   2.218   9.587
   43PVPG  C21539684   4.689   2.014   9.638
   43PVPG  H15R39685   4.678   2.048   9.743
   43PVPG  H15S39686   4.794   1.979   9.625
   43PVPG  C21639687   4.597   1.892   9.619
   43PVPG  H16R39688   4.620   1.818   9.699
   43PVPG  H16S39689   4.622   1.841   9.523
   43PVPG  C21739690   4.446   1.921   9.623
   43PVPG  H17R39691   4.420   2.004   9.555
   43PVPG  H17S39692   4.418   1.954   9.725
   43PVPG  C21839693   4.363   1.798   9.583
   43PVPG  H18R39694   4.391   1.763   9.482
   43PVPG  H18S39695   4.379   1.715   9.656
   43PVPG  H18T39696   4.255   1.823   9.583
   43PVPG   C3339697   4.933   1.546   8.523
   43PVPG   H3X39698   4.987   1.637   8.554
   43PVPG   H3Y39699   4.981   1.459   8.573
   43PVPG   C3439700   4.786   1.556   8.567
   43PVPG   H4X39701   4.737   1.456   8.557
   43PVPG   H4Y39702   4.733   1.626   8.500
   43PVPG   C3539703   4.767   1.604   8.710
   43PVPG   H5X39704   4.658   1.613   8.730
   43PVPG   H5Y39705   4.812   1.706   8.719
   43PVPG   C3639706   4.828   1.513   8.817
   43PVPG   H6X39707   4.934   1.491   8.792
   43PVPG   H6Y39708   4.773   1.417   8.821
   43PVPG   C3739709   4.824   1.582   8.954
   43PVPG   H7X39710   4.718   1.598   8.983
   43PVPG   H7Y39711   4.873   1.682   8.941
   43PVPG   C3839712   4.901   1.509   9.064
   43PVPG   H8X39713   5.001   1.485   9.021
   43PVPG   H8Y39714   4.852   1.413   9.088
   43PVPG   C3939715   4.925   1.592   9.192
   43PVPG   H9X39716   4.994   1.675   9.165
   43PVPG   H9Y39717   4.978   1.529   9.267
   43PVPG  C31039718   4.800   1.655   9.257
   43PVPG  H10X39719   4.716   1.655   9.186
   43PVPG  H10Y39720   4.822   1.762   9.280
   43PVPG  C31139721   4.754   1.588   9.387
   43PVPG  H11X39722   4.751   1.478   9.374
   43PVPG  H11Y39723   4.650   1.622   9.408
   43PVPG  C31239724   4.840   1.624   9.509
   43PVPG  H12X39725   4.849   1.735   9.516
   43PVPG  H12Y39726   4.942   1.583   9.497
   43PVPG  C31339727   4.778   1.573   9.641
   43PVPG  H13X39728   4.773   1.463   9.638
   43PVPG  H13Y39729   4.674   1.610   9.649
   43PVPG  C31439730   4.857   1.616   9.765
   43PVPG  H14X39731   4.847   1.726   9.777
   43PVPG  H14Y39732   4.965   1.594   9.750
   43PVPG  C31539733   4.811   1.547   9.895
   43PVPG  H15X39734   4.854   1.603   9.981
   43PVPG  H15Y39735   4.854   1.445   9.899
   43PVPG  C31639736   4.660   1.535   9.913
   43PVPG  H16X39737   4.635   1.504  10.017
   43PVPG  H16Y39738   4.610   1.632   9.893
   43PVPG  H16Z39739   4.618   1.460   9.843
   44PVPG   C1339740   1.371   4.965   7.571
   44PVPG  H13A39741   1.418   4.871   7.535
   44PVPG  H13B39742   1.274   4.939   7.618
   44PVPG   OC339743   1.350   5.053   7.460
   44PVPG   HO339744   1.437   5.080   7.433
   44PVPG   C1239745   1.463   5.029   7.678
   44PVPG  H12A39746   1.562   5.050   7.632
   44PVPG   OC239747   1.481   4.939   7.787
   44PVPG   HO239748   1.527   4.993   7.851
   44PVPG   C1139749   1.406   5.162   7.734
   44PVPG  H11A39750   1.311   5.139   7.786
   44PVPG  H11B39751   1.383   5.228   7.648
   44PVPG     P39752   1.464   5.365   7.888
   44PVPG   O1339753   1.387   5.447   7.791
   44PVPG   O1439754   1.587   5.431   7.935
   44PVPG   O1239755   1.500   5.225   7.821
   44PVPG   O1139756   1.367   5.327   8.007
   44PVPG    C139757   1.360   5.195   8.063
   44PVPG    HA39758   1.458   5.141   8.061
   44PVPG    HB39759   1.286   5.134   8.007
   44PVPG    C239760   1.313   5.202   8.211
   44PVPG    HS39761   1.247   5.291   8.217
   44PVPG   O2139762   1.429   5.218   8.294
   44PVPG   C2139763   1.403   5.277   8.411
   44PVPG   O2239764   1.292   5.312   8.448
   44PVPG   C2239765   1.535   5.299   8.485
   44PVPG   H2R39766   1.586   5.383   8.433
   44PVPG   H2S39767   1.598   5.208   8.475
   44PVPG    C339768   1.228   5.078   8.254
   44PVPG    HX39769   1.195   5.096   8.359
   44PVPG    HY39770   1.136   5.080   8.192
   44PVPG   O3139771   1.296   4.951   8.234
   44PVPG   C3139772   1.371   4.915   8.341
   44PVPG   O3239773   1.359   4.961   8.453
   44PVPG   C3239774   1.479   4.816   8.297
   44PVPG   H2X39775   1.575   4.872   8.299
   44PVPG   H2Y39776   1.460   4.787   8.191
   44PVPG   C2339777   1.519   5.335   8.635
   44PVPG   H3R39778   1.432   5.402   8.652
   44PVPG   H3S39779   1.609   5.391   8.667
   44PVPG   C2439780   1.508   5.211   8.724
   44PVPG   H4R39781   1.597   5.145   8.707
   44PVPG   H4S39782   1.418   5.152   8.695
   44PVPG   C2539783   1.500   5.244   8.874
   44PVPG   H5R39784   1.486   5.149   8.931
   44PVPG   H5S39785   1.409   5.305   8.893
   44PVPG   C2639786   1.621   5.319   8.932
   44PVPG   H6R39787   1.605   5.330   9.042
   44PVPG   H6S39788   1.624   5.421   8.888
   44PVPG   C2739789   1.758   5.252   8.909
   44PVPG   H7R39790   1.796   5.281   8.809
   44PVPG   H7S39791   1.743   5.142   8.908
   44PVPG   C2839792   1.862   5.287   9.018
   44PVPG   H8R39793   1.827   5.248   9.116
   44PVPG   H8S39794   1.870   5.397   9.029
   44PVPG   C2939795   2.001   5.228   8.990
   44PVPG   H9R39796   2.040   5.275   8.897
   44PVPG   H9S39797   1.993   5.119   8.969
   44PVPG  C21039798   2.103   5.254   9.103
   44PVPG  H10R39799   2.086   5.356   9.143
   44PVPG  H10S39800   2.205   5.256   9.058
   44PVPG  C21139801   2.103   5.151   9.213
   44PVPG  H11139802   2.149   5.054   9.186
   44PVPG  C21239803   2.061   5.165   9.339
   44PVPG  H12139804   2.068   5.078   9.407
   44PVPG  C21339805   2.003   5.287   9.404
   44PVPG  H13R39806   1.973   5.364   9.329
   44PVPG  H13S39807   2.080   5.333   9.470
   44PVPG  C21439808   1.882   5.251   9.490
   44PVPG  H14R39809   1.901   5.158   9.548
   44PVPG  H14S39810   1.793   5.233   9.426
   44PVPG  C21539811   1.849   5.359   9.593
   44PVPG  H15R39812   1.935   5.367   9.663
   44PVPG  H15S39813   1.760   5.326   9.652
   44PVPG  C21639814   1.822   5.498   9.533
   44PVPG  H16R39815   1.727   5.496   9.476
   44PVPG  H16S39816   1.903   5.526   9.462
   44PVPG  C21739817   1.816   5.607   9.642
   44PVPG  H17R39818   1.806   5.706   9.594
   44PVPG  H17S39819   1.913   5.608   9.696
   44PVPG  C21839820   1.703   5.585   9.742
   44PVPG  H18R39821   1.605   5.581   9.692
   44PVPG  H18S39822   1.719   5.490   9.797
   44PVPG  H18T39823   1.702   5.667   9.818
   44PVPG   C3339824   1.489   4.688   8.383
   44PVPG   H3X39825   1.559   4.619   8.332
   44PVPG   H3Y39826   1.391   4.636   8.388
   44PVPG   C3439827   1.543   4.709   8.527
   44PVPG   H4X39828   1.552   4.608   8.573
   44PVPG   H4Y39829   1.470   4.767   8.587
   44PVPG   C3539830   1.681   4.774   8.535
   44PVPG   H5X39831   1.677   4.880   8.502
   44PVPG   H5Y39832   1.748   4.718   8.466
   44PVPG   C3639833   1.745   4.767   8.674
   44PVPG   H6X39834   1.853   4.795   8.666
   44PVPG   H6Y39835   1.741   4.661   8.708
   44PVPG   C3739836   1.680   4.856   8.781
   44PVPG   H7X39837   1.571   4.864   8.763
   44PVPG   H7Y39838   1.723   4.959   8.773
   44PVPG   C3839839   1.703   4.802   8.922
   44PVPG   H8X39840   1.811   4.782   8.939
   44PVPG   H8Y39841   1.651   4.705   8.934
   44PVPG   C3939842   1.652   4.893   9.034
   44PVPG   H9X39843   1.585   4.834   9.101
   44PVPG   H9Y39844   1.590   4.974   8.990
   44PVPG  C31039845   1.765   4.951   9.120
   44PVPG  H10X39846   1.821   5.029   9.064
   44PVPG  H10Y39847   1.839   4.870   9.141
   44PVPG  C31139848   1.718   5.002   9.255
   44PVPG  H11X39849   1.804   5.034   9.317
   44PVPG  H11Y39850   1.670   4.917   9.308
   44PVPG  C31239851   1.615   5.115   9.245
   44PVPG  H12X39852   1.563   5.111   9.147
   44PVPG  H12Y39853   1.665   5.215   9.251
   44PVPG  C31339854   1.510   5.103   9.353
   44PVPG  H13X39855   1.556   5.128   9.451
   44PVPG  H13Y39856   1.474   4.998   9.359
   44PVPG  C31439857   1.390   5.193   9.326
   44PVPG  H14X39858   1.351   5.172   9.224
   44PVPG  H14Y39859   1.424   5.299   9.328
   44PVPG  C31539860   1.279   5.171   9.428
   44PVPG  H15X39861   1.238   5.068   9.418
   44PVPG  H15Y39862   1.196   5.241   9.403
   44PVPG  C31639863   1.326   5.192   9.572
   44PVPG  H16X39864   1.385   5.105   9.607
   44PVPG  H16Y39865   1.391   5.281   9.580
   44PVPG  H16Z39866   1.240   5.206   9.641
   45PVPG   C1339867   3.961   1.067   7.623
   45PVPG  H13A39868   3.880   1.002   7.660
   45PVPG  H13B39869   3.963   1.062   7.512
   45PVPG   OC339870   4.088   1.024   7.673
   45PVPG   HO339871   4.136   1.107   7.673
   45PVPG   C1239872   3.935   1.214   7.665
   45PVPG  H12A39873   3.843   1.251   7.616
   45PVPG   OC239874   4.045   1.295   7.621
   45PVPG   HO239875   4.067   1.351   7.696
   45PVPG   C1139876   3.916   1.226   7.819
   45PVPG  H11A39877   4.000   1.175   7.871
   45PVPG  H11B39878   3.824   1.170   7.846
   45PVPG     P39879   4.020   1.438   7.930
   45PVPG   O1339880   3.972   1.571   7.972
   45PVPG   O1439881   4.131   1.429   7.831
   45PVPG   O1239882   3.898   1.362   7.860
   45PVPG   O1139883   4.049   1.343   8.053
   45PVPG    C139884   3.949   1.316   8.152
   45PVPG    HA39885   3.930   1.207   8.159
   45PVPG    HB39886   3.851   1.365   8.129
   45PVPG    C239887   3.992   1.365   8.294
   45PVPG    HS39888   4.025   1.471   8.285
   45PVPG   O2139889   4.094   1.278   8.346
   45PVPG   C2139890   4.217   1.324   8.334
   45PVPG   O2239891   4.251   1.424   8.274
   45PVPG   C2239892   4.315   1.230   8.405
   45PVPG   H2R39893   4.405   1.224   8.341
   45PVPG   H2S39894   4.270   1.129   8.413
   45PVPG    C339895   3.872   1.365   8.393
   45PVPG    HX39896   3.909   1.387   8.495
   45PVPG    HY39897   3.806   1.450   8.364
   45PVPG   O3139898   3.793   1.244   8.386
   45PVPG   C3139899   3.825   1.149   8.473
   45PVPG   O3239900   3.915   1.154   8.554
   45PVPG   C3239901   3.732   1.029   8.451
   45PVPG   H2X39902   3.791   0.943   8.412
   45PVPG   H2Y39903   3.658   1.057   8.373
   45PVPG   C2339904   4.358   1.282   8.544
   45PVPG   H3R39905   4.398   1.386   8.540
   45PVPG   H3S39906   4.444   1.219   8.577
   45PVPG   C2439907   4.250   1.277   8.651
   45PVPG   H4R39908   4.296   1.246   8.747
   45PVPG   H4S39909   4.173   1.201   8.624
   45PVPG   C2539910   4.180   1.412   8.675
   45PVPG   H5R39911   4.124   1.438   8.583
   45PVPG   H5S39912   4.257   1.491   8.691
   45PVPG   C2639913   4.083   1.408   8.793
   45PVPG   H6R39914   4.023   1.315   8.787
   45PVPG   H6S39915   4.013   1.494   8.785
   45PVPG   C2739916   4.151   1.416   8.931
   45PVPG   H7R39917   4.219   1.329   8.947
   45PVPG   H7S39918   4.072   1.410   9.009
   45PVPG   C2839919   4.229   1.546   8.954
   45PVPG   H8R39920   4.178   1.628   8.898
   45PVPG   H8S39921   4.332   1.537   8.911
   45PVPG   C2939922   4.236   1.587   9.102
   45PVPG   H9R39923   4.132   1.593   9.141
   45PVPG   H9S39924   4.278   1.690   9.110
   45PVPG  C21039925   4.317   1.492   9.192
   45PVPG  H10R39926   4.278   1.389   9.183
   45PVPG  H10S39927   4.300   1.525   9.297
   45PVPG  C21139928   4.464   1.502   9.161
   45PVPG  H11139929   4.498   1.604   9.140
   45PVPG  C21239930   4.555   1.403   9.160
   45PVPG  H12139931   4.660   1.431   9.141
   45PVPG  C21339932   4.536   1.257   9.188
   45PVPG  H13R39933   4.607   1.198   9.127
   45PVPG  H13S39934   4.434   1.223   9.160
   45PVPG  C21439935   4.561   1.226   9.337
   45PVPG  H14R39936   4.461   1.221   9.386
   45PVPG  H14S39937   4.617   1.306   9.390
   45PVPG  C21539938   4.635   1.093   9.364
   45PVPG  H15R39939   4.744   1.110   9.365
   45PVPG  H15S39940   4.612   1.020   9.283
   45PVPG  C21639941   4.585   1.036   9.497
   45PVPG  H16R39942   4.476   1.018   9.479
   45PVPG  H16S39943   4.591   1.111   9.579
   45PVPG  C21739944   4.636   0.901   9.544
   45PVPG  H17R39945   4.741   0.908   9.580
   45PVPG  H17S39946   4.634   0.829   9.459
   45PVPG  C21839947   4.546   0.851   9.656
   45PVPG  H18R39948   4.574   0.747   9.686
   45PVPG  H18S39949   4.554   0.916   9.746
   45PVPG  H18T39950   4.440   0.850   9.624
   45PVPG   C3339951   3.656   0.989   8.580
   45PVPG   H3X39952   3.566   0.929   8.554
   45PVPG   H3Y39953   3.622   1.083   8.629
   45PVPG   C3439954   3.737   0.911   8.683
   45PVPG   H4X39955   3.838   0.957   8.691
   45PVPG   H4Y39956   3.751   0.806   8.649
   45PVPG   C3539957   3.677   0.911   8.825
   45PVPG   H5X39958   3.745   0.852   8.890
   45PVPG   H5Y39959   3.579   0.858   8.824
   45PVPG   C3639960   3.657   1.050   8.889
   45PVPG   H6X39961   3.642   1.034   8.997
   45PVPG   H6Y39962   3.564   1.097   8.851
   45PVPG   C3739963   3.773   1.151   8.869
   45PVPG   H7X39964   3.752   1.219   8.784
   45PVPG   H7Y39965   3.865   1.095   8.842
   45PVPG   C3839966   3.805   1.230   8.997
   45PVPG   H8X39967   3.909   1.271   8.989
   45PVPG   H8Y39968   3.804   1.162   9.084
   45PVPG   C3939969   3.709   1.345   9.024
   45PVPG   H9X39970   3.605   1.310   9.005
   45PVPG   H9Y39971   3.729   1.429   8.954
   45PVPG  C31039972   3.716   1.395   9.169
   45PVPG  H10X39973   3.692   1.309   9.235
   45PVPG  H10Y39974   3.638   1.473   9.184
   45PVPG  C31139975   3.852   1.450   9.215
   45PVPG  H11X39976   3.888   1.527   9.144
   45PVPG  H11Y39977   3.926   1.367   9.217
   45PVPG  C31239978   3.839   1.511   9.355
   45PVPG  H12X39979   3.791   1.437   9.423
   45PVPG  H12Y39980   3.772   1.599   9.349
   45PVPG  C31339981   3.972   1.554   9.420
   45PVPG  H13X39982   3.947   1.610   9.513
   45PVPG  H13Y39983   4.027   1.624   9.353
   45PVPG  C31439984   4.063   1.437   9.459
   45PVPG  H14X39985   4.108   1.393   9.367
   45PVPG  H14Y39986   4.000   1.359   9.507
   45PVPG  C31539987   4.172   1.477   9.558
   45PVPG  H15X39988   4.127   1.478   9.660
   45PVPG  H15Y39989   4.204   1.581   9.534
   45PVPG  C31639990   4.296   1.388   9.562
   45PVPG  H16X39991   4.345   1.385   9.462
   45PVPG  H16Y39992   4.370   1.426   9.636
   45PVPG  H16Z39993   4.269   1.284   9.592
   46PVPG   C1339994   2.236   6.296   7.759
   46PVPG  H13A39995   2.224   6.393   7.812
   46PVPG  H13B39996   2.246   6.319   7.650
   46PVPG   OC339997   2.122   6.212   7.779
   46PVPG   HO339998   2.122   6.194   7.874
   46PVPG   C1239999   2.368   6.228   7.804
   46PVPG  H12A40000   2.366   6.122   7.772
   46PVPG   OC240001   2.380   6.233   7.945
   46PVPG   HO240002   2.465   6.276   7.958
   46PVPG   C1140003   2.489   6.298   7.739
   46PVPG  H11A40004   2.492   6.274   7.631
   46PVPG  H11B40005   2.583   6.260   7.785
   46PVPG     P40006   2.594   6.539   7.750
   46PVPG   O1340007   2.535   6.675   7.749
   46PVPG   O1440008   2.683   6.502   7.638
   46PVPG   O1240009   2.474   6.439   7.754
   46PVPG   O1140010   2.667   6.511   7.889
   46PVPG    C140011   2.791   6.438   7.889
   46PVPG    HA40012   2.868   6.492   7.831
   46PVPG    HB40013   2.778   6.338   7.841
   46PVPG    C240014   2.849   6.414   8.032
   46PVPG    HS40015   2.927   6.335   8.027
   46PVPG   O2140016   2.751   6.378   8.131
   46PVPG   C2140017   2.677   6.272   8.112
   46PVPG   O2240018   2.666   6.207   8.010
   46PVPG   C2240019   2.616   6.226   8.245
   46PVPG   H2R40020   2.690   6.155   8.287
   46PVPG   H2S40021   2.523   6.170   8.223
   46PVPG    C340022   2.919   6.544   8.081
   46PVPG    HX40023   3.012   6.559   8.023
   46PVPG    HY40024   2.851   6.628   8.055
   46PVPG   O3140025   2.951   6.540   8.222
   46PVPG   C3140026   2.869   6.609   8.302
   46PVPG   O3240027   2.773   6.674   8.267
   46PVPG   C3240028   2.921   6.599   8.445
   46PVPG   H2X40029   3.030   6.620   8.441
   46PVPG   H2Y40030   2.906   6.496   8.482
   46PVPG   C2340031   2.589   6.334   8.353
   46PVPG   H3R40032   2.664   6.417   8.349
   46PVPG   H3S40033   2.602   6.285   8.452
   46PVPG   C2440034   2.447   6.392   8.351
   46PVPG   H4R40035   2.374   6.307   8.352
   46PVPG   H4S40036   2.431   6.451   8.259
   46PVPG   C2540037   2.423   6.479   8.475
   46PVPG   H5R40038   2.480   6.573   8.463
   46PVPG   H5S40039   2.465   6.425   8.563
   46PVPG   C2640040   2.277   6.514   8.508
   46PVPG   H6R40041   2.217   6.421   8.508
   46PVPG   H6S40042   2.237   6.582   8.430
   46PVPG   C2740043   2.267   6.581   8.646
   46PVPG   H7R40044   2.331   6.672   8.648
   46PVPG   H7S40045   2.307   6.511   8.723
   46PVPG   C2840046   2.124   6.620   8.685
   46PVPG   H8R40047   2.060   6.529   8.683
   46PVPG   H8S40048   2.085   6.691   8.609
   46PVPG   C2940049   2.113   6.686   8.824
   46PVPG   H9R40050   2.011   6.730   8.830
   46PVPG   H9S40051   2.185   6.770   8.833
   46PVPG  C21040052   2.134   6.588   8.942
   46PVPG  H10R40053   2.243   6.577   8.961
   46PVPG  H10S40054   2.098   6.488   8.910
   46PVPG  C21140055   2.058   6.629   9.067
   46PVPG  H11140056   1.955   6.663   9.049
   46PVPG  C21240057   2.103   6.628   9.194
   46PVPG  H12140058   2.037   6.661   9.274
   46PVPG  C21340059   2.240   6.584   9.237
   46PVPG  H13R40060   2.314   6.661   9.205
   46PVPG  H13S40061   2.270   6.490   9.185
   46PVPG  C21440062   2.258   6.559   9.389
   46PVPG  H14R40063   2.368   6.555   9.408
   46PVPG  H14S40064   2.217   6.459   9.416
   46PVPG  C21540065   2.200   6.663   9.486
   46PVPG  H15R40066   2.092   6.641   9.501
   46PVPG  H15S40067   2.208   6.766   9.444
   46PVPG  C21640068   2.271   6.660   9.623
   46PVPG  H16R40069   2.309   6.557   9.641
   46PVPG  H16S40070   2.199   6.683   9.705
   46PVPG  C21740071   2.386   6.761   9.630
   46PVPG  H17R40072   2.345   6.862   9.647
   46PVPG  H17S40073   2.435   6.761   9.530
   46PVPG  C21840074   2.495   6.732   9.734
   46PVPG  H18R40075   2.571   6.813   9.735
   46PVPG  H18S40076   2.451   6.723   9.836
   46PVPG  H18T40077   2.548   6.637   9.710
   46PVPG   C3340078   2.855   6.704   8.537
   46PVPG   H3X40079   2.841   6.800   8.484
   46PVPG   H3Y40080   2.925   6.727   8.621
   46PVPG   C3440081   2.725   6.662   8.605
   46PVPG   H4X40082   2.641   6.672   8.532
   46PVPG   H4Y40083   2.705   6.736   8.686
   46PVPG   C3540084   2.722   6.525   8.673
   46PVPG   H5X40085   2.822   6.502   8.717
   46PVPG   H5Y40086   2.699   6.446   8.598
   46PVPG   C3640087   2.617   6.525   8.785
   46PVPG   H6X40088   2.524   6.571   8.745
   46PVPG   H6Y40089   2.652   6.591   8.867
   46PVPG   C3740090   2.583   6.387   8.843
   46PVPG   H7X40091   2.550   6.318   8.762
   46PVPG   H7Y40092   2.496   6.404   8.910
   46PVPG   C3840093   2.698   6.325   8.922
   46PVPG   H8X40094   2.745   6.406   8.983
   46PVPG   H8Y40095   2.776   6.288   8.852
   46PVPG   C3940096   2.656   6.212   9.019
   46PVPG   H9X40097   2.745   6.183   9.079
   46PVPG   H9Y40098   2.625   6.123   8.960
   46PVPG  C31040099   2.542   6.251   9.114
   46PVPG  H10X40100   2.447   6.255   9.057
   46PVPG  H10Y40101   2.561   6.353   9.153
   46PVPG  C31140102   2.522   6.152   9.231
   46PVPG  H11X40103   2.568   6.055   9.202
   46PVPG  H11Y40104   2.413   6.135   9.245
   46PVPG  C31240105   2.579   6.199   9.366
   46PVPG  H12X40106   2.686   6.226   9.354
   46PVPG  H12Y40107   2.573   6.116   9.439
   46PVPG  C31340108   2.501   6.319   9.422
   46PVPG  H13X40109   2.393   6.293   9.429
   46PVPG  H13Y40110   2.510   6.402   9.348
   46PVPG  C31440111   2.549   6.374   9.557
   46PVPG  H14X40112   2.516   6.480   9.563
   46PVPG  H14Y40113   2.659   6.373   9.566
   46PVPG  C31540114   2.487   6.304   9.678
   46PVPG  H15X40115   2.531   6.202   9.689
   46PVPG  H15Y40116   2.378   6.292   9.657
   46PVPG  C31640117   2.501   6.382   9.809
   46PVPG  H16X40118   2.435   6.471   9.809
   46PVPG  H16Y40119   2.471   6.319   9.895
   46PVPG  H16Z40120   2.606   6.416   9.825
   47PVPG   C1340121   5.086   7.172   7.976
   47PVPG  H13A40122   5.074   7.236   8.066
   47PVPG  H13B40123   5.045   7.071   8.000
   47PVPG   OC340124   5.224   7.159   7.941
   47PVPG   HO340125   5.226   7.186   7.849
   47PVPG   C1240126   5.000   7.231   7.859
   47PVPG  H12A40127   4.892   7.218   7.883
   47PVPG   OC240128   5.029   7.166   7.736
   47PVPG   HO240129   5.002   7.235   7.675
   47PVPG   C1140130   5.026   7.382   7.834
   47PVPG  H11A40131   5.135   7.399   7.826
   47PVPG  H11B40132   4.988   7.438   7.923
   47PVPG     P40133   4.981   7.568   7.654
   47PVPG   O1340134   4.878   7.596   7.552
   47PVPG   O1440135   5.121   7.579   7.607
   47PVPG   O1240136   4.957   7.423   7.715
   47PVPG   O1140137   4.957   7.667   7.774
   47PVPG    C140138   4.827   7.668   7.835
   47PVPG    HA40139   4.780   7.568   7.837
   47PVPG    HB40140   4.759   7.737   7.780
   47PVPG    C240141   4.832   7.715   7.983
   47PVPG    HS40142   4.856   7.823   7.985
   47PVPG   O2140143   4.928   7.634   8.054
   47PVPG   C2140144   5.036   7.696   8.098
   47PVPG   O2240145   5.070   7.810   8.070
   47PVPG   C2240146   5.109   7.602   8.194
   47PVPG   H2R40147   5.166   7.529   8.133
   47PVPG   H2S40148   5.032   7.546   8.251
   47PVPG    C340149   4.693   7.696   8.050
   47PVPG    HX40150   4.619   7.752   7.990
   47PVPG    HY40151   4.665   7.589   8.048
   47PVPG   O3140152   4.692   7.750   8.184
   47PVPG   C3140153   4.731   7.669   8.282
   47PVPG   O3240154   4.756   7.550   8.270
   47PVPG   C3240155   4.735   7.749   8.411
   47PVPG   H2X40156   4.648   7.719   8.473
   47PVPG   H2Y40157   4.718   7.856   8.384
   47PVPG   C2340158   5.203   7.676   8.291
   47PVPG   H3R40159   5.147   7.755   8.346
   47PVPG   H3S40160   5.283   7.727   8.233
   47PVPG   C2440161   5.270   7.585   8.395
   47PVPG   H4R40162   5.344   7.645   8.451
   47PVPG   H4S40163   5.326   7.504   8.343
   47PVPG   C2540164   5.172   7.523   8.496
   47PVPG   H5R40165   5.096   7.462   8.443
   47PVPG   H5S40166   5.119   7.605   8.548
   47PVPG   C2640167   5.237   7.434   8.604
   47PVPG   H6R40168   5.285   7.346   8.557
   47PVPG   H6S40169   5.156   7.395   8.670
   47PVPG   C2740170   5.339   7.507   8.692
   47PVPG   H7R40171   5.290   7.593   8.742
   47PVPG   H7S40172   5.423   7.547   8.631
   47PVPG   C2840173   5.398   7.413   8.799
   47PVPG   H8R40174   5.467   7.341   8.751
   47PVPG   H8S40175   5.315   7.355   8.845
   47PVPG   C2940176   5.472   7.488   8.911
   47PVPG   H9R40177   5.398   7.547   8.969
   47PVPG   H9S40178   5.543   7.561   8.865
   47PVPG  C21040179   5.552   7.396   9.006
   47PVPG  H10R40180   5.594   7.459   9.087
   47PVPG  H10S40181   5.638   7.354   8.950
   47PVPG  C21140182   5.469   7.284   9.062
   47PVPG  H11140183   5.488   7.185   9.019
   47PVPG  C21240184   5.377   7.295   9.159
   47PVPG  H12140185   5.322   7.205   9.191
   47PVPG  C21340186   5.337   7.421   9.232
   47PVPG  H13R40187   5.242   7.461   9.191
   47PVPG  H13S40188   5.414   7.501   9.220
   47PVPG  C21440189   5.318   7.395   9.383
   47PVPG  H14R40190   5.309   7.493   9.435
   47PVPG  H14S40191   5.407   7.344   9.426
   47PVPG  C21540192   5.191   7.315   9.412
   47PVPG  H15R40193   5.194   7.215   9.363
   47PVPG  H15S40194   5.106   7.371   9.367
   47PVPG  C21640195   5.162   7.297   9.561
   47PVPG  H16R40196   5.157   7.397   9.608
   47PVPG  H16S40197   5.243   7.239   9.610
   47PVPG  C21740198   5.028   7.226   9.583
   47PVPG  H17R40199   5.034   7.121   9.546
   47PVPG  H17S40200   4.953   7.277   9.520
   47PVPG  C21840201   4.981   7.227   9.728
   47PVPG  H18R40202   4.981   7.329   9.771
   47PVPG  H18S40203   4.877   7.188   9.738
   47PVPG  H18T40204   5.048   7.163   9.790
   47PVPG   C3340205   4.866   7.737   8.494
   47PVPG   H3X40206   4.907   7.839   8.508
   47PVPG   H3Y40207   4.943   7.678   8.440
   47PVPG   C3440208   4.843   7.677   8.634
   47PVPG   H4X40209   4.847   7.566   8.626
   47PVPG   H4Y40210   4.741   7.703   8.668
   47PVPG   C3540211   4.940   7.727   8.742
   47PVPG   H5X40212   4.919   7.834   8.763
   47PVPG   H5Y40213   5.046   7.722   8.707
   47PVPG   C3640214   4.928   7.650   8.874
   47PVPG   H6X40215   4.820   7.633   8.897
   47PVPG   H6Y40216   4.970   7.711   8.957
   47PVPG   C3740217   5.004   7.517   8.870
   47PVPG   H7X40218   5.112   7.540   8.863
   47PVPG   H7Y40219   4.975   7.460   8.780
   47PVPG   C3840220   4.983   7.428   8.993
   47PVPG   H8X40221   4.999   7.487   9.086
   47PVPG   H8Y40222   5.059   7.347   8.992
   47PVPG   C3940223   4.843   7.363   8.996
   47PVPG   H9X40224   4.822   7.321   8.895
   47PVPG   H9Y40225   4.768   7.442   9.016
   47PVPG  C31040226   4.829   7.249   9.099
   47PVPG  H10X40227   4.906   7.172   9.077
   47PVPG  H10Y40228   4.729   7.202   9.088
   47PVPG  C31140229   4.846   7.296   9.244
   47PVPG  H11X40230   4.941   7.353   9.252
   47PVPG  H11Y40231   4.855   7.207   9.310
   47PVPG  C31240232   4.731   7.383   9.295
   47PVPG  H12X40233   4.637   7.324   9.288
   47PVPG  H12Y40234   4.719   7.473   9.230
   47PVPG  C31340235   4.749   7.429   9.440
   47PVPG  H13X40236   4.767   7.341   9.506
   47PVPG  H13Y40237   4.653   7.472   9.475
   47PVPG  C31440238   4.854   7.539   9.461
   47PVPG  H14X40239   4.818   7.630   9.409
   47PVPG  H14Y40240   4.951   7.510   9.414
   47PVPG  C31540241   4.880   7.573   9.609
   47PVPG  H15X40242   4.931   7.672   9.614
   47PVPG  H15Y40243   4.950   7.499   9.651
   47PVPG  C31640244   4.754   7.577   9.695
   47PVPG  H16X40245   4.674   7.634   9.643
   47PVPG  H16Y40246   4.715   7.474   9.714
   47PVPG  H16Z40247   4.773   7.625   9.793
   48PVPG   C1340248   0.567   3.252   7.547
   48PVPG  H13A40249   0.612   3.281   7.450
   48PVPG  H13B40250   0.511   3.157   7.532
   48PVPG   OC340251   0.476   3.354   7.589
   48PVPG   HO340252   0.422   3.311   7.656
   48PVPG   C1240253   0.677   3.228   7.654
   48PVPG  H12A40254   0.740   3.319   7.663
   48PVPG   OC240255   0.760   3.120   7.612
   48PVPG   HO240256   0.717   3.046   7.655
   48PVPG   C1140257   0.620   3.192   7.793
   48PVPG  H11A40258   0.563   3.279   7.833
   48PVPG  H11B40259   0.704   3.176   7.863
   48PVPG     P40260   0.385   3.072   7.799
   48PVPG   O1340261   0.340   2.941   7.746
   48PVPG   O1440262   0.332   3.193   7.731
   48PVPG   O1240263   0.543   3.073   7.784
   48PVPG   O1140264   0.364   3.083   7.955
   48PVPG    C140265   0.447   3.009   8.045
   48PVPG    HA40266   0.443   3.056   8.146
   48PVPG    HB40267   0.555   3.013   8.016
   48PVPG    C240268   0.402   2.862   8.059
   48PVPG    HS40269   0.353   2.830   7.964
   48PVPG   O2140270   0.313   2.854   8.171
   48PVPG   C2140271   0.183   2.850   8.147
   48PVPG   O2240272   0.132   2.823   8.040
   48PVPG   C2240273   0.108   2.872   8.279
   48PVPG   H2R40274   0.044   2.783   8.296
   48PVPG   H2S40275   0.043   2.961   8.265
   48PVPG    C340276   0.523   2.767   8.080
   48PVPG    HX40277   0.491   2.662   8.066
   48PVPG    HY40278   0.595   2.788   7.999
   48PVPG   O3140279   0.588   2.790   8.207
   48PVPG   C3140280   0.544   2.711   8.306
   48PVPG   O3240281   0.465   2.619   8.292
   48PVPG   C3240282   0.618   2.743   8.435
   48PVPG   H2X40283   0.703   2.810   8.410
   48PVPG   H2Y40284   0.657   2.648   8.475
   48PVPG   C2340285   0.204   2.893   8.398
   48PVPG   H3R40286   0.273   2.977   8.373
   48PVPG   H3S40287   0.266   2.802   8.414
   48PVPG   C2440288   0.136   2.930   8.530
   48PVPG   H4R40289   0.107   2.838   8.585
   48PVPG   H4S40290   0.044   2.989   8.509
   48PVPG   C2540291   0.229   3.015   8.617
   48PVPG   H5R40292   0.259   3.104   8.558
   48PVPG   H5S40293   0.322   2.958   8.640
   48PVPG   C2640294   0.166   3.063   8.747
   48PVPG   H6R40295   0.057   3.083   8.733
   48PVPG   H6S40296   0.215   3.158   8.774
   48PVPG   C2740297   0.187   2.968   8.865
   48PVPG   H7R40298   0.294   2.942   8.872
   48PVPG   H7S40299   0.131   2.874   8.846
   48PVPG   C2840300   0.142   3.035   8.996
   48PVPG   H8R40301   0.031   3.036   9.001
   48PVPG   H8S40302   0.176   3.141   8.995
   48PVPG   C2940303   0.199   2.972   9.124
   48PVPG   H9R40304   0.147   3.014   9.212
   48PVPG   H9S40305   0.307   2.999   9.133
   48PVPG  C21040306   0.190   2.819   9.128
   48PVPG  H10R40307   0.226   2.784   9.227
   48PVPG  H10S40308   0.259   2.779   9.050
   48PVPG  C21140309   0.051   2.772   9.098
   48PVPG  H11140310   0.023   2.784   8.992
   48PVPG  C21240311   8.111   2.706   9.177
   48PVPG  H12140312   8.011   2.681   9.140
   48PVPG  C21340313   8.142   2.662   9.316
   48PVPG  H13R40314   0.098   2.614   9.318
   48PVPG  H13S40315   8.068   2.583   9.339
   48PVPG  C21440316   8.140   2.760   9.436
   48PVPG  H14R40317   8.044   2.815   9.435
   48PVPG  H14S40318   0.079   2.833   9.427
   48PVPG  C21540319   0.007   2.678   9.566
   48PVPG  H15R40320   0.006   2.572   9.534
   48PVPG  H15S40321   8.062   2.696   9.631
   48PVPG  C21640322   0.137   2.689   9.645
   48PVPG  H16R40323   0.129   2.780   9.708
   48PVPG  H16S40324   0.218   2.700   9.570
   48PVPG  C21740325   0.177   2.572   9.736
   48PVPG  H17R40326   0.288   2.566   9.731
   48PVPG  H17S40327   0.138   2.476   9.697
   48PVPG  C21840328   0.139   2.591   9.883
   48PVPG  H18R40329   0.030   2.581   9.899
   48PVPG  H18S40330   0.190   2.514   9.946
   48PVPG  H18T40331   0.172   2.691   9.918
   48PVPG   C3340332   0.530   2.809   8.542
   48PVPG   H3X40333   0.441   2.747   8.564
   48PVPG   H3Y40334   0.494   2.908   8.505
   48PVPG   C3440335   0.607   2.832   8.673
   48PVPG   H4X40336   0.631   2.736   8.723
   48PVPG   H4Y40337   0.537   2.887   8.741
   48PVPG   C3540338   0.738   2.911   8.655
   48PVPG   H5X40339   0.718   3.000   8.591
   48PVPG   H5Y40340   0.812   2.848   8.602
   48PVPG   C3640341   0.801   2.958   8.787
   48PVPG   H6X40342   0.886   3.027   8.764
   48PVPG   H6Y40343   0.843   2.870   8.841
   48PVPG   C3740344   0.704   3.030   8.882
   48PVPG   H7X40345   0.760   3.068   8.970
   48PVPG   H7Y40346   0.631   2.955   8.921
   48PVPG   C3840347   0.626   3.145   8.817
   48PVPG   H8X40348   0.591   3.118   8.715
   48PVPG   H8Y40349   0.693   3.233   8.808
   48PVPG   C3940350   0.501   3.184   8.897
   48PVPG   H9X40351   0.425   3.103   8.890
   48PVPG   H9Y40352   0.458   3.276   8.853
   48PVPG  C31040353   0.532   3.207   9.045
   48PVPG  H10X40354   0.627   3.265   9.051
   48PVPG  H10Y40355   0.549   3.111   9.099
   48PVPG  C31140356   0.423   3.286   9.115
   48PVPG  H11X40357   0.343   3.220   9.155
   48PVPG  H11Y40358   0.375   3.354   9.041
   48PVPG  C31240359   0.481   3.375   9.225
   48PVPG  H12X40360   0.409   3.459   9.238
   48PVPG  H12Y40361   0.577   3.420   9.192
   48PVPG  C31340362   0.502   3.307   9.362
   48PVPG  H13X40363   0.551   3.382   9.427
   48PVPG  H13Y40364   0.572   3.221   9.352
   48PVPG  C31440365   0.373   3.261   9.430
   48PVPG  H14X40366   0.360   3.152   9.411
   48PVPG  H14Y40367   0.285   3.311   9.384
   48PVPG  C31540368   0.368   3.290   9.582
   48PVPG  H15X40369   0.274   3.247   9.625
   48PVPG  H15Y40370   0.357   3.399   9.600
   48PVPG  C31640371   0.489   3.243   9.664
   48PVPG  H16X40372   0.519   3.140   9.636
   48PVPG  H16Y40373   0.576   3.311   9.647
   48PVPG  H16Z40374   0.465   3.245   9.772
   49PVPG   C1340375   7.023   1.425   7.604
   49PVPG  H13A40376   7.128   1.459   7.605
   49PVPG  H13B40377   7.022   1.317   7.630
   49PVPG   OC340378   6.972   1.445   7.471
   49PVPG   HO340379   7.046   1.417   7.416
   49PVPG   C1240380   6.951   1.505   7.717
   49PVPG  H12A40381   7.016   1.500   7.807
   49PVPG   OC240382   6.825   1.446   7.750
   49PVPG   HO240383   6.810   1.474   7.841
   49PVPG   C1140384   6.929   1.653   7.676
   49PVPG  H11A40385   6.843   1.654   7.606
   49PVPG  H11B40386   7.017   1.687   7.617
   49PVPG     P40387   7.019   1.797   7.875
   49PVPG   O1340388   6.972   1.922   7.936
   49PVPG   O1440389   7.140   1.807   7.791
   49PVPG   O1240390   6.900   1.741   7.785
   49PVPG   O1140391   7.039   1.683   7.983
   49PVPG    C140392   6.938   1.641   8.076
   49PVPG    HA40393   6.921   1.532   8.063
   49PVPG    HB40394   6.841   1.691   8.062
   49PVPG    C240395   6.983   1.660   8.225
   49PVPG    HS40396   6.929   1.584   8.286
   49PVPG   O2140397   6.952   1.794   8.265
   49PVPG   C2140398   6.852   1.806   8.351
   49PVPG   O2240399   6.780   1.717   8.392
   49PVPG   C2240400   6.842   1.952   8.393
   49PVPG   H2R40401   6.765   1.959   8.474
   49PVPG   H2S40402   6.807   2.009   8.305
   49PVPG    C340403   7.135   1.633   8.245
   49PVPG    HX40404   7.150   1.524   8.233
   49PVPG    HY40405   7.189   1.684   8.162
   49PVPG   O3140406   7.193   1.681   8.369
   49PVPG   C3140407   7.162   1.606   8.475
   49PVPG   O3240408   7.078   1.518   8.475
   49PVPG   C3240409   7.255   1.639   8.591
   49PVPG   H2X40410   7.228   1.740   8.630
   49PVPG   H2Y40411   7.359   1.644   8.552
   49PVPG   C2340412   6.977   2.009   8.440
   49PVPG   H3R40413   6.969   2.119   8.442
   49PVPG   H3S40414   7.059   1.984   8.370
   49PVPG   C2440415   7.012   1.963   8.582
   49PVPG   H4R40416   7.026   1.852   8.585
   49PVPG   H4S40417   6.927   1.987   8.648
   49PVPG   C2540418   7.138   2.033   8.635
   49PVPG   H5R40419   7.140   2.136   8.594
   49PVPG   H5S40420   7.229   1.980   8.599
   49PVPG   C2640421   7.137   2.044   8.787
   49PVPG   H6R40422   7.048   2.102   8.818
   49PVPG   H6S40423   7.227   2.102   8.818
   49PVPG   C2740424   7.135   1.910   8.861
   49PVPG   H7R40425   7.230   1.856   8.841
   49PVPG   H7S40426   7.052   1.846   8.824
   49PVPG   C2840427   7.117   1.927   9.013
   49PVPG   H8R40428   7.016   1.969   9.033
   49PVPG   H8S40429   7.190   2.004   9.049
   49PVPG   C2940430   7.138   1.796   9.090
   49PVPG   H9R40431   7.235   1.751   9.058
   49PVPG   H9S40432   7.057   1.726   9.061
   49PVPG  C21040433   7.140   1.805   9.244
   49PVPG  H10R40434   7.151   1.702   9.285
   49PVPG  H10S40435   7.042   1.842   9.281
   49PVPG  C21140436   7.250   1.893   9.297
   49PVPG  H11140437   7.248   1.994   9.254
   49PVPG  C21240438   7.343   1.866   9.391
   49PVPG  H12140439   7.414   1.945   9.418
   49PVPG  C21340440   7.364   1.741   9.469
   49PVPG  H13R40441   7.471   1.715   9.461
   49PVPG  H13S40442   7.308   1.658   9.422
   49PVPG  C21440443   7.329   1.745   9.620
   49PVPG  H14R40444   7.318   1.640   9.653
   49PVPG  H14S40445   7.232   1.798   9.635
   49PVPG  C21540446   7.433   1.810   9.712
   49PVPG  H15R40447   7.447   1.914   9.679
   49PVPG  H15S40448   7.530   1.756   9.704
   49PVPG  C21640449   7.390   1.813   9.860
   49PVPG  H16R40450   7.289   1.858   9.871
   49PVPG  H16S40451   7.462   1.880   9.913
   49PVPG  C21740452   7.392   1.677   9.933
   49PVPG  H17R40453   7.421   1.696  10.038
   49PVPG  H17S40454   7.471   1.612   9.889
   49PVPG  C21840455   7.258   1.602   9.935
   49PVPG  H18R40456   7.266   1.511   9.997
   49PVPG  H18S40457   7.179   1.667   9.978
   49PVPG  H18T40458   7.227   1.572   9.833
   49PVPG   C3340459   7.247   1.534   8.704
   49PVPG   H3X40460   7.267   1.433   8.662
   49PVPG   H3Y40461   7.145   1.533   8.748
   49PVPG   C3440462   7.349   1.559   8.816
   49PVPG   H4X40463   7.332   1.660   8.858
   49PVPG   H4Y40464   7.451   1.558   8.771
   49PVPG   C3540465   7.346   1.457   8.931
   49PVPG   H5X40466   7.431   1.480   8.998
   49PVPG   H5Y40467   7.361   1.354   8.893
   49PVPG   C3640468   7.218   1.462   9.015
   49PVPG   H6X40469   7.148   1.381   8.986
   49PVPG   H6Y40470   7.164   1.557   8.994
   49PVPG   C3740471   7.243   1.450   9.166
   49PVPG   H7X40472   7.301   1.538   9.202
   49PVPG   H7Y40473   7.304   1.359   9.185
   49PVPG   C3840474   7.112   1.439   9.246
   49PVPG   H8X40475   7.052   1.354   9.207
   49PVPG   H8Y40476   7.050   1.530   9.231
   49PVPG   C3940477   7.138   1.416   9.395
   49PVPG   H9X40478   7.204   1.495   9.437
   49PVPG   H9Y40479   7.194   1.321   9.406
   49PVPG  C31040480   7.010   1.408   9.479
   49PVPG  H10X40481   7.036   1.363   9.577
   49PVPG  H10Y40482   6.939   1.340   9.427
   49PVPG  C31140483   6.942   1.542   9.508
   49PVPG  H11X40484   6.851   1.521   9.568
   49PVPG  H11Y40485   6.910   1.592   9.414
   49PVPG  C31240486   7.032   1.636   9.589
   49PVPG  H12X40487   7.079   1.709   9.519
   49PVPG  H12Y40488   7.113   1.574   9.634
   49PVPG  C31340489   6.965   1.710   9.705
   49PVPG  H13X40490   7.041   1.770   9.759
   49PVPG  H13Y40491   6.926   1.636   9.778
   49PVPG  C31440492   6.852   1.803   9.660
   49PVPG  H14X40493   6.787   1.750   9.586
   49PVPG  H14Y40494   6.899   1.889   9.609
   49PVPG  C31540495   6.762   1.853   9.775
   49PVPG  H15X40496   6.706   1.767   9.817
   49PVPG  H15Y40497   6.687   1.922   9.732
   49PVPG  C31640498   6.837   1.923   9.889
   49PVPG  H16X40499   6.905   1.852   9.941
   49PVPG  H16Y40500   6.898   2.007   9.850
   49PVPG  H16Z40501   6.765   1.963   9.963
   50PVPG   C1340502   1.442   1.425   7.959
   50PVPG  H13A40503   1.355   1.424   8.028
   50PVPG  H13B40504   1.522   1.361   8.003
   50PVPG   OC340505   1.492   1.559   7.944
   50PVPG   HO340506   1.544   1.579   8.022
   50PVPG   C1240507   1.400   1.365   7.822
   50PVPG  H12A40508   1.469   1.402   7.744
   50PVPG   OC240509   1.266   1.398   7.788
   50PVPG   HO240510   1.245   1.320   7.737
   50PVPG   C1140511   1.402   1.210   7.820
   50PVPG  H11A40512   1.344   1.173   7.907
   50PVPG  H11B40513   1.507   1.176   7.833
   50PVPG     P40514   1.356   1.004   7.667
   50PVPG   O1340515   1.461   0.987   7.564
   50PVPG   O1440516   1.221   0.958   7.627
   50PVPG   O1240517   1.347   1.160   7.697
   50PVPG   O1140518   1.401   0.944   7.806
   50PVPG    C140519   1.343   0.828   7.867
   50PVPG    HA40520   1.419   0.746   7.869
   50PVPG    HB40521   1.256   0.790   7.810
   50PVPG    C240522   1.295   0.848   8.014
   50PVPG    HS40523   1.235   0.758   8.038
   50PVPG   O2140524   1.219   0.970   8.024
   50PVPG   C2140525   1.126   0.968   8.120
   50PVPG   O2240526   1.086   0.867   8.175
   50PVPG   C2240527   1.065   1.107   8.138
   50PVPG   H2R40528   0.958   1.091   8.160
   50PVPG   H2S40529   1.074   1.164   8.043
   50PVPG    C340530   1.414   0.850   8.116
   50PVPG    HX40531   1.479   0.762   8.098
   50PVPG    HY40532   1.475   0.940   8.093
   50PVPG   O3140533   1.367   0.859   8.253
   50PVPG   C3140534   1.360   0.744   8.321
   50PVPG   O3240535   1.400   0.637   8.280
   50PVPG   C3240536   1.285   0.766   8.453
   50PVPG   H2X40537   1.253   0.665   8.487
   50PVPG   H2Y40538   1.194   0.825   8.430
   50PVPG   C2340539   1.129   1.185   8.255
   50PVPG   H3R40540   1.138   1.120   8.345
   50PVPG   H3S40541   1.059   1.267   8.283
   50PVPG   C2440542   1.263   1.250   8.219
   50PVPG   H4R40543   1.257   1.358   8.242
   50PVPG   H4S40544   1.280   1.238   8.109
   50PVPG   C2540545   1.385   1.196   8.294
   50PVPG   H5R40546   1.475   1.251   8.259
   50PVPG   H5S40547   1.401   1.089   8.271
   50PVPG   C2640548   1.374   1.214   8.446
   50PVPG   H6R40549   1.305   1.138   8.488
   50PVPG   H6S40550   1.331   1.314   8.469
   50PVPG   C2740551   1.510   1.204   8.515
   50PVPG   H7R40552   1.576   1.285   8.479
   50PVPG   H7S40553   1.559   1.107   8.488
   50PVPG   C2840554   1.498   1.212   8.667
   50PVPG   H8R40555   1.443   1.122   8.703
   50PVPG   H8S40556   1.439   1.301   8.697
   50PVPG   C2940557   1.635   1.219   8.734
   50PVPG   H9R40558   1.683   1.316   8.708
   50PVPG   H9S40559   1.700   1.139   8.691
   50PVPG  C21040560   1.631   1.206   8.888
   50PVPG  H10R40561   1.571   1.290   8.928
   50PVPG  H10S40562   1.734   1.219   8.926
   50PVPG  C21140563   1.578   1.073   8.935
   50PVPG  H11140564   1.583   0.991   8.861
   50PVPG  C21240565   1.529   1.048   9.057
   50PVPG  H12140566   1.496   0.946   9.081
   50PVPG  C21340567   1.518   1.147   9.171
   50PVPG  H13R40568   1.427   1.126   9.231
   50PVPG  H13S40569   1.506   1.251   9.134
   50PVPG  C21440570   1.639   1.145   9.267
   50PVPG  H14R40571   1.615   1.211   9.353
   50PVPG  H14S40572   1.727   1.188   9.216
   50PVPG  C21540573   1.678   1.006   9.322
   50PVPG  H15R40574   1.753   1.021   9.403
   50PVPG  H15S40575   1.727   0.948   9.242
   50PVPG  C21640576   1.561   0.923   9.378
   50PVPG  H16R40577   1.499   0.887   9.293
   50PVPG  H16S40578   1.496   0.987   9.442
   50PVPG  C21740579   1.608   0.801   9.459
   50PVPG  H17R40580   1.707   0.769   9.420
   50PVPG  H17S40581   1.537   0.718   9.442
   50PVPG  C21840582   1.618   0.827   9.609
   50PVPG  H18R40583   1.672   0.922   9.630
   50PVPG  H18S40584   1.516   0.834   9.654
   50PVPG  H18T40585   1.672   0.744   9.661
   50PVPG   C3340586   1.367   0.832   8.566
   50PVPG   H3X40587   1.395   0.936   8.538
   50PVPG   H3Y40588   1.461   0.776   8.581
   50PVPG   C3440589   1.291   0.833   8.700
   50PVPG   H4X40590   1.363   0.859   8.781
   50PVPG   H4Y40591   1.252   0.731   8.721
   50PVPG   C3540592   1.173   0.931   8.707
   50PVPG   H5X40593   1.104   0.911   8.622
   50PVPG   H5Y40594   1.211   1.035   8.697
   50PVPG   C3640595   1.092   0.919   8.838
   50PVPG   H6X40596   1.055   0.815   8.850
   50PVPG   H6Y40597   1.004   0.987   8.830
   50PVPG   C3740598   1.172   0.960   8.963
   50PVPG   H7X40599   1.213   1.061   8.947
   50PVPG   H7Y40600   1.258   0.891   8.977
   50PVPG   C3840601   1.089   0.960   9.093
   50PVPG   H8X40602   1.068   0.856   9.124
   50PVPG   H8Y40603   0.992   1.012   9.076
   50PVPG   C3940604   1.166   1.033   9.204
   50PVPG   H9X40605   1.175   1.141   9.178
   50PVPG   H9Y40606   1.268   0.990   9.209
   50PVPG  C31040607   1.105   1.020   9.344
   50PVPG  H10X40608   1.116   0.914   9.374
   50PVPG  H10Y40609   0.996   1.045   9.344
   50PVPG  C31140610   1.178   1.107   9.447
   50PVPG  H11X40611   1.146   1.213   9.438
   50PVPG  H11Y40612   1.287   1.103   9.422
   50PVPG  C31240613   1.161   1.059   9.592
   50PVPG  H12X40614   1.190   0.952   9.597
   50PVPG  H12Y40615   1.054   1.065   9.621
   50PVPG  C31340616   1.247   1.136   9.694
   50PVPG  H13X40617   1.228   1.093   9.794
   50PVPG  H13Y40618   1.215   1.243   9.698
   50PVPG  C31440619   1.397   1.129   9.662
   50PVPG  H14X40620   1.419   1.194   9.575
   50PVPG  H14Y40621   1.420   1.024   9.633
   50PVPG  C31540622   1.491   1.166   9.777
   50PVPG  H15X40623   1.465   1.267   9.815
   50PVPG  H15Y40624   1.594   1.172   9.737
   50PVPG  C31640625   1.492   1.065   9.893
   50PVPG  H16X40626   1.516   0.963   9.856
   50PVPG  H16Y40627   1.567   1.093   9.969
   50PVPG  H16Z40628   1.392   1.061   9.943
   51PVPG   C1340629   7.279   6.780   7.574
   51PVPG  H13A40630   7.374   6.793   7.519
   51PVPG  H13B40631   7.253   6.672   7.573
   51PVPG   OC340632   7.177   6.857   7.511
   51PVPG   HO340633   7.199   6.945   7.541
   51PVPG   C1240634   7.302   6.823   7.721
   51PVPG  H12A40635   7.210   6.801   7.780
   51PVPG   OC240636   7.328   6.964   7.727
   51PVPG   HO240637   7.360   6.983   7.815
   51PVPG   C1140638   7.421   6.748   7.782
   51PVPG  H11A40639   7.433   6.774   7.889
   51PVPG  H11B40640   7.511   6.782   7.727
   51PVPG     P40641   7.394   6.496   7.868
   51PVPG   O1340642   7.495   6.395   7.831
   51PVPG   O1440643   7.254   6.450   7.866
   51PVPG   O1240644   7.407   6.608   7.759
   51PVPG   O1140645   7.435   6.565   8.003
   51PVPG    C140646   7.359   6.553   8.124
   51PVPG    HA40647   7.425   6.512   8.204
   51PVPG    HB40648   7.274   6.482   8.115
   51PVPG    C240649   7.308   6.692   8.169
   51PVPG    HS40650   7.342   6.764   8.091
   51PVPG   O2140651   7.371   6.725   8.294
   51PVPG   C2140652   7.357   6.852   8.330
   51PVPG   O2240653   7.306   6.939   8.261
   51PVPG   C2240654   7.419   6.873   8.468
   51PVPG   H2R40655   7.421   6.982   8.490
   51PVPG   H2S40656   7.524   6.837   8.462
   51PVPG    C340657   7.152   6.701   8.175
   51PVPG    HX40658   7.127   6.807   8.152
   51PVPG    HY40659   7.109   6.641   8.092
   51PVPG   O3140660   7.094   6.670   8.304
   51PVPG   C3140661   7.048   6.547   8.319
   51PVPG   O3240662   7.066   6.454   8.243
   51PVPG   C3240663   6.952   6.543   8.438
   51PVPG   H2X40664   6.907   6.441   8.441
   51PVPG   H2Y40665   6.871   6.617   8.415
   51PVPG   C2340666   7.344   6.795   8.578
   51PVPG   H3R40667   7.311   6.698   8.537
   51PVPG   H3S40668   7.253   6.850   8.611
   51PVPG   C2440669   7.432   6.763   8.700
   51PVPG   H4R40670   7.531   6.727   8.663
   51PVPG   H4S40671   7.388   6.680   8.758
   51PVPG   C2540672   7.453   6.882   8.794
   51PVPG   H5R40673   7.360   6.905   8.850
   51PVPG   H5S40674   7.478   6.971   8.733
   51PVPG   C2640675   7.570   6.860   8.892
   51PVPG   H6R40676   7.597   6.958   8.936
   51PVPG   H6S40677   7.657   6.825   8.833
   51PVPG   C2740678   7.548   6.762   9.008
   51PVPG   H7R40679   7.487   6.674   8.977
   51PVPG   H7S40680   7.493   6.814   9.089
   51PVPG   C2840681   7.685   6.714   9.060
   51PVPG   H8R40682   7.749   6.804   9.064
   51PVPG   H8S40683   7.726   6.643   8.985
   51PVPG   C2940684   7.692   6.647   9.198
   51PVPG   H9R40685   7.654   6.543   9.189
   51PVPG   H9S40686   7.620   6.701   9.264
   51PVPG  C21040687   7.833   6.645   9.266
   51PVPG  H10R40688   7.903   6.595   9.197
   51PVPG  H10S40689   7.826   6.579   9.355
   51PVPG  C21140690   7.887   6.781   9.307
   51PVPG  H11140691   7.900   6.847   9.220
   51PVPG  C21240692   7.920   6.834   9.428
   51PVPG  H12140693   7.950   6.940   9.428
   51PVPG  C21340694   7.914   6.778   9.570
   51PVPG  H13R40695   8.015   6.777   9.617
   51PVPG  H13S40696   7.880   6.673   9.568
   51PVPG  C21440697   7.820   6.857   9.665
   51PVPG  H14R40698   7.788   6.791   9.748
   51PVPG  H14S40699   7.730   6.885   9.607
   51PVPG  C21540700   7.868   6.989   9.726
   51PVPG  H15R40701   7.916   7.051   9.647
   51PVPG  H15S40702   7.943   6.966   9.804
   51PVPG  C21640703   7.756   7.076   9.788
   51PVPG  H16R40704   7.803   7.153   9.852
   51PVPG  H16S40705   7.692   7.013   9.853
   51PVPG  C21740706   7.669   7.149   9.684
   51PVPG  H17R40707   7.605   7.074   9.632
   51PVPG  H17S40708   7.735   7.195   9.607
   51PVPG  C21840709   7.578   7.258   9.741
   51PVPG  H18R40710   7.519   7.306   9.660
   51PVPG  H18S40711   7.506   7.215   9.814
   51PVPG  H18T40712   7.637   7.337   9.792
   51PVPG   C3340713   7.012   6.577   8.575
   51PVPG   H3X40714   6.929   6.570   8.649
   51PVPG   H3Y40715   7.049   6.682   8.579
   51PVPG   C3440716   7.123   6.481   8.619
   51PVPG   H4X40717   7.221   6.518   8.582
   51PVPG   H4Y40718   7.107   6.381   8.572
   51PVPG   C3540719   7.131   6.462   8.771
   51PVPG   H5X40720   7.228   6.414   8.796
   51PVPG   H5Y40721   7.050   6.394   8.806
   51PVPG   C3640722   7.118   6.594   8.848
   51PVPG   H6X40723   7.012   6.628   8.850
   51PVPG   H6Y40724   7.176   6.673   8.794
   51PVPG   C3740725   7.171   6.586   8.991
   51PVPG   H7X40726   7.275   6.547   8.991
   51PVPG   H7Y40727   7.109   6.516   9.051
   51PVPG   C3840728   7.170   6.725   9.055
   51PVPG   H8X40729   7.066   6.764   9.058
   51PVPG   H8Y40730   7.229   6.793   8.991
   51PVPG   C3940731   7.229   6.728   9.195
   51PVPG   H9X40732   7.252   6.834   9.219
   51PVPG   H9Y40733   7.326   6.673   9.196
   51PVPG  C31040734   7.139   6.674   9.307
   51PVPG  H10X40735   7.119   6.566   9.294
   51PVPG  H10Y40736   7.042   6.729   9.307
   51PVPG  C31140737   7.212   6.700   9.439
   51PVPG  H11X40738   7.241   6.807   9.440
   51PVPG  H11Y40739   7.304   6.637   9.433
   51PVPG  C31240740   7.143   6.672   9.573
   51PVPG  H12X40741   7.054   6.610   9.552
   51PVPG  H12Y40742   7.107   6.768   9.617
   51PVPG  C31340743   7.232   6.596   9.676
   51PVPG  H13X40744   7.300   6.528   9.621
   51PVPG  H13Y40745   7.163   6.530   9.734
   51PVPG  C31440746   7.313   6.671   9.784
   51PVPG  H14X40747   7.246   6.702   9.866
   51PVPG  H14Y40748   7.358   6.765   9.746
   51PVPG  C31540749   7.428   6.587   9.843
   51PVPG  H15X40750   7.489   6.651   9.911
   51PVPG  H15Y40751   7.495   6.554   9.761
   51PVPG  C31640752   7.382   6.464   9.922
   51PVPG  H16X40753   7.396   6.478  10.031
   51PVPG  H16Y40754   7.274   6.445   9.904
   51PVPG  H16Z40755   7.439   6.373   9.892
   52PVPG   C1340756   3.141   0.362   7.827
   52PVPG  H13A40757   3.218   0.405   7.759
   52PVPG  H13B40758   3.194   0.305   7.907
   52PVPG   OC340759   3.061   0.270   7.753
   52PVPG   HO340760   2.984   0.257   7.807
   52PVPG   C1240761   3.060   0.476   7.896
   52PVPG  H12A40762   3.131   0.540   7.954
   52PVPG   OC240763   2.970   0.418   7.988
   52PVPG   HO240764   2.882   0.427   7.951
   52PVPG   C1140765   2.984   0.569   7.794
   52PVPG  H11A40766   3.062   0.633   7.747
   52PVPG  H11B40767   2.919   0.638   7.852
   52PVPG     P40768   2.760   0.466   7.704
   52PVPG   O1340769   2.730   0.346   7.623
   52PVPG   O1440770   2.683   0.587   7.666
   52PVPG   O1240771   2.914   0.501   7.689
   52PVPG   O1140772   2.747   0.438   7.858
   52PVPG    C140773   2.621   0.438   7.926
   52PVPG    HA40774   2.578   0.336   7.919
   52PVPG    HB40775   2.548   0.508   7.880
   52PVPG    C240776   2.633   0.477   8.077
   52PVPG    HS40777   2.677   0.579   8.079
   52PVPG   O2140778   2.719   0.382   8.146
   52PVPG   C2140779   2.786   0.435   8.249
   52PVPG   O2240780   2.782   0.552   8.282
   52PVPG   C2240781   2.880   0.332   8.315
   52PVPG   H2R40782   2.972   0.390   8.339
   52PVPG   H2S40783   2.907   0.254   8.240
   52PVPG    C340784   2.491   0.485   8.143
   52PVPG    HX40785   2.440   0.574   8.100
   52PVPG    HY40786   2.434   0.396   8.111
   52PVPG   O3140787   2.496   0.495   8.287
   52PVPG   C3140788   2.375   0.482   8.342
   52PVPG   O3240789   2.274   0.453   8.281
   52PVPG   C3240790   2.378   0.515   8.491
   52PVPG   H2X40791   2.273   0.543   8.516
   52PVPG   H2Y40792   2.442   0.604   8.507
   52PVPG   C2340793   2.828   0.268   8.447
   52PVPG   H3R40794   2.782   0.170   8.423
   52PVPG   H3S40795   2.749   0.331   8.493
   52PVPG   C2440796   2.940   0.248   8.552
   52PVPG   H4R40797   2.970   0.348   8.590
   52PVPG   H4S40798   3.029   0.203   8.503
   52PVPG   C2540799   2.899   0.160   8.672
   52PVPG   H5R40800   2.878   0.058   8.634
   52PVPG   H5S40801   2.806   0.200   8.718
   52PVPG   C2640802   3.008   0.149   8.780
   52PVPG   H6R40803   3.022   0.247   8.830
   52PVPG   H6S40804   3.104   0.123   8.730
   52PVPG   C2740805   2.982   0.040   8.887
   52PVPG   H7R40806   3.078   0.014   8.935
   52PVPG   H7S40807   2.943   8.092   8.838
   52PVPG   C2840808   2.886   0.083   9.000
   52PVPG   H8R40809   2.786   0.106   8.957
   52PVPG   H8S40810   2.925   0.176   9.046
   52PVPG   C2940811   2.870   8.120   9.110
   52PVPG   H9R40812   2.963   8.120   9.172
   52PVPG   H9S40813   2.862   8.020   9.063
   52PVPG  C21040814   2.748   8.138   9.203
   52PVPG  H10R40815   2.759   8.068   9.289
   52PVPG  H10S40816   2.658   8.104   9.148
   52PVPG  C21140817   2.726   0.135   9.253
   52PVPG  H11140818   2.778   0.214   9.197
   52PVPG  C21240819   2.650   0.171   9.358
   52PVPG  H12140820   2.645   0.278   9.385
   52PVPG  C21340821   2.570   0.080   9.448
   52PVPG  H13R40822   2.546   8.128   9.399
   52PVPG  H13S40823   2.475   0.131   9.474
   52PVPG  C21440824   2.645   0.053   9.579
   52PVPG  H14R40825   2.660   0.148   9.633
   52PVPG  H14S40826   2.746   0.011   9.555
   52PVPG  C21540827   2.578   8.098   9.676
   52PVPG  H15R40828   2.561   8.001   9.624
   52PVPG  H15S40829   2.479   8.137   9.709
   52PVPG  C21640830   2.671   8.077   9.796
   52PVPG  H16R40831   2.675   0.025   9.859
   52PVPG  H16S40832   2.772   8.063   9.754
   52PVPG  C21740833   2.643   7.954   9.883
   52PVPG  H17R40834   2.582   7.882   9.826
   52PVPG  H17S40835   2.584   7.983   9.972
   52PVPG  C21840836   2.775   7.887   9.925
   52PVPG  H18R40837   2.840   7.960   9.979
   52PVPG  H18S40838   2.756   7.801   9.993
   52PVPG  H18T40839   2.829   7.850   9.836
   52PVPG   C3340840   2.422   0.399   8.583
   52PVPG   H3X40841   2.530   0.412   8.606
   52PVPG   H3Y40842   2.409   0.300   8.534
   52PVPG   C3440843   2.338   0.398   8.712
   52PVPG   H4X40844   2.234   0.367   8.687
   52PVPG   H4Y40845   2.329   0.502   8.750
   52PVPG   C3540846   2.391   0.304   8.821
   52PVPG   H5X40847   2.396   0.202   8.779
   52PVPG   H5Y40848   2.318   0.302   8.906
   52PVPG   C3640849   2.528   0.345   8.876
   52PVPG   H6X40850   2.602   0.340   8.793
   52PVPG   H6Y40851   2.562   0.272   8.953
   52PVPG   C3740852   2.532   0.484   8.940
   52PVPG   H7X40853   2.502   0.477   9.047
   52PVPG   H7Y40854   2.461   0.554   8.891
   52PVPG   C3840855   2.671   0.547   8.928
   52PVPG   H8X40856   2.666   0.652   8.964
   52PVPG   H8Y40857   2.700   0.551   8.821
   52PVPG   C3940858   2.775   0.470   9.007
   52PVPG   H9X40859   2.784   0.366   8.970
   52PVPG   H9Y40860   2.741   0.465   9.113
   52PVPG  C31040861   2.912   0.538   8.999
   52PVPG  H10X40862   2.903   0.642   9.037
   52PVPG  H10Y40863   2.944   0.542   8.893
   52PVPG  C31140864   3.019   0.465   9.081
   52PVPG  H11X40865   3.114   0.522   9.070
   52PVPG  H11Y40866   3.036   0.363   9.040
   52PVPG  C31240867   2.987   0.457   9.230
   52PVPG  H12X40868   2.897   0.394   9.245
   52PVPG  H12Y40869   2.964   0.559   9.268
   52PVPG  C31340870   3.103   0.398   9.311
   52PVPG  H13X40871   3.195   0.458   9.292
   52PVPG  H13Y40872   3.122   0.294   9.277
   52PVPG  C31440873   3.075   0.397   9.462
   52PVPG  H14X40874   3.070   0.501   9.500
   52PVPG  H14Y40875   3.159   0.346   9.513
   52PVPG  C31540876   2.945   0.325   9.498
   52PVPG  H15X40877   2.945   0.225   9.448
   52PVPG  H15Y40878   2.857   0.382   9.459
   52PVPG  C31640879   2.927   0.306   9.648
   52PVPG  H16X40880   2.843   0.237   9.671
   52PVPG  H16Y40881   3.020   0.266   9.694
   52PVPG  H16Z40882   2.904   0.404   9.695
   53PVPG   C1340883   0.123   5.283   7.556
   53PVPG  H13A40884   0.021   5.242   7.572
   53PVPG  H13B40885   0.140   5.292   7.446
   53PVPG   OC340886   0.220   5.194   7.611
   53PVPG   HO340887   0.280   5.255   7.655
   53PVPG   C1240888   0.133   5.425   7.618
   53PVPG  H12A40889   0.067   5.494   7.562
   53PVPG   OC240890   0.268   5.471   7.607
   53PVPG   HO240891   0.286   5.516   7.690
   53PVPG   C1140892   0.084   5.424   7.766
   53PVPG  H11A40893   0.138   5.345   7.823
   53PVPG  H11B40894   8.121   5.393   7.767
   53PVPG     P40895   0.212   5.581   7.928
   53PVPG   O1340896   0.333   5.578   7.843
   53PVPG   O1440897   0.202   5.483   8.038
   53PVPG   O1240898   0.093   5.554   7.826
   53PVPG   O1140899   0.181   5.727   7.979
   53PVPG    C140900   0.253   5.841   7.932
   53PVPG    HA40901   0.204   5.881   7.840
   53PVPG    HB40902   0.358   5.816   7.906
   53PVPG    C240903   0.258   5.954   8.039
   53PVPG    HS40904   0.326   6.034   8.003
   53PVPG   O2140905   0.305   5.903   8.164
   53PVPG   C2140906   0.431   5.871   8.170
   53PVPG   O2240907   0.516   5.893   8.085
   53PVPG   C2240908   0.459   5.802   8.304
   53PVPG   H2R40909   0.534   5.722   8.284
   53PVPG   H2S40910   0.365   5.753   8.339
   53PVPG    C340911   0.118   6.022   8.062
   53PVPG    HX40912   0.129   6.102   8.137
   53PVPG    HY40913   0.089   6.071   7.967
   53PVPG   O3140914   0.015   5.927   8.096
   53PVPG   C3140915   0.014   5.893   8.225
   53PVPG   O3240916   0.074   5.950   8.314
   53PVPG   C3240917   8.058   5.780   8.246
   53PVPG   H2X40918   8.073   5.704   8.167
   53PVPG   H2Y40919   7.957   5.825   8.235
   53PVPG   C2340920   0.512   5.899   8.410
   53PVPG   H3R40921   0.598   5.959   8.372
   53PVPG   H3S40922   0.549   5.839   8.496
   53PVPG   C2440923   0.403   5.992   8.465
   53PVPG   H4R40924   0.312   5.932   8.484
   53PVPG   H4S40925   0.375   6.070   8.391
   53PVPG   C2540926   0.447   6.059   8.596
   53PVPG   H5R40927   0.523   6.138   8.574
   53PVPG   H5S40928   0.495   5.982   8.660
   53PVPG   C2640929   0.332   6.121   8.676
   53PVPG   H6R40930   0.272   6.184   8.607
   53PVPG   H6S40931   0.373   6.187   8.754
   53PVPG   C2740932   0.240   6.016   8.743
   53PVPG   H7R40933   0.213   5.937   8.670
   53PVPG   H7S40934   0.146   6.066   8.775
   53PVPG   C2840935   0.300   5.951   8.868
   53PVPG   H8R40936   0.403   5.914   8.849
   53PVPG   H8S40937   0.237   5.864   8.895
   53PVPG   C2940938   0.299   6.048   8.987
   53PVPG   H9R40939   0.199   6.097   8.988
   53PVPG   H9S40940   0.375   6.128   8.972
   53PVPG  C21040941   0.318   5.981   9.124
   53PVPG  H10R40942   0.243   5.901   9.135
   53PVPG  H10S40943   0.296   6.056   9.203
   53PVPG  C21140944   0.457   5.926   9.136
   53PVPG  H11140945   0.479   5.840   9.070
   53PVPG  C21240946   0.553   5.968   9.220
   53PVPG  H12140947   0.650   5.915   9.219
   53PVPG  C21340948   0.545   6.080   9.320
   53PVPG  H13R40949   0.459   6.148   9.300
   53PVPG  H13S40950   0.636   6.144   9.315
   53PVPG  C21440951   0.532   6.025   9.464
   53PVPG  H14R40952   0.544   6.108   9.537
   53PVPG  H14S40953   0.615   5.955   9.485
   53PVPG  C21540954   0.396   5.958   9.487
   53PVPG  H15R40955   0.369   5.896   9.399
   53PVPG  H15S40956   0.316   6.035   9.497
   53PVPG  C21640957   0.389   5.866   9.609
   53PVPG  H16R40958   0.426   5.916   9.701
   53PVPG  H16S40959   0.453   5.777   9.590
   53PVPG  C21740960   0.244   5.820   9.630
   53PVPG  H17R40961   0.196   5.808   9.530
   53PVPG  H17S40962   0.190   5.901   9.683
   53PVPG  C21840963   0.230   5.689   9.706
   53PVPG  H18R40964   0.125   5.652   9.700
   53PVPG  H18S40965   0.297   5.612   9.662
   53PVPG  H18T40966   0.257   5.704   9.812
   53PVPG   C3340967   8.071   5.716   8.386
   53PVPG   H3X40968   7.978   5.658   8.406
   53PVPG   H3Y40969   8.077   5.792   8.467
   53PVPG   C3440970   0.045   5.618   8.397
   53PVPG   H4X40971   0.129   5.667   8.451
   53PVPG   H4Y40972   0.082   5.594   8.295
   53PVPG   C3540973   0.008   5.485   8.466
   53PVPG   H5X40974   0.098   5.420   8.469
   53PVPG   H5Y40975   8.076   5.434   8.403
   53PVPG   C3640976   8.095   5.499   8.608
   53PVPG   H6X40977   8.057   5.399   8.640
   53PVPG   H6Y40978   8.009   5.569   8.607
   53PVPG   C3740979   0.052   5.547   8.714
   53PVPG   H7X40980   0.088   5.649   8.688
   53PVPG   H7Y40981   0.139   5.478   8.714
   53PVPG   C3840982   8.135   5.549   8.855
   53PVPG   H8X40983   8.095   5.448   8.879
   53PVPG   H8Y40984   8.049   5.620   8.859
   53PVPG   C3940985   0.094   5.587   8.962
   53PVPG   H9X40986   0.124   5.693   8.947
   53PVPG   H9Y40987   0.183   5.523   8.946
   53PVPG  C31040988   0.044   5.569   9.106
   53PVPG  H10X40989   0.020   5.462   9.122
   53PVPG  H10Y40990   8.095   5.628   9.121
   53PVPG  C31140991   0.147   5.613   9.212
   53PVPG  H11X40992   0.111   5.582   9.313
   53PVPG  H11Y40993   0.155   5.723   9.213
   53PVPG  C31240994   0.287   5.554   9.189
   53PVPG  H12X40995   0.327   5.591   9.092
   53PVPG  H12Y40996   0.280   5.443   9.183
   53PVPG  C31340997   0.390   5.591   9.296
   53PVPG  H13X40998   0.359   5.547   9.394
   53PVPG  H13Y40999   0.392   5.701   9.309
   53PVPG  C31441000   0.530   5.542   9.259
   53PVPG  H14X41001   0.566   5.595   9.169
   53PVPG  H14Y41002   0.523   5.434   9.234
   53PVPG  C31541003   0.633   5.558   9.372
   53PVPG  H15X41004   0.723   5.498   9.348
   53PVPG  H15Y41005   0.589   5.516   9.466
   53PVPG  C31641006   0.678   5.700   9.398
   53PVPG  H16X41007   0.730   5.742   9.309
   53PVPG  H16Y41008   0.589   5.763   9.420
   53PVPG  H16Z41009   0.747   5.705   9.485
   54PVPG   C1341010   1.249   7.315   7.662
   54PVPG  H13A41011   1.354   7.281   7.656
   54PVPG  H13B41012   1.221   7.319   7.770
   54PVPG   OC341013   1.163   7.221   7.596
   54PVPG   HO341014   1.186   7.136   7.635
   54PVPG   C1241015   1.239   7.459   7.604
   54PVPG  H12A41016   1.133   7.491   7.608
   54PVPG   OC241017   1.285   7.466   7.469
   54PVPG   HO241018   1.350   7.395   7.461
   54PVPG   C1141019   1.322   7.558   7.690
   54PVPG  H11A41020   1.315   7.658   7.642
   54PVPG  H11B41021   1.428   7.525   7.687
   54PVPG     P41022   1.337   7.672   7.921
   54PVPG   O1341023   1.243   7.788   7.925
   54PVPG   O1441024   1.471   7.704   7.867
   54PVPG   O1241025   1.274   7.561   7.825
   54PVPG   O1141026   1.353   7.598   8.061
   54PVPG    C141027   1.238   7.536   8.122
   54PVPG    HA41028   1.197   7.457   8.055
   54PVPG    HB41029   1.159   7.612   8.137
   54PVPG    C241030   1.258   7.470   8.265
   54PVPG    HS41031   1.166   7.489   8.324
   54PVPG   O2141032   1.373   7.520   8.336
   54PVPG   C2141033   1.369   7.648   8.368
   54PVPG   O2241034   1.284   7.728   8.332
   54PVPG   C2241035   1.484   7.687   8.463
   54PVPG   H2R41036   1.455   7.787   8.504
   54PVPG   H2S41037   1.576   7.701   8.402
   54PVPG    C341038   1.273   7.314   8.254
   54PVPG    HX41039   1.198   7.273   8.182
   54PVPG    HY41040   1.371   7.290   8.207
   54PVPG   O3141041   1.264   7.246   8.382
   54PVPG   C3141042   1.139   7.232   8.427
   54PVPG   O3241043   1.039   7.268   8.367
   54PVPG   C3241044   1.136   7.170   8.566
   54PVPG   H2X41045   1.240   7.151   8.599
   54PVPG   H2Y41046   1.084   7.072   8.560
   54PVPG   C2341047   1.511   7.593   8.583
   54PVPG   H3R41048   1.555   7.496   8.550
   54PVPG   H3S41049   1.416   7.570   8.636
   54PVPG   C2441050   1.608   7.657   8.683
   54PVPG   H4R41051   1.555   7.748   8.720
   54PVPG   H4S41052   1.701   7.691   8.631
   54PVPG   C2541053   1.647   7.575   8.808
   54PVPG   H5R41054   1.556   7.522   8.846
   54PVPG   H5S41055   1.676   7.647   8.886
   54PVPG   C2641056   1.769   7.481   8.795
   54PVPG   H6R41057   1.855   7.549   8.778
   54PVPG   H6S41058   1.760   7.417   8.704
   54PVPG   C2741059   1.803   7.396   8.920
   54PVPG   H7R41060   1.752   7.436   9.010
   54PVPG   H7S41061   1.912   7.407   8.938
   54PVPG   C2841062   1.780   7.243   8.907
   54PVPG   H8R41063   1.811   7.214   8.804
   54PVPG   H8S41064   1.672   7.220   8.918
   54PVPG   C2941065   1.858   7.148   9.001
   54PVPG   H9R41066   1.967   7.157   8.982
   54PVPG   H9S41067   1.829   7.045   8.970
   54PVPG  C21041068   1.832   7.157   9.154
   54PVPG  H10R41069   1.919   7.205   9.204
   54PVPG  H10S41070   1.832   7.053   9.193
   54PVPG  C21141071   1.704   7.224   9.195
   54PVPG  H11141072   1.614   7.175   9.156
   54PVPG  C21241073   1.692   7.333   9.272
   54PVPG  H12141074   1.590   7.370   9.294
   54PVPG  C21341075   1.803   7.411   9.335
   54PVPG  H13R41076   1.871   7.448   9.255
   54PVPG  H13S41077   1.862   7.339   9.397
   54PVPG  C21441078   1.771   7.532   9.426
   54PVPG  H14R41079   1.714   7.611   9.372
   54PVPG  H14S41080   1.868   7.579   9.454
   54PVPG  C21541081   1.698   7.500   9.558
   54PVPG  H15R41082   1.752   7.419   9.610
   54PVPG  H15S41083   1.596   7.460   9.539
   54PVPG  C21641084   1.686   7.623   9.651
   54PVPG  H16R41085   1.619   7.698   9.603
   54PVPG  H16S41086   1.786   7.670   9.662
   54PVPG  C21741087   1.633   7.590   9.791
   54PVPG  H17R41088   1.531   7.545   9.782
   54PVPG  H17S41089   1.621   7.685   9.848
   54PVPG  C21841090   1.722   7.498   9.874
   54PVPG  H18R41091   1.738   7.400   9.824
   54PVPG  H18S41092   1.822   7.545   9.889
   54PVPG  H18T41093   1.677   7.479   9.973
   54PVPG   C3341094   1.062   7.266   8.661
   54PVPG   H3X41095   0.952   7.260   8.645
   54PVPG   H3Y41096   1.092   7.370   8.639
   54PVPG   C3441097   1.094   7.245   8.810
   54PVPG   H4X41098   1.203   7.232   8.819
   54PVPG   H4Y41099   1.052   7.150   8.850
   54PVPG   C3541100   1.052   7.367   8.894
   54PVPG   H5X41101   0.961   7.413   8.850
   54PVPG   H5Y41102   1.134   7.441   8.883
   54PVPG   C3641103   1.026   7.342   9.044
   54PVPG   H6X41104   1.090   7.259   9.079
   54PVPG   H6Y41105   0.921   7.307   9.058
   54PVPG   C3741106   1.051   7.472   9.124
   54PVPG   H7X41107   0.963   7.538   9.109
   54PVPG   H7Y41108   1.137   7.525   9.079
   54PVPG   C3841109   1.078   7.462   9.275
   54PVPG   H8X41110   1.188   7.453   9.292
   54PVPG   H8Y41111   1.035   7.369   9.319
   54PVPG   C3941112   1.019   7.580   9.354
   54PVPG   H9X41113   0.911   7.560   9.375
   54PVPG   H9Y41114   1.025   7.668   9.288
   54PVPG  C31041115   1.088   7.624   9.484
   54PVPG  H10X41116   1.034   7.713   9.523
   54PVPG  H10Y41117   1.190   7.662   9.462
   54PVPG  C31141118   1.090   7.522   9.596
   54PVPG  H11X41119   1.129   7.424   9.560
   54PVPG  H11Y41120   0.985   7.507   9.629
   54PVPG  C31241121   1.176   7.571   9.714
   54PVPG  H12X41122   1.183   7.682   9.710
   54PVPG  H12Y41123   1.279   7.532   9.700
   54PVPG  C31341124   1.125   7.534   9.855
   54PVPG  H13X41125   1.051   7.610   9.886
   54PVPG  H13Y41126   1.210   7.540   9.926
   54PVPG  C31441127   1.059   7.396   9.868
   54PVPG  H14X41128   0.966   7.394   9.807
   54PVPG  H14Y41129   1.027   7.380   9.973
   54PVPG  C31541130   1.148   7.279   9.824
   54PVPG  H15X41131   1.230   7.318   9.759
   54PVPG  H15Y41132   1.089   7.211   9.760
   54PVPG  C31641133   1.207   7.199   9.940
   54PVPG  H16X41134   1.126   7.158  10.005
   54PVPG  H16Y41135   1.267   7.113   9.902
   54PVPG  H16Z41136   1.273   7.263  10.003
   55PVPG   C1341137   7.117   0.107   7.643
   55PVPG  H13A41138   7.089   0.062   7.741
   55PVPG  H13B41139   7.032   0.095   7.573
   55PVPG   OC341140   7.232   0.037   7.594
   55PVPG   HO341141   7.303   0.072   7.648
   55PVPG   C1241142   7.141   0.259   7.666
   55PVPG  H12A41143   7.044   0.309   7.684
   55PVPG   OC241144   7.203   0.319   7.553
   55PVPG   HO241145   7.296   0.301   7.572
   55PVPG   C1141146   7.232   0.284   7.788
   55PVPG  H11A41147   7.181   0.247   7.879
   55PVPG  H11B41148   7.244   0.394   7.799
   55PVPG     P41149   7.478   0.261   7.863
   55PVPG   O1341150   7.426   0.351   7.968
   55PVPG   O1441151   7.580   0.317   7.771
   55PVPG   O1241152   7.357   0.217   7.770
   55PVPG   O1141153   7.529   0.125   7.923
   55PVPG    C141154   7.454   0.003   7.932
   55PVPG    HA41155   7.518   8.065   7.893
   55PVPG    HB41156   7.362   0.004   7.870
   55PVPG    C241157   7.419   8.110   8.078
   55PVPG    HS41158   7.372   8.008   8.079
   55PVPG   O2141159   7.330   0.060   8.138
   55PVPG   C2141160   7.207   0.071   8.099
   55PVPG   O2241161   7.151   0.015   8.005
   55PVPG   C2241162   7.137   0.166   8.196
   55PVPG   H2R41163   7.058   0.222   8.141
   55PVPG   H2S41164   7.212   0.239   8.232
   55PVPG    C341165   7.544   8.104   8.170
   55PVPG    HX41166   7.616   8.029   8.128
   55PVPG    HY41167   7.592   0.060   8.164
   55PVPG   O3141168   7.506   8.066   8.304
   55PVPG   C3141169   7.575   8.124   8.402
   55PVPG   O3241170   7.670   0.054   8.388
   55PVPG   C3241171   7.516   8.082   8.537
   55PVPG   H2X41172   7.577   7.998   8.577
   55PVPG   H2Y41173   7.412   8.046   8.521
   55PVPG   C2341174   7.077   0.089   8.315
   55PVPG   H3R41175   7.141   0.003   8.344
   55PVPG   H3S41176   6.977   0.049   8.287
   55PVPG   C2441177   7.063   0.179   8.439
   55PVPG   H4R41178   6.988   0.134   8.508
   55PVPG   H4S41179   7.025   0.278   8.407
   55PVPG   C2541180   7.194   0.195   8.517
   55PVPG   H5R41181   7.271   0.245   8.454
   55PVPG   H5S41182   7.233   0.094   8.541
   55PVPG   C2641183   7.178   0.272   8.648
   55PVPG   H6R41184   7.270   0.264   8.709
   55PVPG   H6S41185   7.097   0.223   8.707
   55PVPG   C2741186   7.141   0.421   8.632
   55PVPG   H7R41187   7.105   0.455   8.732
   55PVPG   H7S41188   7.056   0.430   8.561
   55PVPG   C2841189   7.254   0.514   8.585
   55PVPG   H8R41190   7.212   0.616   8.568
   55PVPG   H8S41191   7.292   0.477   8.487
   55PVPG   C2941192   7.373   0.527   8.682
   55PVPG   H9R41193   7.454   0.582   8.629
   55PVPG   H9S41194   7.410   0.425   8.704
   55PVPG  C21041195   7.343   0.599   8.815
   55PVPG  H10R41196   7.265   0.542   8.870
   55PVPG  H10S41197   7.301   0.699   8.793
   55PVPG  C21141198   7.468   0.613   8.898
   55PVPG  H11141199   7.521   0.709   8.889
   55PVPG  C21241200   7.519   0.519   8.981
   55PVPG  H12141201   7.611   0.542   9.037
   55PVPG  C21341202   7.462   0.382   9.007
   55PVPG  H13R41203   7.541   0.304   8.993
   55PVPG  H13S41204   7.380   0.357   8.936
   55PVPG  C21441205   7.405   0.370   9.150
   55PVPG  H14R41206   7.347   0.275   9.157
   55PVPG  H14S41207   7.335   0.453   9.169
   55PVPG  C21541208   7.513   0.367   9.259
   55PVPG  H15R41209   7.584   0.452   9.247
   55PVPG  H15S41210   7.573   0.274   9.248
   55PVPG  C21641211   7.455   0.373   9.401
   55PVPG  H16R41212   7.535   0.344   9.473
   55PVPG  H16S41213   7.373   0.299   9.412
   55PVPG  C21741214   7.404   0.513   9.440
   55PVPG  H17R41215   7.315   0.537   9.378
   55PVPG  H17S41216   7.483   0.587   9.415
   55PVPG  C21841217   7.369   0.526   9.588
   55PVPG  H18R41218   7.297   0.447   9.618
   55PVPG  H18S41219   7.461   0.514   9.651
   55PVPG  H18T41220   7.324   0.625   9.610
   55PVPG   C3341221   7.516   0.055   8.638
   55PVPG   H3X41222   7.472   0.145   8.589
   55PVPG   H3Y41223   7.620   0.081   8.666
   55PVPG   C3441224   7.435   0.028   8.766
   55PVPG   H4X41225   7.329   0.008   8.740
   55PVPG   H4Y41226   7.437   0.120   8.828
   55PVPG   C3541227   7.488   8.055   8.850
   55PVPG   H5X41228   7.598   8.067   8.864
   55PVPG   H5Y41229   7.470   7.959   8.797
   55PVPG   C3641230   7.422   8.051   8.988
   55PVPG   H6X41231   7.312   8.045   8.976
   55PVPG   H6Y41232   7.445   0.001   9.043
   55PVPG   C3741233   7.468   7.931   9.073
   55PVPG   H7X41234   7.579   7.932   9.084
   55PVPG   H7Y41235   7.441   7.838   9.019
   55PVPG   C3841236   7.402   7.928   9.212
   55PVPG   H8X41237   7.413   7.826   9.254
   55PVPG   H8Y41238   7.294   7.950   9.203
   55PVPG   C3941239   7.467   8.023   9.314
   55PVPG   H9X41240   7.477   8.125   9.273
   55PVPG   H9Y41241   7.570   7.985   9.332
   55PVPG  C31041242   7.391   8.026   9.447
   55PVPG  H10X41243   7.465   8.043   9.529
   55PVPG  H10Y41244   7.347   7.927   9.469
   55PVPG  C31141245   7.282   8.135   9.454
   55PVPG  H11X41246   7.186   8.090   9.422
   55PVPG  H11Y41247   7.307   0.071   9.381
   55PVPG  C31241248   7.265   0.059   9.591
   55PVPG  H12X41249   7.181   0.131   9.584
   55PVPG  H12Y41250   7.357   0.117   9.614
   55PVPG  C31341251   7.238   8.107   9.709
   55PVPG  H13X41252   7.323   8.037   9.719
   55PVPG  H13Y41253   7.146   8.048   9.686
   55PVPG  C31441254   7.216   0.038   9.841
   55PVPG  H14X41255   7.116   0.085   9.841
   55PVPG  H14Y41256   7.291   0.120   9.846
   55PVPG  C31541257   7.234   8.098   9.969
   55PVPG  H15X41258   7.241   0.025  10.054
   55PVPG  H15Y41259   7.330   8.043   9.964
   55PVPG  C31641260   7.122   7.999  10.004
   55PVPG  H16X41261   7.128   7.908   9.940
   55PVPG  H16Y41262   7.131   7.966  10.109
   55PVPG  H16Z41263   7.022   8.045   9.990
   56PVPG   C1341264   8.069   0.905   7.814
   56PVPG  H13A41265   8.063   0.920   7.924
   56PVPG  H13B41266   8.112   0.997   7.770
   56PVPG   OC341267   7.936   0.883   7.762
   56PVPG   HO341268   7.907   0.802   7.805
   56PVPG   C1241269   0.022   0.786   7.787
   56PVPG  H12A41270   0.116   0.803   7.844
   56PVPG   OC241271   0.055   0.775   7.649
   56PVPG   HO241272   0.073   0.680   7.649
   56PVPG   C1141273   8.108   0.648   7.827
   56PVPG  H11A41274   8.001   0.642   7.798
   56PVPG  H11B41275   8.111   0.640   7.938
   56PVPG     P41276   0.113   0.431   7.841
   56PVPG   O1341277   0.236   0.493   7.892
   56PVPG   O1441278   0.126   0.317   7.747
   56PVPG   O1241279   0.033   0.541   7.759
   56PVPG   O1141280   0.009   0.400   7.954
   56PVPG    C141281   0.038   0.315   8.065
   56PVPG    HA41282   0.146   0.298   8.079
   56PVPG    HB41283   8.136   0.215   8.047
   56PVPG    C241284   8.125   0.375   8.198
   56PVPG    HS41285   8.137   0.300   8.279
   56PVPG   O2141286   7.987   0.413   8.184
   56PVPG   C2141287   7.903   0.310   8.178
   56PVPG   O2241288   7.934   0.193   8.180
   56PVPG   C2241289   7.758   0.360   8.168
   56PVPG   H2R41290   7.694   0.280   8.211
   56PVPG   H2S41291   7.734   0.369   8.060
   56PVPG    C341292   0.066   0.499   8.241
   56PVPG    HX41293   0.170   0.464   8.258
   56PVPG    HY41294   0.071   0.569   8.154
   56PVPG   O3141295   0.017   0.560   8.363
   56PVPG   C3141296   8.101   0.677   8.349
   56PVPG   O3241297   8.078   0.734   8.244
   56PVPG   C3241298   8.062   0.737   8.485
   56PVPG   H2X41299   7.952   0.752   8.483
   56PVPG   H2Y41300   8.110   0.837   8.490
   56PVPG   C2341301   7.730   0.495   8.239
   56PVPG   H3R41302   7.625   0.525   8.218
   56PVPG   H3S41303   7.797   0.573   8.196
   56PVPG   C2441304   7.751   0.491   8.391
   56PVPG   H4R41305   7.742   0.594   8.432
   56PVPG   H4S41306   7.854   0.457   8.412
   56PVPG   C2541307   7.650   0.402   8.465
   56PVPG   H5R41308   7.658   0.298   8.427
   56PVPG   H5S41309   7.547   0.437   8.444
   56PVPG   C2641310   7.672   0.398   8.617
   56PVPG   H6R41311   7.591   0.339   8.664
   56PVPG   H6S41312   7.669   0.501   8.659
   56PVPG   C2741313   7.804   0.331   8.658
   56PVPG   H7R41314   7.889   0.385   8.612
   56PVPG   H7S41315   7.802   0.228   8.617
   56PVPG   C2841316   7.824   0.327   8.810
   56PVPG   H8R41317   7.759   0.249   8.854
   56PVPG   H8S41318   7.792   0.425   8.852
   56PVPG   C2941319   7.970   0.305   8.848
   56PVPG   H9R41320   8.033   0.380   8.794
   56PVPG   H9S41321   8.006   0.206   8.812
   56PVPG  C21041322   7.998   0.320   8.999
   56PVPG  H10R41323   7.968   0.422   9.029
   56PVPG  H10S41324   8.108   0.312   9.013
   56PVPG  C21141325   7.930   0.219   9.087
   56PVPG  H11141326   7.870   0.141   9.037
   56PVPG  C21241327   7.938   0.220   9.221
   56PVPG  H12141328   7.888   0.141   9.279
   56PVPG  C21341329   8.015   0.320   9.303
   56PVPG  H13R41330   8.073   0.390   9.239
   56PVPG  H13S41331   8.090   0.270   9.367
   56PVPG  C21441332   7.922   0.403   9.393
   56PVPG  H14R41333   7.817   0.399   9.357
   56PVPG  H14S41334   7.951   0.510   9.389
   56PVPG  C21541335   7.927   0.357   9.539
   56PVPG  H15R41336   8.021   0.392   9.586
   56PVPG  H15S41337   7.927   0.246   9.544
   56PVPG  C21641338   7.806   0.409   9.618
   56PVPG  H16R41339   7.715   0.368   9.570
   56PVPG  H16S41340   7.799   0.520   9.608
   56PVPG  C21741341   7.808   0.370   9.766
   56PVPG  H17R41342   7.884   0.431   9.820
   56PVPG  H17S41343   7.839   0.264   9.776
   56PVPG  C21841344   7.670   0.387   9.832
   56PVPG  H18R41345   7.631   0.490   9.820
   56PVPG  H18S41346   7.597   0.320   9.784
   56PVPG  H18T41347   7.676   0.363   9.941
   56PVPG   C3341348   8.099   0.658   8.613
   56PVPG   H3X41349   0.064   0.634   8.614
   56PVPG   H3Y41350   8.043   0.562   8.615
   56PVPG   C3441351   8.065   0.740   8.739
   56PVPG   H4X41352   7.963   0.781   8.726
   56PVPG   H4Y41353   8.135   0.825   8.749
   56PVPG   C3541354   8.065   0.659   8.870
   56PVPG   H5X41355   7.993   0.575   8.857
   56PVPG   H5Y41356   8.025   0.722   8.953
   56PVPG   C3641357   0.058   0.602   8.910
   56PVPG   H6X41358   0.107   0.556   8.822
   56PVPG   H6Y41359   0.043   0.520   8.984
   56PVPG   C3741360   0.153   0.706   8.974
   56PVPG   H7X41361   0.172   0.788   8.902
   56PVPG   H7Y41362   0.250   0.655   8.993
   56PVPG   C3841363   0.105   0.765   9.108
   56PVPG   H8X41364   0.014   0.827   9.092
   56PVPG   H8Y41365   0.184   0.832   9.147
   56PVPG   C3941366   0.075   0.658   9.214
   56PVPG   H9X41367   0.165   0.593   9.223
   56PVPG   H9Y41368   8.135   0.593   9.181
   56PVPG  C31041369   0.041   0.713   9.353
   56PVPG  H10X41370   8.078   0.740   9.357
   56PVPG  H10Y41371   0.100   0.806   9.372
   56PVPG  C31141372   0.075   0.610   9.462
   56PVPG  H11X41373   0.183   0.584   9.454
   56PVPG  H11Y41374   0.019   0.516   9.443
   56PVPG  C31241375   0.048   0.656   9.607
   56PVPG  H12X41376   0.115   0.740   9.633
   56PVPG  H12Y41377   0.073   0.571   9.675
   56PVPG  C31341378   8.047   0.698   9.633
   56PVPG  H13X41379   7.977   0.624   9.587
   56PVPG  H13Y41380   8.028   0.795   9.582
   56PVPG  C31441381   8.017   0.710   9.783
   56PVPG  H14X41382   8.106   0.754   9.832
   56PVPG  H14Y41383   8.004   0.609   9.827
   56PVPG  C31541384   7.895   0.798   9.815
   56PVPG  H15X41385   7.907   0.896   9.763
   56PVPG  H15Y41386   7.895   0.819   9.924
   56PVPG  C31641387   7.760   0.739   9.777
   56PVPG  H16X41388   7.758   0.710   9.670
   56PVPG  H16Y41389   7.741   0.651   9.841
   56PVPG  H16Z41390   7.677   0.812   9.794
   57PPPE     N41391   3.946   4.594   7.924
   57PPPE   HN141392   3.926   4.609   8.025
   57PPPE   HN241393   4.042   4.628   7.903
   57PPPE   HN341394   3.880   4.650   7.867
   57PPPE   C1241395   3.929   4.449   7.889
   57PPPE  H12A41396   3.988   4.389   7.961
   57PPPE  H12B41397   3.970   4.436   7.786
   57PPPE   C1141398   3.780   4.407   7.891
   57PPPE  H11A41399   3.742   4.411   7.995
   57PPPE  H11B41400   3.773   4.301   7.860
   57PPPE     P41401   3.544   4.473   7.797
   57PPPE   O1341402   3.493   4.554   7.684
   57PPPE   O1441403   3.515   4.328   7.790
   57PPPE   O1141404   3.492   4.531   7.933
   57PPPE   O1241405   3.703   4.491   7.804
   57PPPE    C141406   3.516   4.665   7.978
   57PPPE    HA41407   3.426   4.702   8.031
   57PPPE    HB41408   3.536   4.735   7.894
   57PPPE    C241409   3.635   4.670   8.079
   57PPPE    HS41410   3.721   4.628   8.022
   57PPPE   O2141411   3.600   4.588   8.192
   57PPPE   C2141412   3.698   4.513   8.243
   57PPPE   O2241413   3.815   4.517   8.207
   57PPPE   C2241414   3.634   4.410   8.337
   57PPPE   H2R41415   3.598   4.328   8.271
   57PPPE   H2S41416   3.544   4.454   8.385
   57PPPE    C341417   3.675   4.814   8.121
   57PPPE    HX41418   3.675   4.877   8.029
   57PPPE    HY41419   3.598   4.858   8.188
   57PPPE   O3141420   3.810   4.815   8.175
   57PPPE   C3141421   3.817   4.826   8.309
   57PPPE   O3241422   3.722   4.844   8.382
   57PPPE   C3241423   3.961   4.800   8.352
   57PPPE   H2X41424   4.027   4.877   8.307
   57PPPE   H2Y41425   3.989   4.700   8.311
   57PPPE   C2341426   3.726   4.348   8.445
   57PPPE   H3R41427   3.820   4.309   8.400
   57PPPE   H3S41428   3.671   4.261   8.486
   57PPPE   C2441429   3.759   4.440   8.564
   57PPPE   H4R41430   3.671   4.503   8.590
   57PPPE   H4S41431   3.842   4.509   8.536
   57PPPE   C2541432   3.797   4.359   8.689
   57PPPE   H5R41433   3.866   4.278   8.657
   57PPPE   H5S41434   3.707   4.311   8.731
   57PPPE   C2641435   3.869   4.439   8.799
   57PPPE   H6R41436   3.954   4.495   8.755
   57PPPE   H6S41437   3.910   4.367   8.873
   57PPPE   C2741438   3.780   4.537   8.878
   57PPPE   H7R41439   3.693   4.482   8.922
   57PPPE   H7S41440   3.739   4.614   8.809
   57PPPE   C2841441   3.859   4.605   8.991
   57PPPE   H8R41442   3.949   4.653   8.947
   57PPPE   H8S41443   3.898   4.524   9.057
   57PPPE   C2941444   3.781   4.708   9.069
   57PPPE   H9141445   3.738   4.788   9.006
   57PPPE  C21041446   3.756   4.710   9.201
   57PPPE  H10141447   3.696   4.792   9.243
   57PPPE  C21141448   3.802   4.608   9.303
   57PPPE  H11R41449   3.851   4.657   9.390
   57PPPE  H11S41450   3.876   4.537   9.262
   57PPPE  C21241451   3.682   4.527   9.353
   57PPPE  H12R41452   3.714   4.424   9.379
   57PPPE  H12S41453   3.608   4.516   9.271
   57PPPE  C21341454   3.614   4.588   9.476
   57PPPE  H13R41455   3.506   4.560   9.474
   57PPPE  H13S41456   3.619   4.699   9.474
   57PPPE  C21441457   3.673   4.534   9.608
   57PPPE  H14R41458   3.770   4.583   9.631
   57PPPE  H14S41459   3.693   4.426   9.595
   57PPPE  C21541460   3.577   4.547   9.727
   57PPPE  H15R41461   3.473   4.530   9.692
   57PPPE  H15S41462   3.583   4.650   9.768
   57PPPE  C21641463   3.606   4.447   9.838
   57PPPE  H16R41464   3.713   4.452   9.868
   57PPPE  H16S41465   3.543   4.467   9.927
   57PPPE  H16T41466   3.586   4.343   9.805
   57PPPE   C3341467   3.979   4.796   8.505
   57PPPE   H3X41468   4.061   4.725   8.531
   57PPPE   H3Y41469   3.887   4.757   8.555
   57PPPE   C3441470   4.018   4.932   8.564
   57PPPE   H4X41471   3.949   5.011   8.527
   57PPPE   H4Y41472   4.120   4.959   8.527
   57PPPE   C3541473   4.020   4.933   8.717
   57PPPE   H5X41474   4.064   5.029   8.752
   57PPPE   H5Y41475   4.087   4.851   8.751
   57PPPE   C3641476   3.883   4.914   8.785
   57PPPE   H6X41477   3.896   4.926   8.894
   57PPPE   H6Y41478   3.847   4.810   8.767
   57PPPE   C3741479   3.777   5.012   8.734
   57PPPE   H7X41480   3.759   4.992   8.627
   57PPPE   H7Y41481   3.813   5.117   8.743
   57PPPE   C3841482   3.642   4.999   8.806
   57PPPE   H8X41483   3.612   4.892   8.809
   57PPPE   H8Y41484   3.566   5.052   8.745
   57PPPE   C3941485   3.636   5.055   8.948
   57PPPE   H9X41486   3.676   5.159   8.951
   57PPPE   H9Y41487   3.699   4.994   9.017
   57PPPE  C31041488   3.490   5.051   8.994
   57PPPE  H10X41489   3.460   4.944   8.990
   57PPPE  H10Y41490   3.427   5.105   8.920
   57PPPE  C31141491   3.457   5.106   9.133
   57PPPE  H11X41492   3.351   5.082   9.155
   57PPPE  H11Y41493   3.464   5.217   9.132
   57PPPE  C31241494   3.544   5.057   9.249
   57PPPE  H12X41495   3.649   5.089   9.231
   57PPPE  H12Y41496   3.544   4.946   9.258
   57PPPE  C31341497   3.496   5.118   9.381
   57PPPE  H13X41498   3.477   5.226   9.362
   57PPPE  H13Y41499   3.577   5.114   9.457
   57PPPE  C31441500   3.369   5.055   9.438
   57PPPE  H14X41501   3.291   5.044   9.360
   57PPPE  H14Y41502   3.329   5.125   9.514
   57PPPE  C31541503   3.392   4.919   9.508
   57PPPE  H15X41504   3.407   4.841   9.431
   57PPPE  H15Y41505   3.299   4.894   9.563
   57PPPE  C31641506   3.509   4.917   9.606
   57PPPE  H16X41507   3.606   4.923   9.552
   57PPPE  H16Y41508   3.502   5.002   9.676
   57PPPE  H16Z41509   3.509   4.822   9.664
   58PPPE     N41510   3.875   3.587   7.817
   58PPPE   HN141511   3.913   3.680   7.843
   58PPPE   HN241512   3.798   3.561   7.881
   58PPPE   HN341513   3.951   3.516   7.821
   58PPPE   C1241514   3.811   3.596   7.681
   58PPPE  H12A41515   3.807   3.493   7.639
   58PPPE  H12B41516   3.874   3.660   7.616
   58PPPE   C1141517   3.669   3.651   7.698
   58PPPE  H11A41518   3.619   3.656   7.599
   58PPPE  H11B41519   3.674   3.754   7.738
   58PPPE     P41520   3.457   3.610   7.845
   58PPPE   O1341521   3.400   3.712   7.753
   58PPPE   O1441522   3.377   3.489   7.870
   58PPPE   O1141523   3.503   3.677   7.981
   58PPPE   O1241524   3.598   3.564   7.786
   58PPPE    C141525   3.598   3.609   8.063
   58PPPE    HA41526   3.700   3.626   8.022
   58PPPE    HB41527   3.580   3.499   8.066
   58PPPE    C241528   3.602   3.663   8.209
   58PPPE    HS41529   3.699   3.630   8.254
   58PPPE   O2141530   3.491   3.612   8.285
   58PPPE   C2141531   3.506   3.486   8.324
   58PPPE   O2241532   3.607   3.420   8.308
   58PPPE   C2241533   3.376   3.433   8.384
   58PPPE   H2R41534   3.346   3.346   8.321
   58PPPE   H2S41535   3.297   3.510   8.377
   58PPPE    C341536   3.603   3.818   8.214
   58PPPE    HX41537   3.648   3.854   8.119
   58PPPE    HY41538   3.499   3.856   8.218
   58PPPE   O3141539   3.687   3.863   8.322
   58PPPE   C3141540   3.625   3.886   8.438
   58PPPE   O3241541   3.504   3.895   8.453
   58PPPE   C3241542   3.729   3.897   8.549
   58PPPE   H2X41543   3.743   4.004   8.574
   58PPPE   H2Y41544   3.825   3.855   8.513
   58PPPE   C2341545   3.392   3.385   8.530
   58PPPE   H3R41546   3.486   3.327   8.544
   58PPPE   H3S41547   3.308   3.317   8.554
   58PPPE   C2441548   3.385   3.501   8.631
   58PPPE   H4R41549   3.293   3.560   8.611
   58PPPE   H4S41550   3.472   3.569   8.618
   58PPPE   C2541551   3.379   3.454   8.777
   58PPPE   H5R41552   3.298   3.379   8.788
   58PPPE   H5S41553   3.353   3.540   8.842
   58PPPE   C2641554   3.511   3.395   8.829
   58PPPE   H6R41555   3.591   3.472   8.821
   58PPPE   H6S41556   3.542   3.310   8.765
   58PPPE   C2741557   3.499   3.346   8.974
   58PPPE   H7R41558   3.414   3.275   8.977
   58PPPE   H7S41559   3.473   3.430   9.041
   58PPPE   C2841560   3.624   3.272   9.025
   58PPPE   H8R41561   3.653   3.194   8.952
   58PPPE   H8S41562   3.593   3.219   9.118
   58PPPE   C2941563   3.741   3.362   9.054
   58PPPE   H9141564   3.768   3.431   8.972
   58PPPE  C21041565   3.812   3.366   9.168
   58PPPE  H10141566   3.895   3.438   9.177
   58PPPE  C21141567   3.791   3.280   9.290
   58PPPE  H11R41568   3.885   3.277   9.349
   58PPPE  H11S41569   3.767   3.175   9.264
   58PPPE  C21241570   3.682   3.335   9.383
   58PPPE  H12R41571   3.582   3.311   9.339
   58PPPE  H12S41572   3.690   3.445   9.390
   58PPPE  C21341573   3.689   3.278   9.526
   58PPPE  H13R41574   3.705   3.168   9.523
   58PPPE  H13S41575   3.592   3.295   9.576
   58PPPE  C21441576   3.797   3.347   9.610
   58PPPE  H14R41577   3.788   3.457   9.597
   58PPPE  H14S41578   3.898   3.318   9.575
   58PPPE  C21541579   3.785   3.317   9.760
   58PPPE  H15R41580   3.797   3.208   9.777
   58PPPE  H15S41581   3.683   3.345   9.795
   58PPPE  C21641582   3.889   3.393   9.844
   58PPPE  H16R41583   3.873   3.374   9.952
   58PPPE  H16S41584   3.992   3.362   9.818
   58PPPE  H16T41585   3.880   3.503   9.827
   58PPPE   C3341586   3.685   3.819   8.676
   58PPPE   H3X41587   3.653   3.717   8.648
   58PPPE   H3Y41588   3.598   3.870   8.723
   58PPPE   C3441589   3.798   3.806   8.778
   58PPPE   H4X41590   3.830   3.906   8.814
   58PPPE   H4Y41591   3.885   3.758   8.728
   58PPPE   C3541592   3.759   3.719   8.898
   58PPPE   H5X41593   3.849   3.695   8.958
   58PPPE   H5Y41594   3.719   3.622   8.861
   58PPPE   C3641595   3.658   3.784   8.994
   58PPPE   H6X41596   3.561   3.798   8.942
   58PPPE   H6Y41597   3.696   3.883   9.026
   58PPPE   C3741598   3.638   3.696   9.118
   58PPPE   H7X41599   3.736   3.677   9.167
   58PPPE   H7Y41600   3.597   3.598   9.086
   58PPPE   C3841601   3.542   3.755   9.222
   58PPPE   H8X41602   3.586   3.847   9.265
   58PPPE   H8Y41603   3.532   3.682   9.305
   58PPPE   C3941604   3.402   3.786   9.167
   58PPPE   H9X41605   3.369   3.702   9.102
   58PPPE   H9Y41606   3.408   3.877   9.104
   58PPPE  C31041607   3.297   3.808   9.277
   58PPPE  H10X41608   3.273   3.711   9.325
   58PPPE  H10Y41609   3.205   3.847   9.230
   58PPPE  C31141610   3.345   3.905   9.385
   58PPPE  H11X41611   3.386   3.996   9.335
   58PPPE  H11Y41612   3.430   3.861   9.442
   58PPPE  C31241613   3.235   3.947   9.483
   58PPPE  H12X41614   3.134   3.922   9.443
   58PPPE  H12Y41615   3.239   4.058   9.493
   58PPPE  C31341616   3.253   3.888   9.623
   58PPPE  H13X41617   3.361   3.891   9.650
   58PPPE  H13Y41618   3.218   3.782   9.622
   58PPPE  C31441619   3.180   3.966   9.732
   58PPPE  H14X41620   3.071   3.968   9.708
   58PPPE  H14Y41621   3.220   4.070   9.729
   58PPPE  C31541622   3.200   3.920   9.877
   58PPPE  H15X41623   3.127   3.973   9.941
   58PPPE  H15Y41624   3.301   3.953   9.910
   58PPPE  C31641625   3.188   3.770   9.900
   58PPPE  H16X41626   3.152   3.748  10.003
   58PPPE  H16Y41627   3.115   3.724   9.829
   58PPPE  H16Z41628   3.285   3.719   9.886
   59PPPE     N41629   4.396   2.698   7.841
   59PPPE   HN141630   4.405   2.720   7.942
   59PPPE   HN241631   4.295   2.692   7.819
   59PPPE   HN341632   4.442   2.607   7.821
   59PPPE   C1241633   4.457   2.808   7.756
   59PPPE  H12A41634   4.431   2.787   7.651
   59PPPE  H12B41635   4.568   2.803   7.769
   59PPPE   C1141636   4.405   2.948   7.795
   59PPPE  H11A41637   4.451   3.022   7.726
   59PPPE  H11B41638   4.439   2.972   7.898
   59PPPE     P41639   4.181   3.087   7.796
   59PPPE   O1341640   4.265   3.197   7.741
   59PPPE   O1441641   4.052   3.063   7.728
   59PPPE   O1141642   4.157   3.111   7.952
   59PPPE   O1241643   4.263   2.951   7.787
   59PPPE    C141644   4.211   3.023   8.050
   59PPPE    HA41645   4.311   3.058   8.084
   59PPPE    HB41646   4.222   2.920   8.009
   59PPPE    C241647   4.121   3.001   8.176
   59PPPE    HS41648   4.016   3.008   8.143
   59PPPE   O2141649   4.150   3.103   8.275
   59PPPE   C2141650   4.067   3.105   8.379
   59PPPE   O2241651   3.967   3.036   8.391
   59PPPE   C2241652   4.116   3.211   8.478
   59PPPE   H2R41653   4.107   3.308   8.425
   59PPPE   H2S41654   4.223   3.191   8.499
   59PPPE    C341655   4.144   2.856   8.232
   59PPPE    HX41656   4.067   2.834   8.309
   59PPPE    HY41657   4.129   2.782   8.152
   59PPPE   O3141658   4.273   2.842   8.294
   59PPPE   C3141659   4.377   2.803   8.222
   59PPPE   O3241660   4.378   2.775   8.103
   59PPPE   C3241661   4.503   2.810   8.307
   59PPPE   H2X41662   4.561   2.899   8.273
   59PPPE   H2Y41663   4.561   2.719   8.284
   59PPPE   C2341664   4.039   3.222   8.613
   59PPPE   H3R41665   3.930   3.201   8.601
   59PPPE   H3S41666   4.048   3.328   8.646
   59PPPE   C2441667   4.099   3.134   8.723
   59PPPE   H4R41668   4.210   3.143   8.721
   59PPPE   H4S41669   4.074   3.028   8.700
   59PPPE   C2541670   4.052   3.164   8.867
   59PPPE   H5R41671   4.104   3.096   8.937
   59PPPE   H5S41672   3.944   3.141   8.875
   59PPPE   C2641673   4.074   3.309   8.917
   59PPPE   H6R41674   4.033   3.317   9.020
   59PPPE   H6S41675   4.013   3.377   8.854
   59PPPE   C2741676   4.219   3.358   8.919
   59PPPE   H7R41677   4.219   3.468   8.899
   59PPPE   H7S41678   4.276   3.312   8.835
   59PPPE   C2841679   4.296   3.334   9.051
   59PPPE   H8R41680   4.396   3.378   9.035
   59PPPE   H8S41681   4.311   3.224   9.062
   59PPPE   C2941682   4.245   3.396   9.179
   59PPPE   H9141683   4.271   3.502   9.194
   59PPPE  C21041684   4.176   3.333   9.274
   59PPPE  H10141685   4.144   3.389   9.364
   59PPPE  C21141686   4.136   3.188   9.271
   59PPPE  H11R41687   4.210   3.124   9.219
   59PPPE  H11S41688   4.041   3.177   9.214
   59PPPE  C21241689   4.114   3.132   9.413
   59PPPE  H12R41690   4.059   3.207   9.474
   59PPPE  H12S41691   4.211   3.113   9.463
   59PPPE  C21341692   4.028   3.005   9.414
   59PPPE  H13R41693   4.091   2.917   9.388
   59PPPE  H13S41694   3.949   3.014   9.336
   59PPPE  C21441695   3.958   2.984   9.548
   59PPPE  H14R41696   3.888   2.898   9.540
   59PPPE  H14S41697   3.898   3.074   9.572
   59PPPE  C21541698   4.055   2.960   9.665
   59PPPE  H15R41699   4.128   3.043   9.671
   59PPPE  H15S41700   4.111   2.866   9.644
   59PPPE  C21641701   3.983   2.949   9.799
   59PPPE  H16R41702   3.944   3.048   9.831
   59PPPE  H16S41703   3.897   2.879   9.792
   59PPPE  H16T41704   4.051   2.912   9.878
   59PPPE   C3341705   4.480   2.819   8.460
   59PPPE   H3X41706   4.576   2.795   8.511
   59PPPE   H3Y41707   4.407   2.742   8.494
   59PPPE   C3441708   4.435   2.956   8.512
   59PPPE   H4X41709   4.324   2.963   8.507
   59PPPE   H4Y41710   4.477   3.036   8.448
   59PPPE   C3541711   4.481   2.980   8.656
   59PPPE   H5X41712   4.443   3.078   8.693
   59PPPE   H5Y41713   4.592   2.987   8.655
   59PPPE   C3641714   4.446   2.870   8.756
   59PPPE   H6X41715   4.526   2.867   8.833
   59PPPE   H6Y41716   4.444   2.769   8.710
   59PPPE   C3741717   4.312   2.895   8.827
   59PPPE   H7X41718   4.232   2.887   8.750
   59PPPE   H7Y41719   4.310   2.998   8.869
   59PPPE   C3841720   4.281   2.796   8.940
   59PPPE   H8X41721   4.321   2.695   8.915
   59PPPE   H8Y41722   4.170   2.787   8.946
   59PPPE   C3941723   4.329   2.841   9.078
   59PPPE   H9X41724   4.292   2.768   9.154
   59PPPE   H9Y41725   4.283   2.939   9.102
   59PPPE  C31041726   4.482   2.851   9.091
   59PPPE  H10X41727   4.518   2.935   9.027
   59PPPE  H10Y41728   4.527   2.757   9.055
   59PPPE  C31141729   4.529   2.877   9.233
   59PPPE  H11X41730   4.640   2.879   9.234
   59PPPE  H11Y41731   4.499   2.793   9.299
   59PPPE  C31241732   4.474   3.006   9.295
   59PPPE  H12X41733   4.363   3.003   9.295
   59PPPE  H12Y41734   4.507   3.094   9.236
   59PPPE  C31341735   4.519   3.021   9.441
   59PPPE  H13X41736   4.629   3.002   9.446
   59PPPE  H13Y41737   4.468   2.942   9.501
   59PPPE  C31441738   4.491   3.159   9.499
   59PPPE  H14X41739   4.415   3.210   9.438
   59PPPE  H14Y41740   4.585   3.218   9.493
   59PPPE  C31541741   4.442   3.156   9.645
   59PPPE  H15X41742   4.344   3.104   9.648
   59PPPE  H15Y41743   4.426   3.260   9.679
   59PPPE  C31641744   4.537   3.086   9.743
   59PPPE  H16X41745   4.636   3.135   9.744
   59PPPE  H16Y41746   4.494   3.089   9.845
   59PPPE  H16Z41747   4.550   2.979   9.715
   60PPPE     N41748   4.871   3.453   8.111
   60PPPE   HN141749   4.866   3.425   8.211
   60PPPE   HN241750   4.913   3.548   8.102
   60PPPE   HN341751   4.774   3.459   8.073
   60PPPE   C1241752   4.950   3.354   8.030
   60PPPE  H12A41753   4.897   3.256   8.035
   60PPPE  H12B41754   5.051   3.344   8.075
   60PPPE   C1141755   4.959   3.400   7.884
   60PPPE  H11A41756   5.007   3.320   7.823
   60PPPE  H11B41757   5.026   3.489   7.880
   60PPPE     P41758   4.813   3.506   7.696
   60PPPE   O1341759   4.865   3.421   7.587
   60PPPE   O1441760   4.674   3.553   7.680
   60PPPE   O1141761   4.907   3.631   7.715
   60PPPE   O1241762   4.829   3.430   7.834
   60PPPE    C141763   4.868   3.735   7.805
   60PPPE    HA41764   4.816   3.696   7.895
   60PPPE    HB41765   4.800   3.805   7.753
   60PPPE    C241766   4.991   3.814   7.856
   60PPPE    HS41767   5.049   3.845   7.767
   60PPPE   O2141768   5.071   3.726   7.938
   60PPPE   C2141769   5.188   3.774   7.979
   60PPPE   O2241770   5.228   3.888   7.964
   60PPPE   C2241771   5.264   3.659   8.046
   60PPPE   H2R41772   5.370   3.664   8.013
   60PPPE   H2S41773   5.223   3.563   8.008
   60PPPE    C341774   4.943   3.941   7.932
   60PPPE    HX41775   5.028   4.008   7.955
   60PPPE    HY41776   4.874   3.997   7.864
   60PPPE   O3141777   4.874   3.902   8.051
   60PPPE   C3141778   4.835   4.007   8.124
   60PPPE   O3241779   4.851   4.123   8.092
   60PPPE   C3241780   4.772   3.958   8.254
   60PPPE   H2X41781   4.664   3.986   8.249
   60PPPE   H2Y41782   4.819   4.013   8.337
   60PPPE   C2341783   5.259   3.657   8.201
   60PPPE   H3R41784   5.162   3.695   8.239
   60PPPE   H3S41785   5.339   3.724   8.240
   60PPPE   C2441786   5.281   3.515   8.255
   60PPPE   H4R41787   5.369   3.471   8.204
   60PPPE   H4S41788   5.193   3.451   8.230
   60PPPE   C2541789   5.307   3.506   8.406
   60PPPE   H5R41790   5.399   3.562   8.434
   60PPPE   H5S41791   5.326   3.399   8.430
   60PPPE   C2641792   5.189   3.554   8.492
   60PPPE   H6R41793   5.094   3.532   8.440
   60PPPE   H6S41794   5.197   3.664   8.504
   60PPPE   C2741795   5.185   3.486   8.629
   60PPPE   H7R41796   5.282   3.501   8.682
   60PPPE   H7S41797   5.174   3.376   8.614
   60PPPE   C2841798   5.069   3.536   8.717
   60PPPE   H8R41799   5.062   3.471   8.807
   60PPPE   H8S41800   4.974   3.524   8.662
   60PPPE   C2941801   5.089   3.680   8.756
   60PPPE   H9141802   5.029   3.753   8.699
   60PPPE  C21041803   5.170   3.723   8.853
   60PPPE  H10141804   5.176   3.831   8.874
   60PPPE  C21141805   5.257   3.637   8.941
   60PPPE  H11R41806   5.364   3.649   8.915
   60PPPE  H11S41807   5.232   3.529   8.932
   60PPPE  C21241808   5.238   3.677   9.088
   60PPPE  H12R41809   5.287   3.599   9.151
   60PPPE  H12S41810   5.130   3.677   9.116
   60PPPE  C21341811   5.299   3.814   9.122
   60PPPE  H13R41812   5.237   3.894   9.076
   60PPPE  H13S41813   5.401   3.820   9.077
   60PPPE  C21441814   5.309   3.839   9.272
   60PPPE  H14R41815   5.207   3.833   9.314
   60PPPE  H14S41816   5.347   3.943   9.289
   60PPPE  C21541817   5.398   3.739   9.347
   60PPPE  H15R41818   5.489   3.719   9.287
   60PPPE  H15S41819   5.343   3.643   9.357
   60PPPE  C21641820   5.439   3.787   9.486
   60PPPE  H16R41821   5.507   3.714   9.535
   60PPPE  H16S41822   5.489   3.886   9.483
   60PPPE  H16T41823   5.348   3.798   9.549
   60PPPE   C3341824   4.785   3.805   8.277
   60PPPE   H3X41825   4.890   3.782   8.307
   60PPPE   H3Y41826   4.763   3.748   8.185
   60PPPE   C3441827   4.688   3.755   8.384
   60PPPE   H4X41828   4.697   3.645   8.393
   60PPPE   H4Y41829   4.584   3.779   8.356
   60PPPE   C3541830   4.721   3.817   8.520
   60PPPE   H5X41831   4.704   3.927   8.518
   60PPPE   H5Y41832   4.828   3.800   8.540
   60PPPE   C3641833   4.640   3.757   8.636
   60PPPE   H6X41834   4.623   3.649   8.617
   60PPPE   H6Y41835   4.541   3.807   8.642
   60PPPE   C3741836   4.715   3.772   8.769
   60PPPE   H7X41837   4.801   3.702   8.770
   60PPPE   H7Y41838   4.646   3.742   8.852
   60PPPE   C3841839   4.767   3.914   8.793
   60PPPE   H8X41840   4.681   3.984   8.794
   60PPPE   H8Y41841   4.834   3.946   8.710
   60PPPE   C3941842   4.848   3.928   8.923
   60PPPE   H9X41843   4.886   4.032   8.929
   60PPPE   H9Y41844   4.936   3.861   8.919
   60PPPE  C31041845   4.768   3.897   9.050
   60PPPE  H10X41846   4.830   3.924   9.138
   60PPPE  H10Y41847   4.749   3.788   9.056
   60PPPE  C31141848   4.633   3.971   9.057
   60PPPE  H11X41849   4.567   3.932   8.977
   60PPPE  H11Y41850   4.648   4.079   9.040
   60PPPE  C31241851   4.563   3.950   9.191
   60PPPE  H12X41852   4.568   3.841   9.215
   60PPPE  H12Y41853   4.456   3.977   9.183
   60PPPE  C31341854   4.626   4.031   9.305
   60PPPE  H13X41855   4.561   4.118   9.329
   60PPPE  H13Y41856   4.726   4.070   9.276
   60PPPE  C31441857   4.643   3.943   9.429
   60PPPE  H14X41858   4.726   3.871   9.412
   60PPPE  H14Y41859   4.549   3.885   9.443
   60PPPE  C31541860   4.669   4.018   9.559
   60PPPE  H15X41861   4.588   4.093   9.574
   60PPPE  H15Y41862   4.765   4.073   9.555
   60PPPE  C31641863   4.670   3.919   9.676
   60PPPE  H16X41864   4.759   3.854   9.670
   60PPPE  H16Y41865   4.670   3.973   9.774
   60PPPE  H16Z41866   4.580   3.854   9.673
   61PPPE     N41867   5.263   4.148   7.862
   61PPPE   HN141868   5.215   4.229   7.906
   61PPPE   HN241869   5.254   4.064   7.923
   61PPPE   HN341870   5.363   4.171   7.850
   61PPPE   C1241871   5.195   4.121   7.729
   61PPPE  H12A41872   5.180   4.012   7.722
   61PPPE  H12B41873   5.264   4.154   7.648
   61PPPE   C1141874   5.059   4.193   7.714
   61PPPE  H11A41875   5.001   4.194   7.809
   61PPPE  H11B41876   4.999   4.134   7.642
   61PPPE     P41877   5.112   4.449   7.748
   61PPPE   O1341878   5.237   4.500   7.688
   61PPPE   O1441879   4.994   4.537   7.749
   61PPPE   O1141880   5.142   4.382   7.889
   61PPPE   O1241881   5.075   4.324   7.660
   61PPPE    C141882   5.072   4.414   8.010
   61PPPE    HA41883   4.973   4.363   8.014
   61PPPE    HB41884   5.055   4.523   8.019
   61PPPE    C241885   5.157   4.368   8.132
   61PPPE    HS41886   5.257   4.414   8.117
   61PPPE   O2141887   5.165   4.223   8.130
   61PPPE   C2141888   5.257   4.179   8.215
   61PPPE   O2241889   5.362   4.236   8.238
   61PPPE   C2241890   5.207   4.050   8.279
   61PPPE   H2R41891   5.178   3.980   8.198
   61PPPE   H2S41892   5.116   4.074   8.339
   61PPPE    C341893   5.105   4.418   8.272
   61PPPE    HX41894   5.193   4.418   8.340
   61PPPE    HY41895   5.070   4.523   8.262
   61PPPE   O3141896   5.000   4.333   8.326
   61PPPE   C3141897   4.972   4.359   8.455
   61PPPE   O3241898   5.029   4.443   8.522
   61PPPE   C3241899   4.865   4.261   8.506
   61PPPE   H2X41900   4.916   4.179   8.561
   61PPPE   H2Y41901   4.815   4.218   8.417
   61PPPE   C2341902   5.313   3.983   8.369
   61PPPE   H3R41903   5.406   3.968   8.311
   61PPPE   H3S41904   5.278   3.883   8.401
   61PPPE   C2441905   5.347   4.063   8.496
   61PPPE   H4R41906   5.376   4.168   8.473
   61PPPE   H4S41907   5.438   4.016   8.538
   61PPPE   C2541908   5.243   4.062   8.608
   61PPPE   H5R41909   5.181   3.970   8.604
   61PPPE   H5S41910   5.176   4.150   8.597
   61PPPE   C2641911   5.315   4.067   8.744
   61PPPE   H6R41912   5.405   4.132   8.732
   61PPPE   H6S41913   5.350   3.965   8.769
   61PPPE   C2741914   5.233   4.123   8.861
   61PPPE   H7R41915   5.164   4.045   8.898
   61PPPE   H7S41916   5.171   4.207   8.824
   61PPPE   C2841917   5.322   4.174   8.977
   61PPPE   H8R41918   5.402   4.100   8.999
   61PPPE   H8S41919   5.257   4.178   9.068
   61PPPE   C2941920   5.377   4.312   8.950
   61PPPE   H9141921   5.335   4.360   8.860
   61PPPE  C21041922   5.469   4.382   9.020
   61PPPE  H10141923   5.496   4.482   8.984
   61PPPE  C21141924   5.542   4.341   9.146
   61PPPE  H11R41925   5.610   4.422   9.177
   61PPPE  H11S41926   5.609   4.256   9.121
   61PPPE  C21241927   5.459   4.300   9.269
   61PPPE  H12R41928   5.525   4.233   9.330
   61PPPE  H12S41929   5.369   4.240   9.243
   61PPPE  C21341930   5.422   4.415   9.364
   61PPPE  H13R41931   5.327   4.463   9.331
   61PPPE  H13S41932   5.502   4.491   9.362
   61PPPE  C21441933   5.409   4.364   9.508
   61PPPE  H14R41934   5.503   4.310   9.535
   61PPPE  H14S41935   5.326   4.291   9.515
   61PPPE  C21541936   5.388   4.475   9.611
   61PPPE  H15R41937   5.292   4.527   9.590
   61PPPE  H15S41938   5.469   4.551   9.600
   61PPPE  C21641939   5.388   4.422   9.754
   61PPPE  H16R41940   5.486   4.375   9.779
   61PPPE  H16S41941   5.370   4.504   9.826
   61PPPE  H16T41942   5.308   4.346   9.768
   61PPPE   C3341943   4.756   4.326   8.595
   61PPPE   H3X41944   4.657   4.288   8.562
   61PPPE   H3Y41945   4.753   4.436   8.578
   61PPPE   C3441946   4.766   4.298   8.746
   61PPPE   H4X41947   4.742   4.192   8.766
   61PPPE   H4Y41948   4.688   4.359   8.797
   61PPPE   C3541949   4.901   4.330   8.812
   61PPPE   H5X41950   4.937   4.430   8.780
   61PPPE   H5Y41951   4.976   4.256   8.778
   61PPPE   C3641952   4.893   4.330   8.966
   61PPPE   H6X41953   4.876   4.225   9.000
   61PPPE   H6Y41954   4.804   4.389   8.999
   61PPPE   C3741955   5.018   4.389   9.033
   61PPPE   H7X41956   5.025   4.497   9.011
   61PPPE   H7Y41957   5.107   4.340   8.988
   61PPPE   C3841958   5.024   4.368   9.185
   61PPPE   H8X41959   4.948   4.430   9.236
   61PPPE   H8Y41960   5.124   4.402   9.221
   61PPPE   C3941961   5.004   4.221   9.226
   61PPPE   H9X41962   5.055   4.155   9.152
   61PPPE   H9Y41963   4.896   4.198   9.224
   61PPPE  C31041964   5.059   4.187   9.365
   61PPPE  H10X41965   5.014   4.253   9.442
   61PPPE  H10Y41966   5.169   4.205   9.366
   61PPPE  C31141967   5.031   4.041   9.402
   61PPPE  H11X41968   5.064   3.977   9.317
   61PPPE  H11Y41969   4.921   4.027   9.412
   61PPPE  C31241970   5.100   3.999   9.531
   61PPPE  H12X41971   5.059   4.059   9.615
   61PPPE  H12Y41972   5.209   4.021   9.525
   61PPPE  C31341973   5.081   3.850   9.563
   61PPPE  H13X41974   5.144   3.785   9.499
   61PPPE  H13Y41975   4.975   3.823   9.541
   61PPPE  C31441976   5.107   3.817   9.710
   61PPPE  H14X41977   5.092   3.708   9.728
   61PPPE  H14Y41978   5.024   3.870   9.762
   61PPPE  C31541979   5.239   3.863   9.774
   61PPPE  H15X41980   5.219   3.924   9.865
   61PPPE  H15Y41981   5.295   3.930   9.705
   61PPPE  C31641982   5.327   3.748   9.819
   61PPPE  H16X41983   5.336   3.674   9.736
   61PPPE  H16Y41984   5.429   3.782   9.847
   61PPPE  H16Z41985   5.282   3.696   9.906
   62PPPE     N41986   3.178   4.196   7.841
   62PPPE   HN141987   3.122   4.110   7.862
   62PPPE   HN241988   3.175   4.204   7.738
   62PPPE   HN341989   3.276   4.185   7.874
   62PPPE   C1241990   3.107   4.313   7.904
   62PPPE  H12A41991   3.162   4.405   7.874
   62PPPE  H12B41992   3.112   4.301   8.014
   62PPPE   C1141993   2.959   4.321   7.859
   62PPPE  H11A41994   2.952   4.335   7.749
   62PPPE  H11B41995   2.915   4.412   7.905
   62PPPE     P41996   2.843   4.089   7.811
   62PPPE   O1341997   2.745   4.137   7.712
   62PPPE   O1441998   2.971   4.036   7.758
   62PPPE   O1141999   2.781   3.982   7.909
   62PPPE   O1242000   2.885   4.208   7.906
   62PPPE    C142001   2.857   3.934   8.022
   62PPPE    HA42002   2.963   3.967   8.021
   62PPPE    HB42003   2.857   3.823   8.020
   62PPPE    C242004   2.795   3.979   8.158
   62PPPE    HS42005   2.692   3.938   8.162
   62PPPE   O2142006   2.800   4.122   8.169
   62PPPE   C2142007   2.684   4.185   8.174
   62PPPE   O2242008   2.573   4.135   8.163
   62PPPE   C2242009   2.709   4.333   8.205
   62PPPE   H2R42010   2.660   4.394   8.126
   62PPPE   H2S42011   2.818   4.351   8.200
   62PPPE    C342012   2.875   3.918   8.276
   62PPPE    HX42013   2.878   3.807   8.262
   62PPPE    HY42014   2.980   3.953   8.269
   62PPPE   O3142015   2.813   3.946   8.402
   62PPPE   C3142016   2.875   4.031   8.484
   62PPPE   O3242017   2.976   4.093   8.458
   62PPPE   C3242018   2.795   4.036   8.614
   62PPPE   H2X42019   2.769   3.931   8.639
   62PPPE   H2Y42020   2.701   4.091   8.592
   62PPPE   C2342021   2.655   4.372   8.345
   62PPPE   H3R42022   2.665   4.286   8.416
   62PPPE   H3S42023   2.546   4.396   8.337
   62PPPE   C2442024   2.730   4.489   8.409
   62PPPE   H4R42025   2.679   4.517   8.504
   62PPPE   H4S42026   2.725   4.578   8.343
   62PPPE   C2542027   2.877   4.456   8.440
   62PPPE   H5R42028   2.943   4.525   8.382
   62PPPE   H5S42029   2.899   4.353   8.406
   62PPPE   C2642030   2.915   4.464   8.588
   62PPPE   H6R42031   2.846   4.400   8.648
   62PPPE   H6S42032   2.903   4.568   8.625
   62PPPE   C2742033   3.060   4.417   8.607
   62PPPE   H7R42034   3.124   4.476   8.538
   62PPPE   H7S42035   3.066   4.311   8.576
   62PPPE   C2842036   3.114   4.432   8.750
   62PPPE   H8R42037   3.048   4.376   8.820
   62PPPE   H8S42038   3.112   4.539   8.780
   62PPPE   C2942039   3.255   4.377   8.755
   62PPPE   H9142040   3.314   4.392   8.663
   62PPPE  C21042041   3.312   4.316   8.859
   62PPPE  H10142042   3.416   4.282   8.850
   62PPPE  C21142043   3.249   4.290   8.993
   62PPPE  H11R42044   3.179   4.203   8.989
   62PPPE  H11S42045   3.190   4.378   9.027
   62PPPE  C21242046   3.359   4.263   9.096
   62PPPE  H12R42047   3.430   4.348   9.095
   62PPPE  H12S42048   3.416   4.171   9.071
   62PPPE  C21342049   3.307   4.249   9.240
   62PPPE  H13R42050   3.266   4.147   9.257
   62PPPE  H13S42051   3.221   4.318   9.253
   62PPPE  C21442052   3.416   4.284   9.341
   62PPPE  H14R42053   3.463   4.380   9.310
   62PPPE  H14S42054   3.495   4.205   9.340
   62PPPE  C21542055   3.365   4.303   9.484
   62PPPE  H15R42056   3.260   4.266   9.484
   62PPPE  H15S42057   3.359   4.411   9.510
   62PPPE  C21642058   3.445   4.228   9.591
   62PPPE  H16R42059   3.550   4.264   9.593
   62PPPE  H16S42060   3.400   4.245   9.691
   62PPPE  H16T42061   3.446   4.119   9.571
   62PPPE   C3342062   2.863   4.099   8.737
   62PPPE   H3X42063   2.889   4.206   8.717
   62PPPE   H3Y42064   2.958   4.046   8.761
   62PPPE   C3442065   2.769   4.091   8.859
   62PPPE   H4X42066   2.753   3.984   8.882
   62PPPE   H4Y42067   2.670   4.134   8.832
   62PPPE   C3542068   2.820   4.160   8.986
   62PPPE   H5X42069   2.926   4.132   9.003
   62PPPE   H5Y42070   2.762   4.121   9.073
   62PPPE   C3642071   2.807   4.313   8.989
   62PPPE   H6X42072   2.864   4.358   8.905
   62PPPE   H6Y42073   2.852   4.348   9.084
   62PPPE   C3742074   2.662   4.366   8.981
   62PPPE   H7X42075   2.601   4.313   9.057
   62PPPE   H7Y42076   2.619   4.340   8.882
   62PPPE   C3842077   2.649   4.518   9.000
   62PPPE   H8X42078   2.542   4.546   8.993
   62PPPE   H8Y42079   2.702   4.569   8.916
   62PPPE   C3942080   2.705   4.574   9.132
   62PPPE   H9X42081   2.693   4.684   9.134
   62PPPE   H9Y42082   2.814   4.552   9.137
   62PPPE  C31042083   2.637   4.517   9.257
   62PPPE  H10X42084   2.625   4.408   9.241
   62PPPE  H10Y42085   2.535   4.562   9.265
   62PPPE  C31142086   2.715   4.539   9.388
   62PPPE  H11X42087   2.715   4.647   9.415
   62PPPE  H11Y42088   2.820   4.510   9.368
   62PPPE  C31242089   2.668   4.456   9.509
   62PPPE  H12X42090   2.589   4.508   9.567
   62PPPE  H12Y42091   2.755   4.447   9.578
   62PPPE  C31342092   2.622   4.314   9.471
   62PPPE  H13X42093   2.692   4.277   9.393
   62PPPE  H13Y42094   2.521   4.315   9.427
   62PPPE  C31442095   2.627   4.213   9.586
   62PPPE  H14X42096   2.536   4.220   9.649
   62PPPE  H14Y42097   2.713   4.237   9.652
   62PPPE  C31542098   2.648   4.071   9.534
   62PPPE  H15X42099   2.719   4.071   9.449
   62PPPE  H15Y42100   2.551   4.035   9.493
   62PPPE  C31642101   2.696   3.972   9.639
   62PPPE  H16X42102   2.688   3.868   9.600
   62PPPE  H16Y42103   2.803   3.991   9.663
   62PPPE  H16Z42104   2.637   3.981   9.732
   63PPPE     N42105   3.664   5.275   7.718
   63PPPE   HN142106   3.739   5.346   7.709
   63PPPE   HN242107   3.649   5.236   7.623
   63PPPE   HN342108   3.579   5.323   7.756
   63PPPE   C1242109   3.714   5.169   7.812
   63PPPE  H12A42110   3.757   5.087   7.750
   63PPPE  H12B42111   3.628   5.130   7.871
   63PPPE   C1142112   3.824   5.226   7.903
   63PPPE  H11A42113   3.855   5.147   7.975
   63PPPE  H11B42114   3.781   5.309   7.964
   63PPPE     P42115   3.966   5.418   7.793
   63PPPE   O1342116   4.105   5.431   7.743
   63PPPE   O1442117   3.858   5.455   7.699
   63PPPE   O1142118   3.942   5.491   7.932
   63PPPE   O1242119   3.938   5.266   7.827
   63PPPE    C142120   4.013   5.450   8.050
   63PPPE    HA42121   4.111   5.501   8.053
   63PPPE    HB42122   4.033   5.341   8.051
   63PPPE    C242123   3.942   5.481   8.186
   63PPPE    HS42124   4.001   5.431   8.266
   63PPPE   O2142125   3.804   5.439   8.185
   63PPPE   C2142126   3.781   5.319   8.235
   63PPPE   O2242127   3.865   5.239   8.270
   63PPPE   C2242128   3.630   5.290   8.233
   63PPPE   H2R42129   3.614   5.190   8.280
   63PPPE   H2S42130   3.600   5.284   8.126
   63PPPE    C342131   3.946   5.633   8.221
   63PPPE    HX42132   4.041   5.674   8.181
   63PPPE    HY42133   3.864   5.686   8.169
   63PPPE   O3142134   3.947   5.652   8.364
   63PPPE   C3142135   3.830   5.679   8.422
   63PPPE   O3242136   3.724   5.692   8.364
   63PPPE   C3242137   3.849   5.694   8.573
   63PPPE   H2X42138   3.751   5.722   8.616
   63PPPE   H2Y42139   3.920   5.778   8.589
   63PPPE   C2342140   3.542   5.396   8.304
   63PPPE   H3R42141   3.438   5.384   8.268
   63PPPE   H3S42142   3.574   5.499   8.276
   63PPPE   C2442143   3.540   5.382   8.457
   63PPPE   H4R42144   3.642   5.397   8.497
   63PPPE   H4S42145   3.506   5.280   8.485
   63PPPE   C2542146   3.445   5.485   8.520
   63PPPE   H5R42147   3.341   5.465   8.489
   63PPPE   H5S42148   3.474   5.585   8.480
   63PPPE   C2642149   3.454   5.491   8.673
   63PPPE   H6R42150   3.404   5.586   8.704
   63PPPE   H6S42151   3.560   5.497   8.704
   63PPPE   C2742152   3.381   5.378   8.747
   63PPPE   H7R42153   3.426   5.280   8.720
   63PPPE   H7S42154   3.275   5.376   8.714
   63PPPE   C2842155   3.383   5.398   8.900
   63PPPE   H8R42156   3.326   5.315   8.947
   63PPPE   H8S42157   3.330   5.491   8.926
   63PPPE   C2942158   3.525   5.398   8.954
   63PPPE   H9142159   3.592   5.334   8.895
   63PPPE  C21042160   3.576   5.465   9.058
   63PPPE  H10142161   3.682   5.449   9.082
   63PPPE  C21142162   3.507   5.561   9.152
   63PPPE  H11R42163   3.415   5.603   9.105
   63PPPE  H11S42164   3.575   5.647   9.169
   63PPPE  C21242165   3.466   5.507   9.291
   63PPPE  H12R42166   3.475   5.591   9.364
   63PPPE  H12S42167   3.538   5.428   9.322
   63PPPE  C21342168   3.322   5.454   9.299
   63PPPE  H13R42169   3.313   5.366   9.232
   63PPPE  H13S42170   3.252   5.532   9.262
   63PPPE  C21442171   3.277   5.413   9.441
   63PPPE  H14R42172   3.355   5.349   9.488
   63PPPE  H14S42173   3.185   5.352   9.433
   63PPPE  C21542174   3.249   5.530   9.536
   63PPPE  H15R42175   3.169   5.594   9.490
   63PPPE  H15S42176   3.341   5.591   9.544
   63PPPE  C21642177   3.204   5.493   9.677
   63PPPE  H16R42178   3.216   5.579   9.746
   63PPPE  H16S42179   3.097   5.463   9.679
   63PPPE  H16T42180   3.265   5.408   9.717
   63PPPE   C3342181   3.903   5.568   8.645
   63PPPE   H3X42182   4.002   5.541   8.602
   63PPPE   H3Y42183   3.835   5.482   8.630
   63PPPE   C3442184   3.920   5.594   8.796
   63PPPE   H4X42185   3.820   5.609   8.842
   63PPPE   H4Y42186   3.978   5.688   8.809
   63PPPE   C3542187   3.994   5.483   8.871
   63PPPE   H5X42188   4.013   5.518   8.975
   63PPPE   H5Y42189   4.093   5.467   8.824
   63PPPE   C3642190   3.919   5.349   8.877
   63PPPE   H6X42191   3.902   5.315   8.773
   63PPPE   H6Y42192   3.820   5.363   8.925
   63PPPE   C3742193   3.998   5.240   8.951
   63PPPE   H7X42194   4.101   5.239   8.911
   63PPPE   H7Y42195   3.953   5.141   8.931
   63PPPE   C3842196   4.004   5.259   9.104
   63PPPE   H8X42197   4.010   5.367   9.131
   63PPPE   H8Y42198   4.098   5.211   9.139
   63PPPE   C3942199   3.888   5.193   9.180
   63PPPE   H9X42200   3.877   5.089   9.140
   63PPPE   H9Y42201   3.792   5.245   9.160
   63PPPE  C31042202   3.915   5.182   9.331
   63PPPE  H10X42203   4.024   5.196   9.350
   63PPPE  H10Y42204   3.890   5.079   9.364
   63PPPE  C31142205   3.836   5.279   9.420
   63PPPE  H11X42206   3.878   5.273   9.523
   63PPPE  H11Y42207   3.731   5.243   9.426
   63PPPE  C31242208   3.832   5.424   9.374
   63PPPE  H12X42209   3.769   5.430   9.282
   63PPPE  H12Y42210   3.934   5.458   9.346
   63PPPE  C31342211   3.775   5.522   9.478
   63PPPE  H13X42212   3.730   5.609   9.425
   63PPPE  H13Y42213   3.859   5.561   9.539
   63PPPE  C31442214   3.672   5.463   9.577
   63PPPE  H14X42215   3.721   5.387   9.640
   63PPPE  H14Y42216   3.589   5.412   9.523
   63PPPE  C31542217   3.612   5.571   9.668
   63PPPE  H15X42218   3.542   5.634   9.609
   63PPPE  H15Y42219   3.694   5.639   9.702
   63PPPE  C31642220   3.543   5.517   9.793
   63PPPE  H16X42221   3.495   5.599   9.850
   63PPPE  H16Y42222   3.465   5.442   9.766
   63PPPE  H16Z42223   3.616   5.467   9.860
   64PPPE     N42224   3.714   2.582   7.825
   64PPPE   HN142225   3.740   2.594   7.725
   64PPPE   HN242226   3.797   2.595   7.886
   64PPPE   HN342227   3.681   2.484   7.835
   64PPPE   C1242228   3.604   2.678   7.861
   64PPPE  H12A42229   3.636   2.780   7.831
   64PPPE  H12B42230   3.589   2.676   7.971
   64PPPE   C1142231   3.474   2.639   7.789
   64PPPE  H11A42232   3.434   2.546   7.835
   64PPPE  H11B42233   3.495   2.619   7.682
   64PPPE     P42234   3.227   2.725   7.815
   64PPPE   O1342235   3.163   2.856   7.831
   64PPPE   O1442236   3.184   2.647   7.697
   64PPPE   O1142237   3.218   2.637   7.947
   64PPPE   O1242238   3.383   2.749   7.796
   64PPPE    C142239   3.245   2.694   8.076
   64PPPE    HA42240   3.169   2.769   8.104
   64PPPE    HB42241   3.344   2.745   8.076
   64PPPE    C242242   3.251   2.586   8.191
   64PPPE    HS42243   3.281   2.490   8.143
   64PPPE   O2142244   3.118   2.571   8.249
   64PPPE   C2142245   3.104   2.471   8.340
   64PPPE   O2242246   3.194   2.399   8.376
   64PPPE   C2242247   2.954   2.462   8.380
   64PPPE   H2R42248   2.903   2.414   8.293
   64PPPE   H2S42249   2.919   2.567   8.386
   64PPPE    C342250   3.363   2.623   8.295
   64PPPE    HX42251   3.368   2.546   8.374
   64PPPE    HY42252   3.459   2.618   8.240
   64PPPE   O3142253   3.348   2.755   8.353
   64PPPE   C3142254   3.439   2.780   8.448
   64PPPE   O3242255   3.530   2.705   8.478
   64PPPE   C3242256   3.418   2.920   8.507
   64PPPE   H2X42257   3.315   2.952   8.479
   64PPPE   H2Y42258   3.491   2.989   8.459
   64PPPE   C2342259   2.897   2.397   8.512
   64PPPE   H3R42260   2.947   2.300   8.534
   64PPPE   H3S42261   2.790   2.375   8.493
   64PPPE   C2442262   2.900   2.488   8.637
   64PPPE   H4R42263   2.941   2.585   8.604
   64PPPE   H4S42264   2.975   2.445   8.706
   64PPPE   C2542265   2.770   2.519   8.718
   64PPPE   H5R42266   2.749   2.438   8.790
   64PPPE   H5S42267   2.688   2.521   8.643
   64PPPE   C2642268   2.765   2.658   8.790
   64PPPE   H6R42269   2.661   2.697   8.782
   64PPPE   H6S42270   2.829   2.730   8.735
   64PPPE   C2742271   2.807   2.672   8.939
   64PPPE   H7R42272   2.884   2.596   8.966
   64PPPE   H7S42273   2.721   2.651   9.006
   64PPPE   C2842274   2.864   2.812   8.974
   64PPPE   H8R42275   2.802   2.889   8.923
   64PPPE   H8S42276   2.966   2.820   8.931
   64PPPE   C2942277   2.867   2.843   9.122
   64PPPE   H9142278   2.781   2.899   9.160
   64PPPE  C21042279   2.963   2.807   9.210
   64PPPE  H10142280   2.953   2.840   9.315
   64PPPE  C21142281   3.087   2.728   9.179
   64PPPE  H11R42282   3.171   2.796   9.156
   64PPPE  H11S42283   3.069   2.666   9.089
   64PPPE  C21242284   3.134   2.632   9.290
   64PPPE  H12R42285   3.233   2.591   9.262
   64PPPE  H12S42286   3.063   2.546   9.296
   64PPPE  C21342287   3.144   2.692   9.431
   64PPPE  H13R42288   3.190   2.614   9.495
   64PPPE  H13S42289   3.042   2.712   9.469
   64PPPE  C21442290   3.228   2.820   9.446
   64PPPE  H14R42291   3.195   2.898   9.374
   64PPPE  H14S42292   3.333   2.794   9.424
   64PPPE  C21542293   3.225   2.878   9.589
   64PPPE  H15R42294   3.240   2.795   9.661
   64PPPE  H15S42295   3.124   2.920   9.608
   64PPPE  C21642296   3.331   2.985   9.613
   64PPPE  H16R42297   3.323   3.067   9.539
   64PPPE  H16S42298   3.321   3.028   9.715
   64PPPE  H16T42299   3.433   2.941   9.605
   64PPPE   C3342300   3.434   2.926   8.661
   64PPPE   H3X42301   3.541   2.924   8.690
   64PPPE   H3Y42302   3.387   2.836   8.708
   64PPPE   C3442303   3.365   3.050   8.720
   64PPPE   H4X42304   3.280   3.080   8.654
   64PPPE   H4Y42305   3.437   3.134   8.720
   64PPPE   C3542306   3.307   3.032   8.861
   64PPPE   H5X42307   3.222   2.961   8.860
   64PPPE   H5Y42308   3.267   3.130   8.893
   64PPPE   C3642309   3.408   2.984   8.966
   64PPPE   H6X42310   3.507   3.032   8.947
   64PPPE   H6Y42311   3.422   2.874   8.956
   64PPPE   C3742312   3.364   3.019   9.109
   64PPPE   H7X42313   3.266   2.971   9.130
   64PPPE   H7Y42314   3.348   3.128   9.118
   64PPPE   C3842315   3.465   2.977   9.218
   64PPPE   H8X42316   3.422   3.005   9.316
   64PPPE   H8Y42317   3.560   3.034   9.207
   64PPPE   C3942318   3.498   2.828   9.219
   64PPPE   H9X42319   3.552   2.799   9.126
   64PPPE   H9Y42320   3.403   2.771   9.221
   64PPPE  C31042321   3.582   2.790   9.342
   64PPPE  H10X42322   3.549   2.849   9.429
   64PPPE  H10Y42323   3.688   2.817   9.322
   64PPPE  C31142324   3.571   2.641   9.378
   64PPPE  H11X42325   3.597   2.582   9.288
   64PPPE  H11Y42326   3.466   2.614   9.407
   64PPPE  C31242327   3.667   2.603   9.492
   64PPPE  H12X42328   3.753   2.673   9.484
   64PPPE  H12Y42329   3.706   2.501   9.473
   64PPPE  C31342330   3.611   2.610   9.635
   64PPPE  H13X42331   3.511   2.660   9.637
   64PPPE  H13Y42332   3.680   2.674   9.694
   64PPPE  C31442333   3.604   2.473   9.705
   64PPPE  H14X42334   3.688   2.411   9.667
   64PPPE  H14Y42335   3.511   2.419   9.677
   64PPPE  C31542336   3.620   2.479   9.859
   64PPPE  H15X42337   3.642   2.583   9.891
   64PPPE  H15Y42338   3.709   2.418   9.885
   64PPPE  C31642339   3.505   2.424   9.943
   64PPPE  H16X42340   3.535   2.418  10.050
   64PPPE  H16Y42341   3.416   2.490   9.937
   64PPPE  H16Z42342   3.478   2.321   9.910
   65PPPE     N42343   2.802   3.538   7.763
   65PPPE   HN142344   2.759   3.588   7.682
   65PPPE   HN242345   2.879   3.597   7.802
   65PPPE   HN342346   2.838   3.447   7.730
   65PPPE   C1242347   2.696   3.506   7.865
   65PPPE  H12A42348   2.635   3.597   7.882
   65PPPE  H12B42349   2.747   3.478   7.960
   65PPPE   C1142350   2.611   3.388   7.816
   65PPPE  H11A42351   2.551   3.423   7.729
   65PPPE  H11B42352   2.541   3.357   7.896
   65PPPE     P42353   2.627   3.152   7.711
   65PPPE   O1342354   2.543   3.202   7.601
   65PPPE   O1442355   2.728   3.051   7.673
   65PPPE   O1142356   2.534   3.092   7.823
   65PPPE   O1242357   2.697   3.279   7.779
   65PPPE    C142358   2.592   3.041   7.944
   65PPPE    HA42359   2.674   3.106   7.981
   65PPPE    HB42360   2.634   2.939   7.928
   65PPPE    C242361   2.488   3.032   8.060
   65PPPE    HS42362   2.412   2.957   8.030
   65PPPE   O2142363   2.427   3.162   8.073
   65PPPE   C2142364   2.317   3.164   8.146
   65PPPE   O2242365   2.261   3.068   8.194
   65PPPE   C2242366   2.270   3.308   8.152
   65PPPE   H2R42367   2.177   3.315   8.092
   65PPPE   H2S42368   2.348   3.372   8.104
   65PPPE    C342369   2.553   2.987   8.194
   65PPPE    HX42370   2.476   2.982   8.274
   65PPPE    HY42371   2.587   2.882   8.176
   65PPPE   O3142372   2.667   3.069   8.227
   65PPPE   C3142373   2.675   3.116   8.351
   65PPPE   O3242374   2.592   3.102   8.439
   65PPPE   C3242375   2.808   3.192   8.364
   65PPPE   H2X42376   2.798   3.287   8.307
   65PPPE   H2Y42377   2.886   3.130   8.315
   65PPPE   C2342378   2.242   3.356   8.296
   65PPPE   H3R42379   2.156   3.300   8.338
   65PPPE   H3S42380   2.211   3.463   8.290
   65PPPE   C2442381   2.358   3.346   8.396
   65PPPE   H4R42382   2.451   3.391   8.356
   65PPPE   H4S42383   2.378   3.239   8.419
   65PPPE   C2542384   2.317   3.417   8.526
   65PPPE   H5R42385   2.217   3.381   8.556
   65PPPE   H5S42386   2.309   3.526   8.504
   65PPPE   C2642387   2.411   3.400   8.646
   65PPPE   H6R42388   2.513   3.434   8.618
   65PPPE   H6S42389   2.416   3.294   8.676
   65PPPE   C2742390   2.361   3.487   8.763
   65PPPE   H7R42391   2.257   3.457   8.789
   65PPPE   H7S42392   2.356   3.591   8.724
   65PPPE   C2842393   2.449   3.487   8.889
   65PPPE   H8R42394   2.428   3.581   8.945
   65PPPE   H8S42395   2.556   3.491   8.859
   65PPPE   C2942396   2.423   3.368   8.977
   65PPPE   H9142397   2.470   3.275   8.943
   65PPPE  C21042398   2.348   3.364   9.089
   65PPPE  H10142399   2.339   3.268   9.143
   65PPPE  C21142400   2.272   3.477   9.155
   65PPPE  H11R42401   2.164   3.450   9.157
   65PPPE  H11S42402   2.279   3.571   9.097
   65PPPE  C21242403   2.315   3.503   9.301
   65PPPE  H12R42404   2.318   3.408   9.358
   65PPPE  H12S42405   2.238   3.567   9.349
   65PPPE  C21342406   2.450   3.576   9.316
   65PPPE  H13R42407   2.442   3.674   9.266
   65PPPE  H13S42408   2.531   3.519   9.265
   65PPPE  C21442409   2.488   3.600   9.464
   65PPPE  H14R42410   2.395   3.607   9.525
   65PPPE  H14S42411   2.541   3.697   9.473
   65PPPE  C21542412   2.579   3.491   9.522
   65PPPE  H15R42413   2.681   3.503   9.479
   65PPPE  H15S42414   2.541   3.392   9.492
   65PPPE  C21642415   2.588   3.492   9.674
   65PPPE  H16R42416   2.613   3.594   9.712
   65PPPE  H16S42417   2.490   3.462   9.719
   65PPPE  H16T42418   2.665   3.421   9.710
   65PPPE   C3342419   2.853   3.222   8.509
   65PPPE   H3X42420   2.957   3.261   8.504
   65PPPE   H3Y42421   2.855   3.130   8.570
   65PPPE   C3442422   2.768   3.328   8.579
   65PPPE   H4X42423   2.677   3.280   8.621
   65PPPE   H4Y42424   2.734   3.404   8.505
   65PPPE   C3542425   2.842   3.402   8.692
   65PPPE   H5X42426   2.775   3.480   8.735
   65PPPE   H5Y42427   2.930   3.454   8.648
   65PPPE   C3642428   2.890   3.311   8.806
   65PPPE   H6X42429   2.953   3.229   8.766
   65PPPE   H6Y42430   2.802   3.265   8.854
   65PPPE   C3742431   2.972   3.389   8.910
   65PPPE   H7X42432   2.910   3.471   8.952
   65PPPE   H7Y42433   3.059   3.436   8.859
   65PPPE   C3842434   3.025   3.302   9.025
   65PPPE   H8X42435   3.085   3.366   9.094
   65PPPE   H8Y42436   3.093   3.224   8.985
   65PPPE   C3942437   2.916   3.233   9.108
   65PPPE   H9X42438   2.964   3.180   9.193
   65PPPE   H9Y42439   2.865   3.157   9.046
   65PPPE  C31042440   2.812   3.331   9.165
   65PPPE  H10X42441   2.747   3.370   9.084
   65PPPE  H10Y42442   2.865   3.417   9.211
   65PPPE  C31142443   2.723   3.267   9.274
   65PPPE  H11X42444   2.660   3.347   9.319
   65PPPE  H11Y42445   2.788   3.226   9.354
   65PPPE  C31242446   2.631   3.158   9.221
   65PPPE  H12X42447   2.689   3.092   9.153
   65PPPE  H12Y42448   2.548   3.201   9.161
   65PPPE  C31342449   2.575   3.069   9.333
   65PPPE  H13X42450   2.657   3.041   9.401
   65PPPE  H13Y42451   2.538   2.977   9.284
   65PPPE  C31442452   2.457   3.124   9.414
   65PPPE  H14X42453   2.362   3.083   9.372
   65PPPE  H14Y42454   2.450   3.235   9.404
   65PPPE  C31542455   2.467   3.086   9.562
   65PPPE  H15X42456   2.541   3.152   9.612
   65PPPE  H15Y42457   2.507   2.982   9.569
   65PPPE  C31642458   2.334   3.090   9.638
   65PPPE  H16X42459   2.349   3.058   9.743
   65PPPE  H16Y42460   2.292   3.193   9.638
   65PPPE  H16Z42461   2.260   3.021   9.591
   66PPPE     N42462   5.257   5.262   7.541
   66PPPE   HN142463   5.306   5.219   7.460
   66PPPE   HN242464   5.207   5.349   7.513
   66PPPE   HN342465   5.327   5.286   7.614
   66PPPE   C1242466   5.166   5.164   7.610
   66PPPE  H12A42467   5.224   5.071   7.626
   66PPPE  H12B42468   5.079   5.142   7.544
   66PPPE   C1142469   5.122   5.222   7.745
   66PPPE  H11A42470   5.093   5.140   7.814
   66PPPE  H11B42471   5.030   5.283   7.729
   66PPPE     P42472   5.351   5.250   7.871
   66PPPE   O1342473   5.411   5.163   7.767
   66PPPE   O1442474   5.434   5.366   7.910
   66PPPE   O1142475   5.297   5.167   7.994
   66PPPE   O1242476   5.221   5.308   7.803
   66PPPE    C142477   5.184   5.210   8.071
   66PPPE    HA42478   5.127   5.121   8.106
   66PPPE    HB42479   5.112   5.269   8.010
   66PPPE    C242480   5.226   5.293   8.195
   66PPPE    HS42481   5.331   5.325   8.178
   66PPPE   O2142482   5.216   5.210   8.313
   66PPPE   C2142483   5.287   5.257   8.415
   66PPPE   O2242484   5.355   5.358   8.412
   66PPPE   C2242485   5.268   5.171   8.539
   66PPPE   H2R42486   5.162   5.181   8.572
   66PPPE   H2S42487   5.333   5.215   8.617
   66PPPE    C342488   5.139   5.423   8.208
   66PPPE    HX42489   5.147   5.468   8.309
   66PPPE    HY42490   5.187   5.496   8.140
   66PPPE   O3142491   5.004   5.406   8.162
   66PPPE   C3142492   4.899   5.366   8.235
   66PPPE   O3242493   4.790   5.344   8.186
   66PPPE   C3242494   4.928   5.352   8.384
   66PPPE   H2X42495   4.993   5.263   8.396
   66PPPE   H2Y42496   4.981   5.442   8.422
   66PPPE   C2342497   5.304   5.022   8.520
   66PPPE   H3R42498   5.396   5.013   8.458
   66PPPE   H3S42499   5.222   4.969   8.466
   66PPPE   C2442500   5.333   4.951   8.654
   66PPPE   H4R42501   5.420   5.002   8.701
   66PPPE   H4S42502   5.362   4.845   8.637
   66PPPE   C2542503   5.215   4.955   8.753
   66PPPE   H5R42504   5.136   4.883   8.723
   66PPPE   H5S42505   5.170   5.057   8.750
   66PPPE   C2642506   5.259   4.928   8.898
   66PPPE   H6R42507   5.356   4.980   8.917
   66PPPE   H6S42508   5.278   4.820   8.911
   66PPPE   C2742509   5.159   4.976   9.006
   66PPPE   H7R42510   5.205   4.958   9.106
   66PPPE   H7S42511   5.068   4.913   9.000
   66PPPE   C2842512   5.118   5.125   8.997
   66PPPE   H8R42513   5.054   5.145   9.086
   66PPPE   H8S42514   5.051   5.137   8.909
   66PPPE   C2942515   5.234   5.221   8.986
   66PPPE   H9142516   5.300   5.202   8.901
   66PPPE  C21042517   5.263   5.325   9.067
   66PPPE  H10142518   5.353   5.385   9.046
   66PPPE  C21142519   5.186   5.369   9.189
   66PPPE  H11R42520   5.096   5.306   9.205
   66PPPE  H11S42521   5.149   5.473   9.175
   66PPPE  C21242522   5.268   5.365   9.319
   66PPPE  H12R42523   5.198   5.388   9.402
   66PPPE  H12S42524   5.346   5.444   9.319
   66PPPE  C21342525   5.334   5.229   9.350
   66PPPE  H13R42526   5.426   5.217   9.289
   66PPPE  H13S42527   5.264   5.147   9.320
   66PPPE  C21442528   5.366   5.213   9.499
   66PPPE  H14R42529   5.271   5.221   9.557
   66PPPE  H14S42530   5.430   5.298   9.531
   66PPPE  C21542531   5.435   5.080   9.534
   66PPPE  H15R42532   5.538   5.082   9.492
   66PPPE  H15S42533   5.382   4.997   9.483
   66PPPE  C21642534   5.442   5.050   9.684
   66PPPE  H16R42535   5.512   4.967   9.704
   66PPPE  H16S42536   5.476   5.139   9.741
   66PPPE  H16T42537   5.342   5.022   9.723
   66PPPE   C3342538   4.801   5.334   8.472
   66PPPE   H3X42539   4.707   5.330   8.413
   66PPPE   H3Y42540   4.792   5.423   8.538
   66PPPE   C3442541   4.809   5.207   8.557
   66PPPE   H4X42542   4.914   5.186   8.585
   66PPPE   H4Y42543   4.772   5.123   8.496
   66PPPE   C3542544   4.728   5.215   8.687
   66PPPE   H5X42545   4.721   5.112   8.727
   66PPPE   H5Y42546   4.624   5.249   8.665
   66PPPE   C3642547   4.792   5.307   8.791
   66PPPE   H6X42548   4.794   5.411   8.753
   66PPPE   H6Y42549   4.898   5.276   8.809
   66PPPE   C3742550   4.717   5.307   8.925
   66PPPE   H7X42551   4.611   5.332   8.904
   66PPPE   H7Y42552   4.759   5.385   8.992
   66PPPE   C3842553   4.723   5.172   8.996
   66PPPE   H8X42554   4.828   5.147   9.022
   66PPPE   H8Y42555   4.687   5.092   8.928
   66PPPE   C3942556   4.634   5.165   9.120
   66PPPE   H9X42557   4.636   5.058   9.153
   66PPPE   H9Y42558   4.529   5.189   9.094
   66PPPE  C31042559   4.679   5.248   9.241
   66PPPE  H10X42560   4.611   5.225   9.326
   66PPPE  H10Y42561   4.670   5.357   9.220
   66PPPE  C31142562   4.822   5.213   9.279
   66PPPE  H11X42563   4.892   5.270   9.215
   66PPPE  H11Y42564   4.840   5.105   9.258
   66PPPE  C31242565   4.856   5.236   9.427
   66PPPE  H12X42566   4.777   5.195   9.492
   66PPPE  H12Y42567   4.863   5.345   9.445
   66PPPE  C31342568   4.990   5.169   9.462
   66PPPE  H13X42569   5.042   5.230   9.539
   66PPPE  H13Y42570   5.054   5.169   9.372
   66PPPE  C31442571   4.977   5.025   9.514
   66PPPE  H14X42572   4.917   4.964   9.443
   66PPPE  H14Y42573   4.924   5.026   9.612
   66PPPE  C31542574   5.115   4.962   9.531
   66PPPE  H15X42575   5.176   5.035   9.587
   66PPPE  H15Y42576   5.162   4.949   9.431
   66PPPE  C31642577   5.120   4.830   9.607
   66PPPE  H16X42578   5.070   4.748   9.550
   66PPPE  H16Y42579   5.226   4.799   9.626
   66PPPE  H16Z42580   5.070   4.841   9.706
   67PPPE     N42581   4.751   5.646   7.530
   67PPPE   HN142582   4.774   5.556   7.483
   67PPPE   HN242583   4.751   5.724   7.461
   67PPPE   HN342584   4.822   5.668   7.603
   67PPPE   C1242585   4.614   5.640   7.592
   67PPPE  H12A42586   4.613   5.556   7.665
   67PPPE  H12B42587   4.540   5.619   7.512
   67PPPE   C1142588   4.583   5.772   7.661
   67PPPE  H11A42589   4.576   5.854   7.586
   67PPPE  H11B42590   4.666   5.798   7.729
   67PPPE     P42591   4.435   5.804   7.879
   67PPPE   O1342592   4.557   5.878   7.918
   67PPPE   O1442593   4.309   5.881   7.877
   67PPPE   O1142594   4.422   5.668   7.957
   67PPPE   O1242595   4.457   5.761   7.727
   67PPPE    C142596   4.391   5.540   7.901
   67PPPE    HA42597   4.403   5.536   7.791
   67PPPE    HB42598   4.284   5.518   7.923
   67PPPE    C242599   4.476   5.425   7.965
   67PPPE    HS42600   4.424   5.328   7.946
   67PPPE   O2142601   4.495   5.447   8.105
   67PPPE   C2142602   4.389   5.422   8.178
   67PPPE   O2242603   4.291   5.359   8.142
   67PPPE   C2242604   4.409   5.483   8.317
   67PPPE   H2R42605   4.504   5.539   8.319
   67PPPE   H2S42606   4.415   5.399   8.389
   67PPPE    C342607   4.617   5.411   7.901
   67PPPE    HX42608   4.672   5.334   7.959
   67PPPE    HY42609   4.605   5.375   7.796
   67PPPE   O3142610   4.685   5.538   7.905
   67PPPE   C3142611   4.814   5.536   7.881
   67PPPE   O3242612   4.875   5.443   7.830
   67PPPE   C3242613   4.870   5.677   7.900
   67PPPE   H2X42614   4.787   5.750   7.890
   67PPPE   H2Y42615   4.944   5.693   7.819
   67PPPE   C2342616   4.292   5.578   8.353
   67PPPE   H3R42617   4.198   5.519   8.362
   67PPPE   H3S42618   4.278   5.653   8.273
   67PPPE   C2442619   4.314   5.653   8.486
   67PPPE   H4R42620   4.222   5.710   8.510
   67PPPE   H4S42621   4.397   5.726   8.475
   67PPPE   C2542622   4.346   5.557   8.601
   67PPPE   H5R42623   4.448   5.515   8.587
   67PPPE   H5S42624   4.274   5.473   8.598
   67PPPE   C2642625   4.339   5.621   8.740
   67PPPE   H6R42626   4.235   5.657   8.759
   67PPPE   H6S42627   4.407   5.708   8.746
   67PPPE   C2742628   4.377   5.516   8.845
   67PPPE   H7R42629   4.485   5.493   8.831
   67PPPE   H7S42630   4.319   5.424   8.823
   67PPPE   C2842631   4.352   5.557   8.991
   67PPPE   H8R42632   4.247   5.591   9.004
   67PPPE   H8S42633   4.418   5.642   9.018
   67PPPE   C2942634   4.382   5.436   9.075
   67PPPE   H9142635   4.461   5.372   9.032
   67PPPE  C21042636   4.330   5.400   9.192
   67PPPE  H10142637   4.367   5.308   9.240
   67PPPE  C21142638   4.225   5.471   9.274
   67PPPE  H11R42639   4.163   5.396   9.327
   67PPPE  H11S42640   4.157   5.532   9.210
   67PPPE  C21242641   4.290   5.564   9.379
   67PPPE  H12R42642   4.217   5.580   9.461
   67PPPE  H12S42643   4.312   5.662   9.332
   67PPPE  C21342644   4.422   5.509   9.438
   67PPPE  H13R42645   4.500   5.510   9.359
   67PPPE  H13S42646   4.408   5.405   9.471
   67PPPE  C21442647   4.474   5.593   9.554
   67PPPE  H14R42648   4.411   5.570   9.643
   67PPPE  H14S42649   4.461   5.701   9.531
   67PPPE  C21542650   4.621   5.565   9.588
   67PPPE  H15R42651   4.653   5.636   9.668
   67PPPE  H15S42652   4.682   5.587   9.497
   67PPPE  C21642653   4.652   5.424   9.636
   67PPPE  H16R42654   4.610   5.347   9.566
   67PPPE  H16S42655   4.762   5.409   9.643
   67PPPE  H16T42656   4.609   5.408   9.737
   67PPPE   C3342657   4.938   5.702   8.036
   67PPPE   H3X42658   4.994   5.797   8.031
   67PPPE   H3Y42659   5.012   5.621   8.058
   67PPPE   C3442660   4.836   5.714   8.151
   67PPPE   H4X42661   4.767   5.799   8.130
   67PPPE   H4Y42662   4.774   5.622   8.157
   67PPPE   C3542663   4.905   5.737   8.286
   67PPPE   H5X42664   4.965   5.831   8.282
   67PPPE   H5Y42665   4.976   5.653   8.304
   67PPPE   C3642666   4.806   5.745   8.403
   67PPPE   H6X42667   4.735   5.660   8.396
   67PPPE   H6Y42668   4.747   5.839   8.395
   67PPPE   C3742669   4.877   5.739   8.539
   67PPPE   H7X42670   4.952   5.820   8.546
   67PPPE   H7Y42671   4.931   5.642   8.547
   67PPPE   C3842672   4.780   5.751   8.657
   67PPPE   H8X42673   4.698   5.676   8.646
   67PPPE   H8Y42674   4.733   5.852   8.655
   67PPPE   C3942675   4.849   5.729   8.791
   67PPPE   H9X42676   4.888   5.625   8.797
   67PPPE   H9Y42677   4.936   5.798   8.799
   67PPPE  C31042678   4.755   5.755   8.910
   67PPPE  H10X42679   4.667   5.687   8.904
   67PPPE  H10Y42680   4.717   5.859   8.902
   67PPPE  C31142681   4.824   5.737   9.045
   67PPPE  H11X42682   4.919   5.795   9.045
   67PPPE  H11Y42683   4.849   5.630   9.062
   67PPPE  C31242684   4.736   5.789   9.159
   67PPPE  H12X42685   4.644   5.727   9.166
   67PPPE  H12Y42686   4.705   5.893   9.135
   67PPPE  C31342687   4.806   5.792   9.295
   67PPPE  H13X42688   4.901   5.849   9.287
   67PPPE  H13Y42689   4.830   5.689   9.328
   67PPPE  C31442690   4.716   5.859   9.400
   67PPPE  H14X42691   4.622   5.801   9.408
   67PPPE  H14Y42692   4.689   5.961   9.365
   67PPPE  C31542693   4.780   5.871   9.538
   67PPPE  H15X42694   4.866   5.942   9.533
   67PPPE  H15Y42695   4.821   5.773   9.569
   67PPPE  C31642696   4.680   5.920   9.642
   67PPPE  H16X42697   4.631   6.014   9.608
   67PPPE  H16Y42698   4.600   5.844   9.658
   67PPPE  H16Z42699   4.729   5.939   9.740
   68PPPE     N42700   5.912   3.874   7.619
   68PPPE   HN142701   5.838   3.808   7.650
   68PPPE   HN242702   5.911   3.872   7.515
   68PPPE   HN342703   6.004   3.838   7.653
   68PPPE   C1242704   5.876   4.010   7.674
   68PPPE  H12A42705   5.799   4.054   7.607
   68PPPE  H12B42706   5.967   4.074   7.671
   68PPPE   C1142707   5.819   4.000   7.816
   68PPPE  H11A42708   5.813   4.104   7.857
   68PPPE  H11B42709   5.888   3.944   7.883
   68PPPE     P42710   5.651   3.793   7.830
   68PPPE   O1342711   5.505   3.780   7.842
   68PPPE   O1442712   5.713   3.728   7.712
   68PPPE   O1142713   5.725   3.743   7.958
   68PPPE   O1242714   5.687   3.946   7.817
   68PPPE    C142715   5.735   3.818   8.080
   68PPPE    HA42716   5.648   3.796   8.145
   68PPPE    HB42717   5.737   3.927   8.062
   68PPPE    C242718   5.865   3.777   8.153
   68PPPE    HS42719   5.937   3.743   8.075
   68PPPE   O2142720   5.831   3.673   8.246
   68PPPE   C2142721   5.933   3.591   8.274
   68PPPE   O2242722   6.041   3.594   8.219
   68PPPE   C2242723   5.889   3.490   8.381
   68PPPE   H2R42724   5.868   3.394   8.329
   68PPPE   H2S42725   5.795   3.527   8.427
   68PPPE    C342726   5.929   3.899   8.226
   68PPPE    HX42727   6.020   3.867   8.282
   68PPPE    HY42728   5.963   3.971   8.149
   68PPPE   O3142729   5.830   3.964   8.308
   68PPPE   C3142730   5.824   3.918   8.433
   68PPPE   O3242731   5.913   3.858   8.490
   68PPPE   C3242732   5.682   3.942   8.483
   68PPPE   H2X42733   5.614   3.899   8.406
   68PPPE   H2Y42734   5.664   4.052   8.488
   68PPPE   C2342735   5.995   3.468   8.492
   68PPPE   H3R42736   6.067   3.552   8.495
   68PPPE   H3S42737   6.054   3.377   8.468
   68PPPE   C2442738   5.933   3.455   8.632
   68PPPE   H4R42739   5.997   3.393   8.697
   68PPPE   H4S42740   5.834   3.406   8.624
   68PPPE   C2542741   5.917   3.593   8.697
   68PPPE   H5R42742   5.876   3.660   8.619
   68PPPE   H5S42743   6.017   3.634   8.725
   68PPPE   C2642744   5.822   3.601   8.817
   68PPPE   H6R42745   5.723   3.559   8.788
   68PPPE   H6S42746   5.811   3.709   8.837
   68PPPE   C2742747   5.872   3.538   8.947
   68PPPE   H7R42748   5.971   3.582   8.972
   68PPPE   H7S42749   5.889   3.429   8.934
   68PPPE   C2842750   5.778   3.561   9.069
   68PPPE   H8R42751   5.789   3.669   9.094
   68PPPE   H8S42752   5.823   3.507   9.155
   68PPPE   C2942753   5.630   3.532   9.054
   68PPPE   H9142754   5.582   3.582   8.969
   68PPPE  C21042755   5.552   3.455   9.133
   68PPPE  H10142756   5.445   3.445   9.109
   68PPPE  C21142757   5.595   3.379   9.256
   68PPPE  H11R42758   5.702   3.401   9.277
   68PPPE  H11S42759   5.590   3.270   9.236
   68PPPE  C21242760   5.524   3.403   9.392
   68PPPE  H12R42761   5.420   3.365   9.389
   68PPPE  H12S42762   5.522   3.512   9.414
   68PPPE  C21342763   5.605   3.333   9.503
   68PPPE  H13R42764   5.706   3.378   9.504
   68PPPE  H13S42765   5.615   3.225   9.476
   68PPPE  C21442766   5.554   3.342   9.647
   68PPPE  H14R42767   5.618   3.276   9.709
   68PPPE  H14S42768   5.450   3.302   9.652
   68PPPE  C21542769   5.558   3.482   9.708
   68PPPE  H15R42770   5.545   3.471   9.818
   68PPPE  H15S42771   5.471   3.538   9.668
   68PPPE  C21642772   5.684   3.565   9.688
   68PPPE  H16R42773   5.773   3.510   9.726
   68PPPE  H16S42774   5.698   3.588   9.580
   68PPPE  H16T42775   5.676   3.661   9.743
   68PPPE   C3342776   5.651   3.876   8.619
   68PPPE   H3X42777   5.697   3.775   8.627
   68PPPE   H3Y42778   5.541   3.861   8.628
   68PPPE   C3442779   5.694   3.964   8.736
   68PPPE   H4X42780   5.663   4.069   8.718
   68PPPE   H4Y42781   5.805   3.962   8.744
   68PPPE   C3542782   5.633   3.919   8.869
   68PPPE   H5X42783   5.651   3.810   8.884
   68PPPE   H5Y42784   5.522   3.930   8.868
   68PPPE   C3642785   5.689   3.997   8.987
   68PPPE   H6X42786   5.629   4.090   8.998
   68PPPE   H6Y42787   5.794   4.027   8.969
   68PPPE   C3742788   5.684   3.913   9.115
   68PPPE   H7X42789   5.784   3.868   9.132
   68PPPE   H7Y42790   5.612   3.830   9.101
   68PPPE   C3842791   5.639   3.990   9.239
   68PPPE   H8X42792   5.582   3.920   9.304
   68PPPE   H8Y42793   5.567   4.069   9.209
   68PPPE   C3942794   5.754   4.042   9.325
   68PPPE   H9X42795   5.716   4.115   9.400
   68PPPE   H9Y42796   5.829   4.094   9.261
   68PPPE  C31042797   5.820   3.926   9.400
   68PPPE  H10X42798   5.846   3.846   9.328
   68PPPE  H10Y42799   5.745   3.882   9.471
   68PPPE  C31142800   5.947   3.961   9.477
   68PPPE  H11X42801   5.920   4.012   9.572
   68PPPE  H11Y42802   6.009   4.031   9.417
   68PPPE  C31242803   6.031   3.835   9.508
   68PPPE  H12X42804   6.115   3.863   9.575
   68PPPE  H12Y42805   6.075   3.797   9.413
   68PPPE  C31342806   5.948   3.722   9.571
   68PPPE  H13X42807   5.869   3.693   9.499
   68PPPE  H13Y42808   5.897   3.759   9.663
   68PPPE  C31442809   6.026   3.594   9.603
   68PPPE  H14X42810   6.110   3.581   9.531
   68PPPE  H14Y42811   5.957   3.508   9.589
   68PPPE  C31542812   6.078   3.586   9.747
   68PPPE  H15X42813   6.122   3.486   9.763
   68PPPE  H15Y42814   5.992   3.595   9.817
   68PPPE  C31642815   6.182   3.692   9.782
   68PPPE  H16X42816   6.265   3.692   9.708
   68PPPE  H16Y42817   6.136   3.793   9.783
   68PPPE  H16Z42818   6.225   3.673   9.883
   69PPPE     N42819   4.987   2.207   7.897
   69PPPE   HN142820   4.979   2.241   7.995
   69PPPE   HN242821   5.054   2.128   7.895
   69PPPE   HN342822   5.022   2.285   7.838
   69PPPE   C1242823   4.852   2.164   7.844
   69PPPE  H12A42824   4.818   2.077   7.904
   69PPPE  H12B42825   4.866   2.132   7.739
   69PPPE   C1142826   4.747   2.278   7.851
   69PPPE  H11A42827   4.734   2.308   7.958
   69PPPE  H11B42828   4.651   2.237   7.816
   69PPPE     P42829   4.691   2.518   7.768
   69PPPE   O1342830   4.730   2.604   7.654
   69PPPE   O1442831   4.549   2.483   7.771
   69PPPE   O1142832   4.721   2.594   7.901
   69PPPE   O1242833   4.786   2.390   7.771
   69PPPE    C142834   4.847   2.656   7.927
   69PPPE    HA42835   4.829   2.747   7.988
   69PPPE    HB42836   4.898   2.691   7.834
   69PPPE    C242837   4.942   2.564   8.006
   69PPPE    HS42838   4.952   2.470   7.948
   69PPPE   O2142839   4.886   2.541   8.137
   69PPPE   C2142840   4.920   2.427   8.196
   69PPPE   O2242841   4.977   2.334   8.140
   69PPPE   C2242842   4.869   2.430   8.341
   69PPPE   H2R42843   4.758   2.434   8.337
   69PPPE   H2S42844   4.905   2.524   8.387
   69PPPE    C342845   5.082   2.631   8.016
   69PPPE    HX42846   5.153   2.570   8.076
   69PPPE    HY42847   5.124   2.638   7.913
   69PPPE   O3142848   5.064   2.765   8.066
   69PPPE   C3142849   5.056   2.770   8.198
   69PPPE   O3242850   5.100   2.686   8.275
   69PPPE   C3242851   4.976   2.894   8.238
   69PPPE   H2X42852   4.967   2.961   8.149
   69PPPE   H2Y42853   5.029   2.947   8.319
   69PPPE   C2342854   4.912   2.312   8.433
   69PPPE   H3R42855   5.019   2.324   8.462
   69PPPE   H3S42856   4.903   2.217   8.376
   69PPPE   C2442857   4.825   2.298   8.559
   69PPPE   H4R42858   4.850   2.203   8.611
   69PPPE   H4S42859   4.719   2.288   8.526
   69PPPE   C2542860   4.833   2.413   8.663
   69PPPE   H5R42861   4.738   2.412   8.721
   69PPPE   H5S42862   4.841   2.512   8.613
   69PPPE   C2642863   4.947   2.394   8.764
   69PPPE   H6R42864   5.045   2.405   8.712
   69PPPE   H6S42865   4.942   2.291   8.804
   69PPPE   C2742866   4.944   2.490   8.886
   69PPPE   H7R42867   4.845   2.485   8.936
   69PPPE   H7S42868   4.959   2.595   8.851
   69PPPE   C2842869   5.054   2.453   8.987
   69PPPE   H8R42870   5.147   2.445   8.927
   69PPPE   H8S42871   5.031   2.351   9.025
   69PPPE   C2942872   5.085   2.548   9.099
   69PPPE   H9142873   5.124   2.645   9.065
   69PPPE  C21042874   5.078   2.528   9.232
   69PPPE  H10142875   5.109   2.610   9.299
   69PPPE  C21142876   5.035   2.404   9.307
   69PPPE  H11R42877   5.122   2.357   9.357
   69PPPE  H11S42878   4.992   2.327   9.239
   69PPPE  C21242879   4.928   2.434   9.415
   69PPPE  H12R42880   4.890   2.339   9.456
   69PPPE  H12S42881   4.842   2.485   9.366
   69PPPE  C21342882   4.976   2.521   9.533
   69PPPE  H13R42883   4.886   2.562   9.584
   69PPPE  H13S42884   5.034   2.609   9.495
   69PPPE  C21442885   5.060   2.447   9.638
   69PPPE  H14R42886   5.151   2.405   9.591
   69PPPE  H14S42887   5.001   2.362   9.679
   69PPPE  C21542888   5.100   2.540   9.754
   69PPPE  H15R42889   5.008   2.583   9.798
   69PPPE  H15S42890   5.161   2.623   9.714
   69PPPE  C21642891   5.178   2.471   9.866
   69PPPE  H16R42892   5.113   2.397   9.919
   69PPPE  H16S42893   5.266   2.417   9.825
   69PPPE  H16T42894   5.213   2.545   9.941
   69PPPE   C3342895   4.836   2.855   8.289
   69PPPE   H3X42896   4.787   2.786   8.217
   69PPPE   H3Y42897   4.773   2.947   8.296
   69PPPE   C3442898   4.841   2.790   8.428
   69PPPE   H4X42899   4.931   2.725   8.436
   69PPPE   H4Y42900   4.753   2.723   8.441
   69PPPE   C3542901   4.847   2.889   8.544
   69PPPE   H5X42902   4.757   2.955   8.542
   69PPPE   H5Y42903   4.935   2.955   8.533
   69PPPE   C3642904   4.856   2.813   8.677
   69PPPE   H6X42905   4.929   2.731   8.664
   69PPPE   H6Y42906   4.758   2.767   8.700
   69PPPE   C3742907   4.904   2.898   8.795
   69PPPE   H7X42908   4.933   3.000   8.762
   69PPPE   H7Y42909   4.995   2.850   8.836
   69PPPE   C3842910   4.800   2.908   8.907
   69PPPE   H8X42911   4.753   2.808   8.925
   69PPPE   H8Y42912   4.719   2.978   8.876
   69PPPE   C3942913   4.859   2.957   9.040
   69PPPE   H9X42914   4.775   2.985   9.107
   69PPPE   H9Y42915   4.921   3.047   9.022
   69PPPE  C31042916   4.942   2.850   9.112
   69PPPE  H10X42917   5.032   2.830   9.050
   69PPPE  H10Y42918   4.884   2.756   9.120
   69PPPE  C31142919   4.989   2.891   9.253
   69PPPE  H11X42920   5.032   2.994   9.251
   69PPPE  H11Y42921   5.069   2.822   9.285
   69PPPE  C31242922   4.877   2.886   9.358
   69PPPE  H12X42923   4.822   2.790   9.348
   69PPPE  H12Y42924   4.806   2.969   9.337
   69PPPE  C31342925   4.927   2.898   9.502
   69PPPE  H13X42926   4.977   2.996   9.515
   69PPPE  H13Y42927   5.001   2.817   9.521
   69PPPE  C31442928   4.817   2.882   9.608
   69PPPE  H14X42929   4.756   2.792   9.585
   69PPPE  H14Y42930   4.751   2.971   9.605
   69PPPE  C31542931   4.871   2.870   9.751
   69PPPE  H15X42932   4.939   2.782   9.756
   69PPPE  H15Y42933   4.786   2.849   9.820
   69PPPE  C31642934   4.945   2.994   9.801
   69PPPE  H16X42935   4.879   3.083   9.797
   69PPPE  H16Y42936   4.979   2.980   9.906
   69PPPE  H16Z42937   5.035   3.014   9.738
   70PPPE     N42938   6.215   4.566   7.665
   70PPPE   HN142939   6.229   4.464   7.678
   70PPPE   HN242940   6.301   4.605   7.621
   70PPPE   HN342941   6.195   4.608   7.758
   70PPPE   C1242942   6.097   4.584   7.576
   70PPPE  H12A42943   6.130   4.576   7.470
   70PPPE  H12B42944   6.056   4.686   7.594
   70PPPE   C1142945   5.993   4.476   7.608
   70PPPE  H11A42946   6.030   4.378   7.571
   70PPPE  H11B42947   5.899   4.497   7.553
   70PPPE     P42948   5.862   4.557   7.818
   70PPPE   O1342949   5.840   4.672   7.727
   70PPPE   O1442950   5.748   4.469   7.848
   70PPPE   O1142951   5.940   4.607   7.946
   70PPPE   O1242952   5.973   4.467   7.750
   70PPPE    C142953   5.936   4.530   8.066
   70PPPE    HA42954   5.982   4.430   8.049
   70PPPE    HB42955   5.832   4.515   8.102
   70PPPE    C242956   6.020   4.600   8.177
   70PPPE    HS42957   6.062   4.521   8.243
   70PPPE   O2142958   5.940   4.693   8.254
   70PPPE   C2142959   5.862   4.633   8.344
   70PPPE   O2242960   5.855   4.512   8.361
   70PPPE   C2242961   5.788   4.737   8.429
   70PPPE   H2R42962   5.680   4.731   8.403
   70PPPE   H2S42963   5.826   4.838   8.404
   70PPPE    C342964   6.141   4.676   8.116
   70PPPE    HX42965   6.188   4.610   8.040
   70PPPE    HY42966   6.102   4.766   8.065
   70PPPE   O3142967   6.237   4.704   8.220
   70PPPE   C3142968   6.258   4.832   8.248
   70PPPE   O3242969   6.249   4.924   8.168
   70PPPE   C3242970   6.297   4.845   8.395
   70PPPE   H2X42971   6.394   4.793   8.412
   70PPPE   H2Y42972   6.311   4.954   8.414
   70PPPE   C2342973   5.808   4.710   8.580
   70PPPE   H3R42974   5.916   4.715   8.603
   70PPPE   H3S42975   5.774   4.607   8.606
   70PPPE   C2442976   5.734   4.810   8.671
   70PPPE   H4R42977   5.624   4.796   8.658
   70PPPE   H4S42978   5.759   4.914   8.640
   70PPPE   C2542979   5.769   4.793   8.820
   70PPPE   H5R42980   5.755   4.687   8.849
   70PPPE   H5S42981   5.699   4.854   8.881
   70PPPE   C2642982   5.912   4.837   8.852
   70PPPE   H6R42983   5.924   4.944   8.827
   70PPPE   H6S42984   5.984   4.780   8.788
   70PPPE   C2742985   5.955   4.814   8.997
   70PPPE   H7R42986   5.936   4.709   9.027
   70PPPE   H7S42987   5.894   4.880   9.064
   70PPPE   C2842988   6.105   4.844   9.011
   70PPPE   H8R42989   6.122   4.946   8.969
   70PPPE   H8S42990   6.156   4.774   8.941
   70PPPE   C2942991   6.170   4.832   9.146
   70PPPE   H9142992   6.254   4.761   9.148
   70PPPE  C21042993   6.144   4.897   9.260
   70PPPE  H10142994   6.207   4.872   9.347
   70PPPE  C21142995   6.041   5.002   9.290
   70PPPE  H11R42996   6.089   5.100   9.307
   70PPPE  H11S42997   5.969   5.015   9.206
   70PPPE  C21242998   5.965   4.961   9.417
   70PPPE  H12R42999   5.918   4.861   9.406
   70PPPE  H12S43000   5.883   5.035   9.433
   70PPPE  C21343001   6.052   4.963   9.544
   70PPPE  H13R43002   6.114   5.056   9.544
   70PPPE  H13S43003   6.122   4.876   9.544
   70PPPE  C21443004   5.970   4.960   9.673
   70PPPE  H14R43005   5.908   4.868   9.675
   70PPPE  H14S43006   5.901   5.048   9.675
   70PPPE  C21543007   6.059   4.965   9.798
   70PPPE  H15R43008   6.125   5.054   9.792
   70PPPE  H15S43009   6.124   4.875   9.799
   70PPPE  C21643010   5.980   4.970   9.928
   70PPPE  H16R43011   5.914   4.881   9.937
   70PPPE  H16S43012   6.048   4.973  10.016
   70PPPE  H16T43013   5.916   5.061   9.931
   70PPPE   C3343014   6.189   4.793   8.493
   70PPPE   H3X43015   6.090   4.831   8.463
   70PPPE   H3Y43016   6.209   4.834   8.595
   70PPPE   C3443017   6.184   4.639   8.506
   70PPPE   H4X43018   6.223   4.589   8.415
   70PPPE   H4Y43019   6.078   4.608   8.517
   70PPPE   C3543020   6.260   4.585   8.626
   70PPPE   H5X43021   6.218   4.631   8.718
   70PPPE   H5Y43022   6.366   4.616   8.618
   70PPPE   C3643023   6.254   4.432   8.637
   70PPPE   H6X43024   6.327   4.399   8.715
   70PPPE   H6Y43025   6.286   4.387   8.541
   70PPPE   C3743026   6.116   4.376   8.676
   70PPPE   H7X43027   6.124   4.265   8.683
   70PPPE   H7Y43028   6.040   4.399   8.598
   70PPPE   C3843029   6.067   4.428   8.812
   70PPPE   H8X43030   6.026   4.531   8.801
   70PPPE   H8Y43031   6.155   4.434   8.880
   70PPPE   C3943032   5.961   4.338   8.878
   70PPPE   H9X43033   6.004   4.237   8.894
   70PPPE   H9Y43034   5.874   4.327   8.809
   70PPPE  C31043035   5.910   4.392   9.013
   70PPPE  H10X43036   5.838   4.319   9.055
   70PPPE  H10Y43037   5.856   4.487   8.996
   70PPPE  C31143038   6.022   4.415   9.115
   70PPPE  H11X43039   6.092   4.494   9.079
   70PPPE  H11Y43040   6.080   4.321   9.128
   70PPPE  C31243041   5.969   4.459   9.252
   70PPPE  H12X43042   5.897   4.382   9.290
   70PPPE  H12Y43043   5.914   4.555   9.242
   70PPPE  C31343044   6.081   4.476   9.355
   70PPPE  H13X43045   6.153   4.553   9.320
   70PPPE  H13Y43046   6.136   4.380   9.366
   70PPPE  C31443047   6.028   4.518   9.493
   70PPPE  H14X43048   5.949   4.446   9.525
   70PPPE  H14Y43049   5.982   4.619   9.487
   70PPPE  C31543050   6.137   4.518   9.600
   70PPPE  H15X43051   6.217   4.590   9.570
   70PPPE  H15Y43052   6.183   4.417   9.603
   70PPPE  C31643053   6.087   4.555   9.740
   70PPPE  H16X43054   6.171   4.555   9.813
   70PPPE  H16Y43055   6.040   4.655   9.740
   70PPPE  H16Z43056   6.012   4.481   9.774
   71PPPE     N43057   2.084   4.007   8.073
   71PPPE   HN143058   2.089   4.079   8.149
   71PPPE   HN243059   2.136   3.921   8.101
   71PPPE   HN343060   2.128   4.044   7.987
   71PPPE   C1243061   1.943   3.972   8.035
   71PPPE  H12A43062   1.873   4.018   8.108
   71PPPE  H12B43063   1.934   3.861   8.039
   71PPPE   C1143064   1.912   4.018   7.891
   71PPPE  H11A43065   1.889   4.127   7.893
   71PPPE  H11B43066   1.821   3.968   7.853
   71PPPE     P43067   2.054   3.857   7.739
   71PPPE   O1343068   1.930   3.804   7.678
   71PPPE   O1443069   2.173   3.873   7.653
   71PPPE   O1143070   2.089   3.776   7.870
   71PPPE   O1243071   2.023   3.998   7.803
   71PPPE    C143072   2.224   3.754   7.912
   71PPPE    HA43073   2.275   3.850   7.935
   71PPPE    HB43074   2.283   3.704   7.832
   71PPPE    C243075   2.230   3.663   8.038
   71PPPE    HS43076   2.198   3.562   8.007
   71PPPE   O2143077   2.148   3.717   8.145
   71PPPE   C2143078   2.036   3.649   8.170
   71PPPE   O2243079   1.985   3.568   8.096
   71PPPE   C2243080   1.978   3.697   8.304
   71PPPE   H2R43081   1.868   3.704   8.291
   71PPPE   H2S43082   2.018   3.798   8.329
   71PPPE    C343083   2.375   3.651   8.091
   71PPPE    HX43084   2.375   3.568   8.165
   71PPPE    HY43085   2.444   3.624   8.008
   71PPPE   O3143086   2.414   3.777   8.150
   71PPPE   C3143087   2.486   3.762   8.262
   71PPPE   O3243088   2.560   3.668   8.286
   71PPPE   C3243089   2.446   3.874   8.357
   71PPPE   H2X43090   2.337   3.892   8.343
   71PPPE   H2Y43091   2.501   3.966   8.327
   71PPPE   C2343092   2.010   3.599   8.419
   71PPPE   H3R43093   2.118   3.603   8.442
   71PPPE   H3S43094   1.985   3.495   8.388
   71PPPE   C2443095   1.933   3.627   8.549
   71PPPE   H4R43096   1.825   3.610   8.531
   71PPPE   H4S43097   1.948   3.732   8.582
   71PPPE   C2543098   1.979   3.532   8.661
   71PPPE   H5R43099   2.080   3.562   8.696
   71PPPE   H5S43100   1.988   3.430   8.619
   71PPPE   C2643101   1.884   3.524   8.782
   71PPPE   H6R43102   1.924   3.447   8.851
   71PPPE   H6S43103   1.784   3.490   8.748
   71PPPE   C2743104   1.869   3.655   8.861
   71PPPE   H7R43105   1.820   3.731   8.796
   71PPPE   H7S43106   1.969   3.693   8.890
   71PPPE   C2843107   1.785   3.631   8.988
   71PPPE   H8R43108   1.842   3.562   9.054
   71PPPE   H8S43109   1.692   3.578   8.959
   71PPPE   C2943110   1.747   3.758   9.060
   71PPPE   H9143111   1.682   3.826   9.002
   71PPPE  C21043112   1.784   3.794   9.184
   71PPPE  H10143113   1.746   3.889   9.225
   71PPPE  C21143114   1.872   3.716   9.278
   71PPPE  H11R43115   1.971   3.696   9.232
   71PPPE  H11S43116   1.827   3.617   9.302
   71PPPE  C21243117   1.894   3.793   9.410
   71PPPE  H12R43118   1.797   3.817   9.457
   71PPPE  H12S43119   1.947   3.888   9.388
   71PPPE  C21343120   1.981   3.720   9.513
   71PPPE  H13R43121   2.002   3.792   9.595
   71PPPE  H13S43122   2.078   3.690   9.468
   71PPPE  C21443123   1.914   3.597   9.576
   71PPPE  H14R43124   1.900   3.520   9.498
   71PPPE  H14S43125   1.814   3.628   9.614
   71PPPE  C21543126   1.991   3.536   9.694
   71PPPE  H15R43127   2.097   3.519   9.665
   71PPPE  H15S43128   1.946   3.437   9.717
   71PPPE  C21643129   1.985   3.621   9.822
   71PPPE  H16R43130   2.034   3.719   9.808
   71PPPE  H16S43131   1.879   3.639   9.852
   71PPPE  H16T43132   2.036   3.568   9.906
   71PPPE   C3343133   2.471   3.843   8.506
   71PPPE   H3X43134   2.581   3.838   8.523
   71PPPE   H3Y43135   2.428   3.745   8.536
   71PPPE   C3443136   2.410   3.955   8.591
   71PPPE   H4X43137   2.300   3.946   8.595
   71PPPE   H4Y43138   2.436   4.051   8.541
   71PPPE   C3543139   2.467   3.962   8.733
   71PPPE   H5X43140   2.451   4.065   8.772
   71PPPE   H5Y43141   2.577   3.947   8.728
   71PPPE   C3643142   2.411   3.859   8.832
   71PPPE   H6X43143   2.496   3.804   8.877
   71PPPE   H6Y43144   2.347   3.785   8.778
   71PPPE   C3743145   2.329   3.923   8.944
   71PPPE   H7X43146   2.220   3.910   8.927
   71PPPE   H7Y43147   2.350   4.032   8.942
   71PPPE   C3843148   2.366   3.875   9.085
   71PPPE   H8X43149   2.477   3.869   9.094
   71PPPE   H8Y43150   2.324   3.775   9.105
   71PPPE   C3943151   2.316   3.976   9.189
   71PPPE   H9X43152   2.205   3.980   9.191
   71PPPE   H9Y43153   2.353   4.074   9.153
   71PPPE  C31043154   2.372   3.962   9.330
   71PPPE  H10X43155   2.392   4.066   9.365
   71PPPE  H10Y43156   2.470   3.909   9.328
   71PPPE  C31143157   2.279   3.899   9.434
   71PPPE  H11X43158   2.266   3.791   9.412
   71PPPE  H11Y43159   2.179   3.948   9.428
   71PPPE  C31243160   2.335   3.917   9.576
   71PPPE  H12X43161   2.355   4.025   9.593
   71PPPE  H12Y43162   2.431   3.863   9.584
   71PPPE  C31343163   2.242   3.871   9.689
   71PPPE  H13X43164   2.217   3.763   9.675
   71PPPE  H13Y43165   2.148   3.929   9.683
   71PPPE  C31443166   2.302   3.893   9.829
   71PPPE  H14X43167   2.221   3.884   9.905
   71PPPE  H14Y43168   2.342   3.996   9.834
   71PPPE  C31543169   2.413   3.794   9.867
   71PPPE  H15X43170   2.459   3.829   9.962
   71PPPE  H15Y43171   2.493   3.795   9.790
   71PPPE  C31643172   2.364   3.650   9.888
   71PPPE  H16X43173   2.284   3.647   9.965
   71PPPE  H16Y43174   2.324   3.608   9.793
   71PPPE  H16Z43175   2.447   3.585   9.923
   72PPPE     N43176   2.877   5.827   7.879
   72PPPE   HN143177   2.815   5.827   7.963
   72PPPE   HN243178   2.926   5.919   7.875
   72PPPE   HN343179   2.815   5.818   7.797
   72PPPE   C1243180   2.983   5.719   7.879
   72PPPE  H12A43181   2.932   5.623   7.857
   72PPPE  H12B43182   3.028   5.714   7.980
   72PPPE   C1143183   3.095   5.745   7.774
   72PPPE  H11A43184   3.052   5.763   7.674
   72PPPE  H11B43185   3.154   5.650   7.766
   72PPPE     P43186   3.161   5.998   7.777
   72PPPE   O1343187   3.154   6.005   7.628
   72PPPE   O1443188   3.038   6.037   7.849
   72PPPE   O1143189   3.288   6.074   7.830
   72PPPE   O1243190   3.187   5.847   7.815
   72PPPE    C143191   3.423   6.036   7.799
   72PPPE    HA43192   3.470   6.114   7.736
   72PPPE    HB43193   3.427   5.940   7.742
   72PPPE    C243194   3.513   6.017   7.926
   72PPPE    HS43195   3.608   5.967   7.894
   72PPPE   O2143196   3.446   5.937   8.024
   72PPPE   C2143197   3.443   5.808   8.000
   72PPPE   O2243198   3.497   5.752   7.906
   72PPPE   C2243199   3.360   5.737   8.108
   72PPPE   H2R43200   3.396   5.633   8.117
   72PPPE   H2S43201   3.256   5.736   8.070
   72PPPE    C343202   3.558   6.151   7.992
   72PPPE    HX43203   3.619   6.126   8.081
   72PPPE    HY43204   3.625   6.202   7.920
   72PPPE   O3143205   3.449   6.240   8.023
   72PPPE   C3143206   3.399   6.230   8.146
   72PPPE   O3243207   3.444   6.161   8.235
   72PPPE   C3243208   3.276   6.320   8.156
   72PPPE   H2X43209   3.212   6.297   8.068
   72PPPE   H2Y43210   3.309   6.426   8.150
   72PPPE   C2343211   3.361   5.806   8.248
   72PPPE   H3R43212   3.355   5.916   8.236
   72PPPE   H3S43213   3.456   5.784   8.301
   72PPPE   C2443214   3.240   5.766   8.333
   72PPPE   H4R43215   3.252   5.662   8.371
   72PPPE   H4S43216   3.150   5.768   8.268
   72PPPE   C2543217   3.214   5.862   8.450
   72PPPE   H5R43218   3.111   5.845   8.488
   72PPPE   H5S43219   3.218   5.967   8.413
   72PPPE   C2643220   3.311   5.846   8.568
   72PPPE   H6R43221   3.415   5.868   8.535
   72PPPE   H6S43222   3.307   5.740   8.601
   72PPPE   C2743223   3.273   5.937   8.685
   72PPPE   H7R43224   3.168   5.917   8.716
   72PPPE   H7S43225   3.277   6.042   8.648
   72PPPE   C2843226   3.366   5.926   8.807
   72PPPE   H8R43227   3.343   6.009   8.878
   72PPPE   H8S43228   3.471   5.941   8.774
   72PPPE   C2943229   3.349   5.793   8.874
   72PPPE   H9143230   3.426   5.718   8.849
   72PPPE  C21043231   3.257   5.762   8.967
   72PPPE  H10143232   3.253   5.659   9.006
   72PPPE  C21143233   3.152   5.850   9.028
   72PPPE  H11R43234   3.051   5.820   8.993
   72PPPE  H11S43235   3.167   5.956   9.000
   72PPPE  C21243236   3.158   5.837   9.181
   72PPPE  H12R43237   3.129   5.734   9.211
   72PPPE  H12S43238   3.082   5.905   9.225
   72PPPE  C21343239   3.295   5.869   9.244
   72PPPE  H13R43240   3.330   5.968   9.209
   72PPPE  H13S43241   3.372   5.796   9.211
   72PPPE  C21443242   3.288   5.865   9.397
   72PPPE  H14R43243   3.274   5.758   9.426
   72PPPE  H14S43244   3.197   5.919   9.432
   72PPPE  C21543245   3.410   5.918   9.472
   72PPPE  H15R43246   3.422   6.026   9.448
   72PPPE  H15S43247   3.501   5.866   9.438
   72PPPE  C21643248   3.396   5.904   9.624
   72PPPE  H16R43249   3.392   5.797   9.654
   72PPPE  H16S43250   3.482   5.951   9.677
   72PPPE  H16T43251   3.302   5.952   9.660
   72PPPE   C3343252   3.195   6.296   8.286
   72PPPE   H3X43253   3.188   6.187   8.305
   72PPPE   H3Y43254   3.091   6.332   8.271
   72PPPE   C3443255   3.253   6.367   8.409
   72PPPE   H4X43256   3.199   6.463   8.424
   72PPPE   H4Y43257   3.360   6.391   8.393
   72PPPE   C3543258   3.242   6.279   8.535
   72PPPE   H5X43259   3.322   6.202   8.528
   72PPPE   H5Y43260   3.144   6.228   8.535
   72PPPE   C3643261   3.255   6.357   8.667
   72PPPE   H6X43262   3.170   6.429   8.668
   72PPPE   H6Y43263   3.349   6.416   8.669
   72PPPE   C3743264   3.245   6.269   8.792
   72PPPE   H7X43265   3.343   6.218   8.808
   72PPPE   H7Y43266   3.167   6.191   8.777
   72PPPE   C3843267   3.207   6.347   8.919
   72PPPE   H8X43268   3.104   6.386   8.903
   72PPPE   H8Y43269   3.276   6.433   8.932
   72PPPE   C3943270   3.206   6.265   9.049
   72PPPE   H9X43271   3.179   6.159   9.028
   72PPPE   H9Y43272   3.126   6.305   9.115
   72PPPE  C31043273   3.338   6.274   9.127
   72PPPE  H10X43274   3.375   6.379   9.130
   72PPPE  H10Y43275   3.413   6.213   9.073
   72PPPE  C31143276   3.325   6.223   9.272
   72PPPE  H11X43277   3.422   6.180   9.302
   72PPPE  H11Y43278   3.248   6.142   9.274
   72PPPE  C31243279   3.284   6.327   9.377
   72PPPE  H12X43280   3.189   6.376   9.345
   72PPPE  H12Y43281   3.362   6.406   9.385
   72PPPE  C31343282   3.262   6.262   9.514
   72PPPE  H13X43283   3.360   6.231   9.557
   72PPPE  H13Y43284   3.201   6.170   9.501
   72PPPE  C31443285   3.188   6.352   9.614
   72PPPE  H14X43286   3.091   6.383   9.569
   72PPPE  H14Y43287   3.247   6.444   9.634
   72PPPE  C31543288   3.157   6.282   9.748
   72PPPE  H15X43289   3.108   6.184   9.727
   72PPPE  H15Y43290   3.085   6.344   9.805
   72PPPE  C31643291   3.280   6.256   9.837
   72PPPE  H16X43292   3.331   6.352   9.860
   72PPPE  H16Y43293   3.248   6.210   9.932
   72PPPE  H16Z43294   3.351   6.188   9.786
   73PPPE     N43295   2.454   5.369   7.614
   73PPPE   HN143296   2.440   5.418   7.524
   73PPPE   HN243297   2.529   5.419   7.666
   73PPPE   HN343298   2.485   5.271   7.602
   73PPPE   C1243299   2.336   5.378   7.708
   73PPPE  H12A43300   2.368   5.329   7.803
   73PPPE  H12B43301   2.251   5.321   7.665
   73PPPE   C1143302   2.296   5.525   7.739
   73PPPE  H11A43303   2.258   5.531   7.843
   73PPPE  H11B43304   2.211   5.552   7.673
   73PPPE     P43305   2.528   5.633   7.810
   73PPPE   O1343306   2.581   5.496   7.825
   73PPPE   O1443307   2.616   5.732   7.744
   73PPPE   O1143308   2.467   5.691   7.942
   73PPPE   O1243309   2.402   5.619   7.715
   73PPPE    C143310   2.360   5.787   7.935
   73PPPE    HA43311   2.265   5.733   7.957
   73PPPE    HB43312   2.346   5.832   7.834
   73PPPE    C243313   2.374   5.907   8.033
   73PPPE    HS43314   2.425   5.989   7.977
   73PPPE   O2143315   2.450   5.874   8.150
   73PPPE   C2143316   2.581   5.873   8.140
   73PPPE   O2243317   2.649   5.882   8.039
   73PPPE   C2243318   2.638   5.872   8.282
   73PPPE   H2R43319   2.574   5.938   8.344
   73PPPE   H2S43320   2.740   5.915   8.279
   73PPPE    C343321   2.233   5.960   8.077
   73PPPE    HX43322   2.242   6.071   8.083
   73PPPE    HY43323   2.157   5.939   7.998
   73PPPE   O3143324   2.191   5.915   8.207
   73PPPE   C3143325   2.140   5.793   8.216
   73PPPE   O3243326   2.112   5.720   8.122
   73PPPE   C3243327   2.120   5.758   8.362
   73PPPE   H2X43328   2.031   5.692   8.369
   73PPPE   H2Y43329   2.097   5.852   8.417
   73PPPE   C2343330   2.640   5.731   8.344
   73PPPE   H3R43331   2.722   5.670   8.299
   73PPPE   H3S43332   2.544   5.679   8.323
   73PPPE   C2443333   2.658   5.739   8.496
   73PPPE   H4R43334   2.578   5.804   8.538
   73PPPE   H4S43335   2.755   5.786   8.520
   73PPPE   C2543336   2.649   5.601   8.563
   73PPPE   H5R43337   2.731   5.536   8.527
   73PPPE   H5S43338   2.552   5.554   8.535
   73PPPE   C2643339   2.656   5.612   8.716
   73PPPE   H6R43340   2.581   5.687   8.750
   73PPPE   H6S43341   2.756   5.649   8.746
   73PPPE   C2743342   2.627   5.478   8.785
   73PPPE   H7R43343   2.701   5.403   8.749
   73PPPE   H7S43344   2.526   5.442   8.756
   73PPPE   C2843345   2.637   5.485   8.939
   73PPPE   H8R43346   2.741   5.511   8.966
   73PPPE   H8S43347   2.619   5.384   8.981
   73PPPE   C2943348   2.537   5.582   8.998
   73PPPE   H9143349   2.432   5.549   8.994
   73PPPE  C21043350   2.564   5.702   9.054
   73PPPE  H10143351   2.481   5.761   9.095
   73PPPE  C21143352   2.700   5.766   9.071
   73PPPE  H11R43353   2.706   5.858   9.009
   73PPPE  H11S43354   2.783   5.700   9.037
   73PPPE  C21243355   2.727   5.804   9.217
   73PPPE  H12R43356   2.650   5.876   9.251
   73PPPE  H12S43357   2.826   5.855   9.225
   73PPPE  C21343358   2.725   5.686   9.316
   73PPPE  H13R43359   2.809   5.616   9.294
   73PPPE  H13S43360   2.630   5.630   9.305
   73PPPE  C21443361   2.735   5.736   9.460
   73PPPE  H14R43362   2.659   5.815   9.475
   73PPPE  H14S43363   2.835   5.780   9.479
   73PPPE  C21543364   2.711   5.627   9.564
   73PPPE  H15R43365   2.630   5.559   9.529
   73PPPE  H15S43366   2.675   5.676   9.657
   73PPPE  C21643367   2.837   5.547   9.597
   73PPPE  H16R43368   2.813   5.460   9.662
   73PPPE  H16S43369   2.886   5.511   9.504
   73PPPE  H16T43370   2.910   5.612   9.652
   73PPPE   C3343371   2.246   5.691   8.422
   73PPPE   H3X43372   2.264   5.734   8.523
   73PPPE   H3Y43373   2.336   5.717   8.363
   73PPPE   C3443374   2.236   5.538   8.436
   73PPPE   H4X43375   2.329   5.502   8.485
   73PPPE   H4Y43376   2.231   5.492   8.335
   73PPPE   C3543377   2.116   5.488   8.519
   73PPPE   H5X43378   2.127   5.379   8.538
   73PPPE   H5Y43379   2.022   5.502   8.461
   73PPPE   C3643380   2.102   5.560   8.654
   73PPPE   H6X43381   2.102   5.670   8.639
   73PPPE   H6Y43382   2.191   5.535   8.716
   73PPPE   C3743383   1.973   5.527   8.729
   73PPPE   H7X43384   1.972   5.419   8.754
   73PPPE   H7Y43385   1.886   5.547   8.664
   73PPPE   C3843386   1.959   5.609   8.858
   73PPPE   H8X43387   1.867   5.577   8.911
   73PPPE   H8Y43388   1.947   5.717   8.834
   73PPPE   C3943389   2.079   5.593   8.953
   73PPPE   H9X43390   2.169   5.643   8.911
   73PPPE   H9Y43391   2.102   5.484   8.959
   73PPPE  C31043392   2.054   5.644   9.095
   73PPPE  H10X43393   2.123   5.589   9.162
   73PPPE  H10Y43394   1.950   5.619   9.127
   73PPPE  C31143395   2.081   5.794   9.111
   73PPPE  H11X43396   2.012   5.851   9.044
   73PPPE  H11Y43397   2.185   5.815   9.078
   73PPPE  C31243398   2.064   5.846   9.255
   73PPPE  H12X43399   1.957   5.844   9.283
   73PPPE  H12Y43400   2.098   5.951   9.259
   73PPPE  C31343401   2.143   5.763   9.358
   73PPPE  H13X43402   2.248   5.750   9.324
   73PPPE  H13Y43403   2.097   5.663   9.366
   73PPPE  C31443404   2.144   5.826   9.498
   73PPPE  H14X43405   2.041   5.858   9.524
   73PPPE  H14Y43406   2.208   5.917   9.498
   73PPPE  C31543407   2.192   5.728   9.605
   73PPPE  H15X43408   2.297   5.698   9.582
   73PPPE  H15Y43409   2.130   5.636   9.599
   73PPPE  C31643410   2.185   5.783   9.747
   73PPPE  H16X43411   2.204   5.703   9.822
   73PPPE  H16Y43412   2.261   5.863   9.762
   73PPPE  H16Z43413   2.084   5.825   9.768
   74PPPE     N43414   2.635   2.442   7.537
   74PPPE   HN143415   2.567   2.479   7.608
   74PPPE   HN243416   2.677   2.527   7.493
   74PPPE   HN343417   2.584   2.385   7.467
   74PPPE   C1243418   2.737   2.362   7.614
   74PPPE  H12A43419   2.837   2.387   7.574
   74PPPE  H12B43420   2.715   2.255   7.597
   74PPPE   C1143421   2.727   2.392   7.764
   74PPPE  H11A43422   2.748   2.500   7.784
   74PPPE  H11B43423   2.806   2.334   7.817
   74PPPE     P43424   2.481   2.452   7.843
   74PPPE   O1343425   2.485   2.545   7.727
   74PPPE   O1443426   2.359   2.371   7.858
   74PPPE   O1143427   2.523   2.527   7.976
   74PPPE   O1243428   2.601   2.351   7.815
   74PPPE    C143429   2.630   2.482   8.059
   74PPPE    HA43430   2.726   2.524   8.023
   74PPPE    HB43431   2.639   2.371   8.057
   74PPPE    C243432   2.612   2.525   8.209
   74PPPE    HS43433   2.518   2.583   8.217
   74PPPE   O2143434   2.729   2.603   8.244
   74PPPE   C2143435   2.712   2.705   8.328
   74PPPE   O2243436   2.608   2.734   8.383
   74PPPE   C2243437   2.843   2.791   8.336
   74PPPE   H2R43438   2.820   2.889   8.289
   74PPPE   H2S43439   2.920   2.743   8.272
   74PPPE    C343440   2.595   2.393   8.292
   74PPPE    HX43441   2.520   2.333   8.236
   74PPPE    HY43442   2.692   2.338   8.288
   74PPPE   O3143443   2.552   2.409   8.429
   74PPPE   C3143444   2.530   2.289   8.486
   74PPPE   O3243445   2.547   2.183   8.429
   74PPPE   C3243446   2.492   2.302   8.634
   74PPPE   H2X43447   2.586   2.302   8.692
   74PPPE   H2Y43448   2.434   2.211   8.661
   74PPPE   C2343449   2.900   2.814   8.480
   74PPPE   H3R43450   2.844   2.742   8.544
   74PPPE   H3S43451   2.871   2.915   8.517
   74PPPE   C2443452   3.053   2.792   8.500
   74PPPE   H4R43453   3.105   2.880   8.454
   74PPPE   H4S43454   3.088   2.703   8.444
   74PPPE   C2543455   3.105   2.777   8.647
   74PPPE   H5R43456   3.019   2.796   8.714
   74PPPE   H5S43457   3.176   2.860   8.667
   74PPPE   C2643458   3.175   2.643   8.693
   74PPPE   H6R43459   3.285   2.652   8.686
   74PPPE   H6S43460   3.147   2.559   8.626
   74PPPE   C2743461   3.136   2.609   8.840
   74PPPE   H7R43462   3.025   2.620   8.841
   74PPPE   H7S43463   3.178   2.690   8.903
   74PPPE   C2843464   3.166   2.472   8.913
   74PPPE   H8R43465   3.174   2.497   9.021
   74PPPE   H8S43466   3.270   2.444   8.883
   74PPPE   C2943467   3.077   2.348   8.906
   74PPPE   H9143468   3.109   2.281   8.824
   74PPPE  C21043469   2.966   2.306   8.974
   74PPPE  H10143470   2.923   2.209   8.943
   74PPPE  C21143471   2.885   2.367   9.087
   74PPPE  H11R43472   2.802   2.424   9.039
   74PPPE  H11S43473   2.944   2.441   9.145
   74PPPE  C21243474   2.809   2.274   9.187
   74PPPE  H12R43475   2.878   2.241   9.268
   74PPPE  H12S43476   2.772   2.183   9.134
   74PPPE  C21343477   2.687   2.346   9.248
   74PPPE  H13R43478   2.614   2.368   9.166
   74PPPE  H13S43479   2.723   2.444   9.286
   74PPPE  C21443480   2.610   2.279   9.364
   74PPPE  H14R43481   2.678   2.269   9.451
   74PPPE  H14S43482   2.573   2.178   9.336
   74PPPE  C21543483   2.491   2.368   9.406
   74PPPE  H15R43484   2.412   2.368   9.327
   74PPPE  H15S43485   2.535   2.470   9.408
   74PPPE  C21643486   2.428   2.352   9.544
   74PPPE  H16R43487   2.506   2.332   9.621
   74PPPE  H16S43488   2.376   2.445   9.574
   74PPPE  H16T43489   2.353   2.270   9.544
   74PPPE   C3343490   2.409   2.428   8.669
   74PPPE   H3X43491   2.306   2.417   8.628
   74PPPE   H3Y43492   2.454   2.518   8.622
   74PPPE   C3443493   2.403   2.452   8.820
   74PPPE   H4X43494   2.507   2.471   8.855
   74PPPE   H4Y43495   2.367   2.361   8.873
   74PPPE   C3543496   2.313   2.571   8.855
   74PPPE   H5X43497   2.207   2.540   8.838
   74PPPE   H5Y43498   2.335   2.654   8.784
   74PPPE   C3643499   2.330   2.626   8.998
   74PPPE   H6X43500   2.310   2.547   9.073
   74PPPE   H6Y43501   2.257   2.709   9.016
   74PPPE   C3743502   2.469   2.685   9.018
   74PPPE   H7X43503   2.493   2.751   8.931
   74PPPE   H7Y43504   2.538   2.598   9.017
   74PPPE   C3843505   2.491   2.765   9.147
   74PPPE   H8X43506   2.396   2.811   9.180
   74PPPE   H8Y43507   2.564   2.846   9.125
   74PPPE   C3943508   2.550   2.676   9.257
   74PPPE   H9X43509   2.654   2.647   9.231
   74PPPE   H9Y43510   2.487   2.584   9.253
   74PPPE  C31043511   2.546   2.732   9.401
   74PPPE  H10X43512   2.489   2.661   9.464
   74PPPE  H10Y43513   2.486   2.825   9.404
   74PPPE  C31143514   2.684   2.754   9.467
   74PPPE  H11X43515   2.667   2.813   9.560
   74PPPE  H11Y43516   2.750   2.815   9.401
   74PPPE  C31243517   2.756   2.624   9.508
   74PPPE  H12X43518   2.821   2.589   9.425
   74PPPE  H12Y43519   2.679   2.545   9.526
   74PPPE  C31343520   2.837   2.632   9.638
   74PPPE  H13X43521   2.773   2.662   9.724
   74PPPE  H13Y43522   2.914   2.712   9.629
   74PPPE  C31443523   2.905   2.500   9.675
   74PPPE  H14X43524   2.976   2.520   9.758
   74PPPE  H14Y43525   2.963   2.464   9.587
   74PPPE  C31543526   2.814   2.387   9.726
   74PPPE  H15X43527   2.858   2.290   9.693
   74PPPE  H15Y43528   2.713   2.394   9.680
   74PPPE  C31643529   2.803   2.385   9.878
   74PPPE  H16X43530   2.904   2.377   9.925
   74PPPE  H16Y43531   2.754   2.477   9.916
   74PPPE  H16Z43532   2.744   2.296   9.912
   75PPPE     N43533   3.369   1.846   7.543
   75PPPE   HN143534   3.392   1.870   7.445
   75PPPE   HN243535   3.411   1.918   7.606
   75PPPE   HN343536   3.414   1.756   7.571
   75PPPE   C1243537   3.224   1.849   7.582
   75PPPE  H12A43538   3.166   1.787   7.509
   75PPPE  H12B43539   3.190   1.954   7.575
   75PPPE   C1143540   3.206   1.798   7.727
   75PPPE  H11A43541   3.193   1.688   7.724
   75PPPE  H11B43542   3.112   1.839   7.770
   75PPPE     P43543   3.358   1.974   7.852
   75PPPE   O1343544   3.451   1.967   7.966
   75PPPE   O1443545   3.410   2.036   7.727
   75PPPE   O1143546   3.219   2.038   7.889
   75PPPE   O1243547   3.318   1.827   7.809
   75PPPE    C143548   3.146   2.003   8.008
   75PPPE    HA43549   3.185   1.912   8.059
   75PPPE    HB43550   3.041   1.981   7.979
   75PPPE    C243551   3.143   2.119   8.111
   75PPPE    HS43552   3.132   2.214   8.055
   75PPPE   O2143553   3.263   2.115   8.189
   75PPPE   C2143554   3.364   2.190   8.148
   75PPPE   O2243555   3.360   2.274   8.059
   75PPPE   C2243556   3.491   2.150   8.221
   75PPPE   H2R43557   3.567   2.129   8.142
   75PPPE   H2S43558   3.474   2.055   8.277
   75PPPE    C343559   3.019   2.112   8.206
   75PPPE    HX43560   3.006   2.212   8.253
   75PPPE    HY43561   2.928   2.099   8.142
   75PPPE   O3143562   3.023   2.003   8.302
   75PPPE   C3143563   3.072   2.041   8.422
   75PPPE   O3243564   3.110   2.152   8.449
   75PPPE   C3243565   3.069   1.928   8.523
   75PPPE   H2X43566   3.069   1.830   8.472
   75PPPE   H2Y43567   2.975   1.939   8.581
   75PPPE   C2343568   3.545   2.259   8.316
   75PPPE   H3R43569   3.527   2.361   8.275
   75PPPE   H3S43570   3.654   2.246   8.326
   75PPPE   C2443571   3.485   2.247   8.457
   75PPPE   H4R43572   3.505   2.144   8.492
   75PPPE   H4S43573   3.375   2.259   8.452
   75PPPE   C2543574   3.543   2.348   8.557
   75PPPE   H5R43575   3.525   2.451   8.518
   75PPPE   H5S43576   3.653   2.335   8.564
   75PPPE   C2643577   3.480   2.338   8.697
   75PPPE   H6R43578   3.371   2.355   8.686
   75PPPE   H6S43579   3.521   2.419   8.761
   75PPPE   C2743580   3.503   2.203   8.766
   75PPPE   H7R43581   3.610   2.191   8.794
   75PPPE   H7S43582   3.479   2.121   8.694
   75PPPE   C2843583   3.411   2.179   8.887
   75PPPE   H8R43584   3.402   2.070   8.902
   75PPPE   H8S43585   3.309   2.213   8.860
   75PPPE   C2943586   3.456   2.246   9.014
   75PPPE   H9143587   3.418   2.348   9.030
   75PPPE  C21043588   3.536   2.191   9.107
   75PPPE  H10143589   3.557   2.247   9.199
   75PPPE  C21143590   3.597   2.053   9.101
   75PPPE  H11R43591   3.708   2.059   9.100
   75PPPE  H11S43592   3.569   2.000   9.007
   75PPPE  C21243593   3.553   1.963   9.218
   75PPPE  H12R43594   3.537   1.860   9.180
   75PPPE  H12S43595   3.455   1.997   9.258
   75PPPE  C21343596   3.655   1.955   9.332
   75PPPE  H13R43597   3.676   2.057   9.372
   75PPPE  H13S43598   3.750   1.913   9.294
   75PPPE  C21443599   3.603   1.869   9.448
   75PPPE  H14R43600   3.561   1.774   9.409
   75PPPE  H14S43601   3.521   1.925   9.498
   75PPPE  C21543602   3.710   1.837   9.553
   75PPPE  H15R43603   3.756   1.932   9.587
   75PPPE  H15S43604   3.790   1.776   9.506
   75PPPE  C21643605   3.653   1.762   9.674
   75PPPE  H16R43606   3.731   1.746   9.751
   75PPPE  H16S43607   3.571   1.821   9.720
   75PPPE  H16T43608   3.612   1.664   9.643
   75PPPE   C3343609   3.190   1.941   8.619
   75PPPE   H3X43610   3.204   2.047   8.652
   75PPPE   H3Y43611   3.282   1.912   8.564
   75PPPE   C3443612   3.175   1.857   8.746
   75PPPE   H4X43613   3.277   1.835   8.785
   75PPPE   H4Y43614   3.127   1.759   8.720
   75PPPE   C3543615   3.095   1.928   8.856
   75PPPE   H5X43616   3.001   1.969   8.814
   75PPPE   H5Y43617   3.155   2.014   8.892
   75PPPE   C3643618   3.061   1.838   8.975
   75PPPE   H6X43619   2.980   1.767   8.947
   75PPPE   H6Y43620   3.021   1.902   9.056
   75PPPE   C3743621   3.181   1.757   9.028
   75PPPE   H7X43622   3.273   1.818   9.021
   75PPPE   H7Y43623   3.194   1.667   8.965
   75PPPE   C3843624   3.162   1.715   9.175
   75PPPE   H8X43625   3.225   1.626   9.197
   75PPPE   H8Y43626   3.056   1.687   9.192
   75PPPE   C3943627   3.203   1.828   9.271
   75PPPE   H9X43628   3.160   1.924   9.235
   75PPPE   H9Y43629   3.314   1.837   9.269
   75PPPE  C31043630   3.158   1.804   9.415
   75PPPE  H10X43631   3.190   1.703   9.447
   75PPPE  H10Y43632   3.047   1.806   9.420
   75PPPE  C31143633   3.215   1.906   9.515
   75PPPE  H11X43634   3.323   1.883   9.530
   75PPPE  H11Y43635   3.165   1.891   9.614
   75PPPE  C31243636   3.202   2.055   9.478
   75PPPE  H12X43637   3.094   2.081   9.469
   75PPPE  H12Y43638   3.251   2.077   9.381
   75PPPE  C31343639   3.266   2.143   9.587
   75PPPE  H13X43640   3.376   2.128   9.588
   75PPPE  H13Y43641   3.227   2.106   9.684
   75PPPE  C31443642   3.235   2.293   9.580
   75PPPE  H14X43643   3.137   2.311   9.530
   75PPPE  H14Y43644   3.313   2.345   9.521
   75PPPE  C31543645   3.228   2.351   9.723
   75PPPE  H15X43646   3.311   2.305   9.781
   75PPPE  H15Y43647   3.134   2.317   9.770
   75PPPE  C31643648   3.240   2.503   9.735
   75PPPE  H16X43649   3.232   2.534   9.842
   75PPPE  H16Y43650   3.337   2.540   9.695
   75PPPE  H16Z43651   3.158   2.555   9.680
   76PPPE     N43652   5.547   5.907   7.628
   76PPPE   HN143653   5.602   5.993   7.607
   76PPPE   HN243654   5.568   5.834   7.557
   76PPPE   HN343655   5.446   5.932   7.625
   76PPPE   C1243656   5.574   5.872   7.772
   76PPPE  H12A43657   5.675   5.827   7.779
   76PPPE  H12B43658   5.497   5.798   7.803
   76PPPE   C1143659   5.564   5.999   7.861
   76PPPE  H11A43660   5.666   6.043   7.869
   76PPPE  H11B43661   5.534   5.971   7.965
   76PPPE     P43662   5.320   6.079   7.813
   76PPPE   O1343663   5.256   6.195   7.748
   76PPPE   O1443664   5.295   5.948   7.750
   76PPPE   O1143665   5.295   6.077   7.970
   76PPPE   O1243666   5.478   6.100   7.807
   76PPPE    C143667   5.305   6.198   8.046
   76PPPE    HA43668   5.203   6.238   8.066
   76PPPE    HB43669   5.361   6.277   7.993
   76PPPE    C243670   5.376   6.179   8.184
   76PPPE    HS43671   5.466   6.116   8.167
   76PPPE   O2143672   5.284   6.117   8.277
   76PPPE   C2143673   5.341   6.049   8.376
   76PPPE   O2243674   5.461   6.028   8.387
   76PPPE   C2243675   5.232   6.004   8.474
   76PPPE   H2R43676   5.159   5.946   8.416
   76PPPE   H2S43677   5.181   6.095   8.514
   76PPPE    C343678   5.422   6.318   8.239
   76PPPE    HX43679   5.493   6.364   8.167
   76PPPE    HY43680   5.331   6.382   8.239
   76PPPE   O3143681   5.473   6.315   8.374
   76PPPE   C3143682   5.605   6.303   8.389
   76PPPE   O3243683   5.687   6.305   8.299
   76PPPE   C3243684   5.634   6.293   8.539
   76PPPE   H2X43685   5.581   6.204   8.577
   76PPPE   H2Y43686   5.591   6.383   8.587
   76PPPE   C2343687   5.284   5.917   8.592
   76PPPE   H3R43688   5.358   5.842   8.556
   76PPPE   H3S43689   5.197   5.860   8.633
   76PPPE   C2443690   5.344   5.998   8.708
   76PPPE   H4R43691   5.268   6.070   8.745
   76PPPE   H4S43692   5.431   6.056   8.672
   76PPPE   C2543693   5.389   5.908   8.825
   76PPPE   H5R43694   5.469   5.841   8.788
   76PPPE   H5S43695   5.304   5.845   8.860
   76PPPE   C2643696   5.444   5.988   8.945
   76PPPE   H6R43697   5.513   6.066   8.905
   76PPPE   H6S43698   5.504   5.921   9.010
   76PPPE   C2743699   5.335   6.055   9.030
   76PPPE   H7R43700   5.311   5.989   9.116
   76PPPE   H7S43701   5.243   6.066   8.970
   76PPPE   C2843702   5.377   6.195   9.081
   76PPPE   H8R43703   5.397   6.260   8.993
   76PPPE   H8S43704   5.473   6.185   9.137
   76PPPE   C2943705   5.270   6.256   9.168
   76PPPE   H9143706   5.166   6.233   9.137
   76PPPE  C21043707   5.289   6.332   9.277
   76PPPE  H10143708   5.202   6.367   9.334
   76PPPE  C21143709   5.423   6.372   9.335
   76PPPE  H11R43710   5.414   6.471   9.385
   76PPPE  H11S43711   5.499   6.384   9.256
   76PPPE  C21243712   5.478   6.270   9.438
   76PPPE  H12R43713   5.573   6.311   9.478
   76PPPE  H12S43714   5.503   6.175   9.386
   76PPPE  C21343715   5.385   6.238   9.556
   76PPPE  H13R43716   5.441   6.172   9.626
   76PPPE  H13S43717   5.297   6.180   9.520
   76PPPE  C21443718   5.336   6.361   9.633
   76PPPE  H14R43719   5.268   6.421   9.568
   76PPPE  H14S43720   5.423   6.425   9.658
   76PPPE  C21543721   5.261   6.327   9.763
   76PPPE  H15R43722   5.181   6.254   9.741
   76PPPE  H15S43723   5.212   6.420   9.801
   76PPPE  C21643724   5.352   6.273   9.874
   76PPPE  H16R43725   5.399   6.177   9.844
   76PPPE  H16S43726   5.434   6.345   9.897
   76PPPE  H16T43727   5.294   6.256   9.967
   76PPPE   C3343728   5.785   6.283   8.574
   76PPPE   H3X43729   5.842   6.360   8.518
   76PPPE   H3Y43730   5.823   6.183   8.543
   76PPPE   C3443731   5.813   6.303   8.724
   76PPPE   H4X43732   5.791   6.408   8.753
   76PPPE   H4Y43733   5.922   6.286   8.743
   76PPPE   C3543734   5.731   6.213   8.817
   76PPPE   H5X43735   5.762   6.107   8.803
   76PPPE   H5Y43736   5.623   6.221   8.791
   76PPPE   C3643737   5.744   6.251   8.966
   76PPPE   H6X43738   5.679   6.183   9.025
   76PPPE   H6Y43739   5.706   6.354   8.982
   76PPPE   C3743740   5.887   6.241   9.019
   76PPPE   H7X43741   5.952   6.316   8.967
   76PPPE   H7Y43742   5.927   6.140   8.996
   76PPPE   C3843743   5.899   6.264   9.170
   76PPPE   H8X43744   5.872   6.369   9.196
   76PPPE   H8Y43745   6.005   6.249   9.197
   76PPPE   C3943746   5.815   6.168   9.256
   76PPPE   H9X43747   5.794   6.075   9.199
   76PPPE   H9Y43748   5.718   6.216   9.281
   76PPPE  C31043749   5.891   6.131   9.384
   76PPPE  H10X43750   5.931   6.223   9.431
   76PPPE  H10Y43751   5.977   6.068   9.353
   76PPPE  C31143752   5.809   6.055   9.489
   76PPPE  H11X43753   5.730   6.122   9.528
   76PPPE  H11Y43754   5.876   6.030   9.574
   76PPPE  C31243755   5.744   5.925   9.438
   76PPPE  H12X43756   5.820   5.867   9.381
   76PPPE  H12Y43757   5.661   5.951   9.368
   76PPPE  C31343758   5.690   5.837   9.551
   76PPPE  H13X43759   5.776   5.800   9.612
   76PPPE  H13Y43760   5.638   5.749   9.508
   76PPPE  C31443761   5.594   5.911   9.645
   76PPPE  H14X43762   5.509   5.952   9.586
   76PPPE  H14Y43763   5.645   5.997   9.694
   76PPPE  C31543764   5.539   5.820   9.756
   76PPPE  H15X43765   5.623   5.781   9.816
   76PPPE  H15Y43766   5.490   5.733   9.707
   76PPPE  C31643767   5.439   5.891   9.848
   76PPPE  H16X43768   5.489   5.973   9.904
   76PPPE  H16Y43769   5.355   5.934   9.790
   76PPPE  H16Z43770   5.398   5.819   9.923
   77PPPE     N43771   1.807   2.848   7.552
   77PPPE   HN143772   1.703   2.859   7.544
   77PPPE   HN243773   1.843   2.784   7.479
   77PPPE   HN343774   1.829   2.804   7.644
   77PPPE   C1243775   1.881   2.979   7.556
   77PPPE  H12A43776   1.856   3.037   7.465
   77PPPE  H12B43777   1.990   2.955   7.556
   77PPPE   C1143778   1.847   3.057   7.685
   77PPPE  H11A43779   1.750   3.108   7.669
   77PPPE  H11B43780   1.923   3.137   7.701
   77PPPE     P43781   1.959   2.889   7.852
   77PPPE   O1343782   1.954   2.768   7.765
   77PPPE   O1443783   2.079   2.974   7.840
   77PPPE   O1143784   1.922   2.853   7.999
   77PPPE   O1243785   1.835   2.974   7.801
   77PPPE    C143786   1.812   2.908   8.072
   77PPPE    HA43787   1.768   2.828   8.136
   77PPPE    HB43788   1.731   2.945   8.006
   77PPPE    C243789   1.857   3.022   8.168
   77PPPE    HS43790   1.922   3.091   8.111
   77PPPE   O2143791   1.931   2.963   8.276
   77PPPE   C2143792   1.968   3.046   8.372
   77PPPE   O2243793   1.970   3.167   8.365
   77PPPE   C2243794   1.984   2.967   8.501
   77PPPE   H2R43795   1.908   2.885   8.500
   77PPPE   H2S43796   1.959   3.037   8.584
   77PPPE    C343797   1.732   3.101   8.219
   77PPPE    HX43798   1.765   3.200   8.258
   77PPPE    HY43799   1.667   3.120   8.130
   77PPPE   O3143800   1.660   3.025   8.317
   77PPPE   C3143801   1.575   3.094   8.392
   77PPPE   O3243802   1.544   3.210   8.374
   77PPPE   C3243803   1.520   3.008   8.505
   77PPPE   H2X43804   1.409   3.010   8.494
   77PPPE   H2Y43805   1.547   3.060   8.600
   77PPPE   C2343806   2.124   2.908   8.526
   77PPPE   H3R43807   2.202   2.983   8.499
   77PPPE   H3S43808   2.140   2.819   8.461
   77PPPE   C2443809   2.142   2.871   8.674
   77PPPE   H4R43810   2.138   2.965   8.733
   77PPPE   H4S43811   2.243   2.827   8.689
   77PPPE   C2543812   2.034   2.775   8.727
   77PPPE   H5R43813   2.053   2.672   8.690
   77PPPE   H5S43814   1.934   2.806   8.690
   77PPPE   C2643815   2.024   2.775   8.880
   77PPPE   H6R43816   2.071   2.866   8.922
   77PPPE   H6S43817   2.078   2.687   8.920
   77PPPE   C2743818   1.880   2.766   8.932
   77PPPE   H7R43819   1.834   2.676   8.886
   77PPPE   H7S43820   1.822   2.854   8.898
   77PPPE   C2843821   1.876   2.756   9.085
   77PPPE   H8R43822   1.895   2.856   9.128
   77PPPE   H8S43823   1.960   2.691   9.118
   77PPPE   C2943824   1.745   2.700   9.134
   77PPPE   H9143825   1.667   2.688   9.057
   77PPPE  C21043826   1.720   2.657   9.258
   77PPPE  H10143827   1.619   2.619   9.283
   77PPPE  C21143828   1.818   2.656   9.372
   77PPPE  H11R43829   1.923   2.668   9.336
   77PPPE  H11S43830   1.814   2.559   9.426
   77PPPE  C21243831   1.792   2.770   9.472
   77PPPE  H12R43832   1.783   2.864   9.414
   77PPPE  H12S43833   1.879   2.781   9.541
   77PPPE  C21343834   1.667   2.749   9.558
   77PPPE  H13R43835   1.583   2.715   9.493
   77PPPE  H13S43836   1.637   2.846   9.603
   77PPPE  C21443837   1.691   2.651   9.673
   77PPPE  H14R43838   1.774   2.689   9.737
   77PPPE  H14S43839   1.723   2.552   9.632
   77PPPE  C21543840   1.567   2.630   9.761
   77PPPE  H15R43841   1.540   2.727   9.808
   77PPPE  H15S43842   1.592   2.559   9.842
   77PPPE  C21643843   1.446   2.578   9.683
   77PPPE  H16R43844   1.414   2.650   9.605
   77PPPE  H16S43845   1.472   2.482   9.633
   77PPPE  H16T43846   1.361   2.561   9.752
   77PPPE   C3343847   1.566   2.861   8.512
   77PPPE   H3X43848   1.664   2.855   8.563
   77PPPE   H3Y43849   1.579   2.820   8.410
   77PPPE   C3443850   1.463   2.772   8.583
   77PPPE   H4X43851   1.504   2.669   8.590
   77PPPE   H4Y43852   1.372   2.768   8.518
   77PPPE   C3543853   1.416   2.816   8.722
   77PPPE   H5X43854   1.354   2.736   8.766
   77PPPE   H5Y43855   1.352   2.907   8.714
   77PPPE   C3643856   1.532   2.845   8.818
   77PPPE   H6X43857   1.582   2.940   8.789
   77PPPE   H6Y43858   1.606   2.764   8.810
   77PPPE   C3743859   1.489   2.855   8.966
   77PPPE   H7X43860   1.581   2.883   9.022
   77PPPE   H7Y43861   1.457   2.754   9.001
   77PPPE   C3843862   1.380   2.957   8.999
   77PPPE   H8X43863   1.286   2.932   8.944
   77PPPE   H8Y43864   1.413   3.057   8.962
   77PPPE   C3943865   1.348   2.969   9.150
   77PPPE   H9X43866   1.287   2.881   9.180
   77PPPE   H9Y43867   1.286   3.059   9.166
   77PPPE  C31043868   1.471   2.976   9.242
   77PPPE  H10X43869   1.529   2.881   9.236
   77PPPE  H10Y43870   1.437   2.986   9.348
   77PPPE  C31143871   1.563   3.094   9.208
   77PPPE  H11X43872   1.509   3.188   9.235
   77PPPE  H11Y43873   1.582   3.094   9.099
   77PPPE  C31243874   1.700   3.095   9.276
   77PPPE  H12X43875   1.759   3.181   9.236
   77PPPE  H12Y43876   1.755   3.002   9.250
   77PPPE  C31343877   1.693   3.110   9.428
   77PPPE  H13X43878   1.640   3.021   9.470
   77PPPE  H13Y43879   1.632   3.199   9.455
   77PPPE  C31443880   1.832   3.121   9.492
   77PPPE  H14X43881   1.878   3.220   9.468
   77PPPE  H14Y43882   1.898   3.043   9.448
   77PPPE  C31543883   1.831   3.101   9.644
   77PPPE  H15X43884   1.761   3.018   9.668
   77PPPE  H15Y43885   1.791   3.192   9.694
   77PPPE  C31643886   1.968   3.065   9.701
   77PPPE  H16X43887   2.009   2.975   9.651
   77PPPE  H16Y43888   2.040   3.149   9.686
   77PPPE  H16Z43889   1.961   3.044   9.810
   78PPPE     N43890   6.105   5.802   7.779
   78PPPE   HN143891   6.146   5.888   7.821
   78PPPE   HN243892   6.183   5.742   7.744
   78PPPE   HN343893   6.048   5.833   7.699
   78PPPE   C1243894   6.032   5.713   7.876
   78PPPE  H12A43895   5.953   5.660   7.819
   78PPPE  H12B43896   5.986   5.776   7.955
   78PPPE   C1143897   6.133   5.612   7.931
   78PPPE  H11A43898   6.078   5.533   7.988
   78PPPE  H11B43899   6.199   5.662   8.006
   78PPPE     P43900   6.180   5.424   7.755
   78PPPE   O1343901   6.056   5.446   7.677
   78PPPE   O1443902   6.300   5.379   7.680
   78PPPE   O1143903   6.156   5.323   7.874
   78PPPE   O1243904   6.215   5.560   7.826
   78PPPE    C143905   6.253   5.316   7.979
   78PPPE    HA43906   6.296   5.415   8.006
   78PPPE    HB43907   6.338   5.251   7.948
   78PPPE    C243908   6.198   5.256   8.112
   78PPPE    HS43909   6.141   5.165   8.085
   78PPPE   O2143910   6.113   5.352   8.178
   78PPPE   C2143911   6.046   5.300   8.281
   78PPPE   O2243912   6.033   5.181   8.303
   78PPPE   C2243913   5.991   5.411   8.370
   78PPPE   H2R43914   5.884   5.389   8.393
   78PPPE   H2S43915   5.996   5.507   8.315
   78PPPE    C343916   6.317   5.214   8.204
   78PPPE    HX43917   6.277   5.162   8.293
   78PPPE    HY43918   6.380   5.139   8.150
   78PPPE   O3143919   6.394   5.328   8.248
   78PPPE   C3143920   6.503   5.361   8.182
   78PPPE   O3243921   6.545   5.306   8.081
   78PPPE   C3243922   6.567   5.486   8.246
   78PPPE   H2X43923   6.507   5.574   8.214
   78PPPE   H2Y43924   6.669   5.496   8.202
   78PPPE   C2343925   6.071   5.424   8.502
   78PPPE   H3R43926   6.046   5.521   8.551
   78PPPE   H3S43927   6.180   5.427   8.480
   78PPPE   C2443928   6.043   5.312   8.604
   78PPPE   H4R43929   6.061   5.213   8.557
   78PPPE   H4S43930   5.937   5.316   8.635
   78PPPE   C2543931   6.132   5.324   8.729
   78PPPE   H5R43932   6.111   5.421   8.780
   78PPPE   H5S43933   6.238   5.324   8.697
   78PPPE   C2643934   6.112   5.209   8.829
   78PPPE   H6R43935   6.138   5.113   8.778
   78PPPE   H6S43936   6.004   5.203   8.857
   78PPPE   C2743937   6.198   5.222   8.956
   78PPPE   H7R43938   6.304   5.235   8.926
   78PPPE   H7S43939   6.192   5.129   9.016
   78PPPE   C2843940   6.159   5.338   9.050
   78PPPE   H8R43941   6.179   5.435   8.999
   78PPPE   H8S43942   6.227   5.333   9.138
   78PPPE   C2943943   6.016   5.331   9.098
   78PPPE   H9143944   5.969   5.232   9.093
   78PPPE  C21043945   5.947   5.435   9.149
   78PPPE  H10143946   5.844   5.419   9.183
   78PPPE  C21143947   6.000   5.575   9.167
   78PPPE  H11R43948   5.916   5.646   9.183
   78PPPE  H11S43949   6.054   5.608   9.076
   78PPPE  C21243950   6.096   5.586   9.287
   78PPPE  H12R43951   6.139   5.688   9.288
   78PPPE  H12S43952   6.180   5.515   9.276
   78PPPE  C21343953   6.027   5.562   9.423
   78PPPE  H13R43954   5.980   5.461   9.423
   78PPPE  H13S43955   5.947   5.638   9.437
   78PPPE  C21443956   6.126   5.569   9.540
   78PPPE  H14R43957   6.196   5.653   9.524
   78PPPE  H14S43958   6.186   5.476   9.541
   78PPPE  C21543959   6.057   5.588   9.676
   78PPPE  H15R43960   5.986   5.504   9.693
   78PPPE  H15S43961   5.997   5.682   9.672
   78PPPE  C21643962   6.154   5.596   9.793
   78PPPE  H16R43963   6.232   5.673   9.773
   78PPPE  H16S43964   6.102   5.625   9.887
   78PPPE  H16T43965   6.205   5.499   9.810
   78PPPE   C3343966   6.578   5.486   8.402
   78PPPE   H3X43967   6.633   5.578   8.430
   78PPPE   H3Y43968   6.637   5.399   8.438
   78PPPE   C3443969   6.441   5.490   8.472
   78PPPE   H4X43970   6.395   5.389   8.471
   78PPPE   H4Y43971   6.375   5.559   8.415
   78PPPE   C3543972   6.442   5.537   8.618
   78PPPE   H5X43973   6.337   5.558   8.648
   78PPPE   H5Y43974   6.497   5.634   8.627
   78PPPE   C3643975   6.498   5.435   8.718
   78PPPE   H6X43976   6.607   5.421   8.702
   78PPPE   H6Y43977   6.451   5.335   8.703
   78PPPE   C3743978   6.470   5.481   8.862
   78PPPE   H7X43979   6.361   5.474   8.882
   78PPPE   H7Y43980   6.497   5.589   8.871
   78PPPE   C3843981   6.546   5.405   8.971
   78PPPE   H8X43982   6.655   5.411   8.950
   78PPPE   H8Y43983   6.517   5.298   8.970
   78PPPE   C3943984   6.519   5.465   9.110
   78PPPE   H9X43985   6.411   5.460   9.135
   78PPPE   H9Y43986   6.547   5.573   9.107
   78PPPE  C31043987   6.601   5.399   9.222
   78PPPE  H10X43988   6.606   5.468   9.309
   78PPPE  H10Y43989   6.704   5.383   9.184
   78PPPE  C31143990   6.545   5.264   9.271
   78PPPE  H11X43991   6.630   5.205   9.310
   78PPPE  H11Y43992   6.502   5.209   9.185
   78PPPE  C31243993   6.441   5.276   9.384
   78PPPE  H12X43994   6.388   5.179   9.392
   78PPPE  H12Y43995   6.366   5.354   9.359
   78PPPE  C31343996   6.505   5.306   9.521
   78PPPE  H13X43997   6.542   5.411   9.523
   78PPPE  H13Y43998   6.593   5.239   9.536
   78PPPE  C31443999   6.407   5.283   9.638
   78PPPE  H14X44000   6.373   5.177   9.636
   78PPPE  H14Y44001   6.317   5.346   9.623
   78PPPE  C31544002   6.465   5.314   9.776
   78PPPE  H15X44003   6.552   5.248   9.796
   78PPPE  H15Y44004   6.388   5.290   9.852
   78PPPE  C31644005   6.509   5.460   9.794
   78PPPE  H16X44006   6.532   5.481   9.901
   78PPPE  H16Y44007   6.600   5.482   9.734
   78PPPE  H16Z44008   6.428   5.529   9.762
   79PPPE     N44009   6.612   4.346   7.679
   79PPPE   HN144010   6.620   4.312   7.777
   79PPPE   HN244011   6.631   4.448   7.673
   79PPPE   HN344012   6.515   4.327   7.646
   79PPPE   C1244013   6.710   4.272   7.592
   79PPPE  H12A44014   6.812   4.309   7.618
   79PPPE  H12B44015   6.688   4.297   7.486
   79PPPE   C1144016   6.701   4.121   7.617
   79PPPE  H11A44017   6.776   4.068   7.554
   79PPPE  H11B44018   6.602   4.084   7.584
   79PPPE     P44019   6.621   4.028   7.846
   79PPPE   O1344020   6.501   4.115   7.836
   79PPPE   O1444021   6.609   3.888   7.799
   79PPPE   O1144022   6.688   4.036   7.988
   79PPPE   O1244023   6.730   4.095   7.754
   79PPPE    C144024   6.825   3.996   8.005
   79PPPE    HA44025   6.887   4.017   7.916
   79PPPE    HB44026   6.830   3.887   8.027
   79PPPE    C244027   6.892   4.072   8.123
   79PPPE    HS44028   7.002   4.061   8.109
   79PPPE   O2144029   6.854   4.007   8.245
   79PPPE   C2144030   6.909   4.054   8.356
   79PPPE   O2244031   7.003   4.131   8.361
   79PPPE   C2244032   6.836   3.993   8.475
   79PPPE   H2R44033   6.882   4.030   8.569
   79PPPE   H2S44034   6.852   3.883   8.469
   79PPPE    C344035   6.860   4.225   8.121
   79PPPE    HX44036   6.941   4.278   8.176
   79PPPE    HY44037   6.866   4.259   8.015
   79PPPE   O3144038   6.734   4.255   8.184
   79PPPE   C3144039   6.644   4.324   8.118
   79PPPE   O3244040   6.653   4.364   8.003
   79PPPE   C3244041   6.524   4.349   8.211
   79PPPE   H2X44042   6.497   4.253   8.259
   79PPPE   H2Y44043   6.440   4.379   8.144
   79PPPE   C2344044   6.684   4.022   8.473
   79PPPE   H3R44045   6.648   4.035   8.369
   79PPPE   H3S44046   6.662   4.117   8.526
   79PPPE   C2444047   6.601   3.909   8.534
   79PPPE   H4R44048   6.615   3.819   8.470
   79PPPE   H4S44049   6.493   3.937   8.530
   79PPPE   C2544050   6.636   3.872   8.679
   79PPPE   H5R44051   6.736   3.823   8.683
   79PPPE   H5S44052   6.562   3.797   8.714
   79PPPE   C2644053   6.636   3.990   8.776
   79PPPE   H6R44054   6.547   4.054   8.759
   79PPPE   H6S44055   6.726   4.052   8.759
   79PPPE   C2744056   6.634   3.941   8.921
   79PPPE   H7R44057   6.694   3.848   8.931
   79PPPE   H7S44058   6.529   3.914   8.947
   79PPPE   C2844059   6.685   4.045   9.022
   79PPPE   H8R44060   6.645   4.015   9.121
   79PPPE   H8S44061   6.639   4.144   9.000
   79PPPE   C2944062   6.835   4.056   9.026
   79PPPE   H9144063   6.879   4.114   8.944
   79PPPE  C21044064   6.920   4.002   9.117
   79PPPE  H10144065   7.027   4.023   9.105
   79PPPE  C21144066   6.888   3.917   9.238
   79PPPE  H11R44067   6.985   3.876   9.275
   79PPPE  H11S44068   6.828   3.828   9.208
   79PPPE  C21244069   6.821   3.985   9.360
   79PPPE  H12R44070   6.851   4.092   9.362
   79PPPE  H12S44071   6.864   3.939   9.451
   79PPPE  C21344072   6.668   3.969   9.366
   79PPPE  H13R44073   6.644   3.889   9.293
   79PPPE  H13S44074   6.617   4.061   9.329
   79PPPE  C21444075   6.607   3.926   9.501
   79PPPE  H14R44076   6.671   3.851   9.552
   79PPPE  H14S44077   6.509   3.878   9.481
   79PPPE  C21544078   6.577   4.039   9.599
   79PPPE  H15R44079   6.532   4.123   9.542
   79PPPE  H15S44080   6.673   4.072   9.644
   79PPPE  C21644081   6.477   4.003   9.710
   79PPPE  H16R44082   6.373   4.001   9.670
   79PPPE  H16S44083   6.499   3.902   9.752
   79PPPE  H16T44084   6.482   4.077   9.791
   79PPPE   C3344085   6.544   4.460   8.318
   79PPPE   H3X44086   6.442   4.497   8.342
   79PPPE   H3Y44087   6.601   4.547   8.278
   79PPPE   C3444088   6.603   4.413   8.452
   79PPPE   H4X44089   6.568   4.310   8.474
   79PPPE   H4Y44090   6.562   4.478   8.532
   79PPPE   C3544091   6.757   4.420   8.463
   79PPPE   H5X44092   6.789   4.526   8.450
   79PPPE   H5Y44093   6.802   4.361   8.380
   79PPPE   C3644094   6.815   4.366   8.595
   79PPPE   H6X44095   6.926   4.365   8.588
   79PPPE   H6Y44096   6.782   4.261   8.610
   79PPPE   C3744097   6.774   4.447   8.719
   79PPPE   H7X44098   6.663   4.452   8.724
   79PPPE   H7Y44099   6.813   4.550   8.709
   79PPPE   C3844100   6.824   4.385   8.851
   79PPPE   H8X44101   6.934   4.371   8.847
   79PPPE   H8Y44102   6.775   4.286   8.865
   79PPPE   C3944103   6.787   4.477   8.967
   79PPPE   H9X44104   6.676   4.486   8.970
   79PPPE   H9Y44105   6.827   4.578   8.944
   79PPPE  C31044106   6.840   4.438   9.107
   79PPPE  H10X44107   6.865   4.533   9.158
   79PPPE  H10Y44108   6.934   4.379   9.098
   79PPPE  C31144109   6.740   4.366   9.199
   79PPPE  H11X44110   6.765   4.258   9.201
   79PPPE  H11Y44111   6.636   4.375   9.160
   79PPPE  C31244112   6.741   4.419   9.344
   79PPPE  H12X44113   6.679   4.512   9.351
   79PPPE  H12Y44114   6.845   4.446   9.374
   79PPPE  C31344115   6.688   4.314   9.442
   79PPPE  H13X44116   6.771   4.243   9.461
   79PPPE  H13Y44117   6.604   4.259   9.394
   79PPPE  C31444118   6.641   4.362   9.580
   79PPPE  H14X44119   6.707   4.443   9.618
   79PPPE  H14Y44120   6.657   4.279   9.653
   79PPPE  C31544121   6.494   4.402   9.590
   79PPPE  H15X44122   6.432   4.323   9.542
   79PPPE  H15Y44123   6.477   4.497   9.535
   79PPPE  C31644124   6.450   4.416   9.736
   79PPPE  H16X44125   6.340   4.412   9.746
   79PPPE  H16Y44126   6.492   4.333   9.797
   79PPPE  H16Z44127   6.486   4.512   9.780
   80PPPE     N44128   6.716   3.153   7.746
   80PPPE   HN144129   6.798   3.163   7.810
   80PPPE   HN244130   6.744   3.137   7.648
   80PPPE   HN344131   6.659   3.239   7.749
   80PPPE   C1244132   6.623   3.043   7.792
   80PPPE  H12A44133   6.589   3.070   7.894
   80PPPE  H12B44134   6.681   2.948   7.797
   80PPPE   C1144135   6.501   3.027   7.696
   80PPPE  H11A44136   6.421   2.972   7.749
   80PPPE  H11B44137   6.533   2.963   7.611
   80PPPE     P44138   6.406   3.270   7.735
   80PPPE   O1344139   6.532   3.345   7.754
   80PPPE   O1444140   6.291   3.336   7.670
   80PPPE   O1144141   6.367   3.194   7.866
   80PPPE   O1244142   6.451   3.150   7.642
   80PPPE    C144143   6.240   3.208   7.929
   80PPPE    HA44144   6.175   3.123   7.900
   80PPPE    HB44145   6.188   3.302   7.902
   80PPPE    C244146   6.256   3.206   8.084
   80PPPE    HS44147   6.154   3.186   8.124
   80PPPE   O2144148   6.300   3.337   8.127
   80PPPE   C2144149   6.284   3.356   8.258
   80PPPE   O2244150   6.236   3.274   8.333
   80PPPE   C2244151   6.333   3.494   8.301
   80PPPE   H2R44152   6.243   3.552   8.329
   80PPPE   H2S44153   6.383   3.545   8.216
   80PPPE    C344154   6.349   3.088   8.129
   80PPPE    HX44155   6.286   3.022   8.193
   80PPPE    HY44156   6.378   3.029   8.040
   80PPPE   O3144157   6.469   3.135   8.196
   80PPPE   C3144158   6.491   3.085   8.318
   80PPPE   O3244159   6.443   2.982   8.360
   80PPPE   C3244160   6.573   3.188   8.396
   80PPPE   H2X44161   6.502   3.239   8.465
   80PPPE   H2Y44162   6.612   3.262   8.324
   80PPPE   C2344163   6.424   3.489   8.425
   80PPPE   H3R44164   6.526   3.459   8.393
   80PPPE   H3S44165   6.388   3.413   8.498
   80PPPE   C2444166   6.435   3.623   8.499
   80PPPE   H4R44167   6.441   3.704   8.423
   80PPPE   H4S44168   6.530   3.624   8.556
   80PPPE   C2544169   6.322   3.656   8.598
   80PPPE   H5R44170   6.228   3.673   8.541
   80PPPE   H5S44171   6.346   3.752   8.648
   80PPPE   C2644172   6.296   3.550   8.707
   80PPPE   H6R44173   6.258   3.456   8.661
   80PPPE   H6S44174   6.216   3.588   8.774
   80PPPE   C2744175   6.419   3.518   8.794
   80PPPE   H7R44176   6.449   3.610   8.848
   80PPPE   H7S44177   6.504   3.488   8.729
   80PPPE   C2844178   6.395   3.404   8.895
   80PPPE   H8R44179   6.490   3.389   8.950
   80PPPE   H8S44180   6.377   3.311   8.838
   80PPPE   C2944181   6.282   3.427   8.992
   80PPPE   H9144182   6.190   3.371   8.970
   80PPPE  C21044183   6.286   3.506   9.100
   80PPPE  H10144184   6.197   3.512   9.165
   80PPPE  C21144185   6.403   3.590   9.146
   80PPPE  H11R44186   6.371   3.695   9.160
   80PPPE  H11S44187   6.486   3.591   9.072
   80PPPE  C21244188   6.460   3.539   9.280
   80PPPE  H12R44189   6.504   3.438   9.264
   80PPPE  H12S44190   6.380   3.531   9.357
   80PPPE  C21344191   6.573   3.627   9.332
   80PPPE  H13R44192   6.530   3.730   9.340
   80PPPE  H13S44193   6.656   3.629   9.259
   80PPPE  C21444194   6.627   3.584   9.470
   80PPPE  H14R44195   6.608   3.475   9.485
   80PPPE  H14S44196   6.571   3.638   9.549
   80PPPE  C21544197   6.777   3.611   9.484
   80PPPE  H15R44198   6.798   3.716   9.456
   80PPPE  H15S44199   6.833   3.548   9.411
   80PPPE  C21644200   6.831   3.586   9.625
   80PPPE  H16R44201   6.846   3.477   9.644
   80PPPE  H16S44202   6.930   3.635   9.638
   80PPPE  H16T44203   6.762   3.625   9.702
   80PPPE   C3344204   6.690   3.133   8.479
   80PPPE   H3X44205   6.768   3.213   8.483
   80PPPE   H3Y44206   6.736   3.044   8.432
   80PPPE   C3444207   6.650   3.103   8.624
   80PPPE   H4X44208   6.591   3.009   8.627
   80PPPE   H4Y44209   6.585   3.185   8.662
   80PPPE   C3544210   6.773   3.092   8.715
   80PPPE   H5X44211   6.826   3.190   8.717
   80PPPE   H5Y44212   6.842   3.017   8.672
   80PPPE   C3644213   6.738   3.051   8.858
   80PPPE   H6X44214   6.832   3.042   8.916
   80PPPE   H6Y44215   6.691   2.950   8.854
   80PPPE   C3744216   6.643   3.145   8.932
   80PPPE   H7X44217   6.547   3.154   8.876
   80PPPE   H7Y44218   6.688   3.246   8.940
   80PPPE   C3844219   6.611   3.091   9.072
   80PPPE   H8X44220   6.706   3.081   9.129
   80PPPE   H8Y44221   6.566   2.990   9.061
   80PPPE   C3944222   6.514   3.176   9.153
   80PPPE   H9X44223   6.420   3.191   9.096
   80PPPE   H9Y44224   6.562   3.276   9.167
   80PPPE  C31044225   6.483   3.112   9.288
   80PPPE  H10X44226   6.579   3.092   9.342
   80PPPE  H10Y44227   6.436   3.013   9.272
   80PPPE  C31144228   6.390   3.196   9.375
   80PPPE  H11X44229   6.293   3.210   9.324
   80PPPE  H11Y44230   6.437   3.296   9.387
   80PPPE  C31244231   6.369   3.142   9.517
   80PPPE  H12X44232   6.461   3.090   9.553
   80PPPE  H12Y44233   6.286   3.069   9.518
   80PPPE  C31344234   6.342   3.259   9.613
   80PPPE  H13X44235   6.271   3.329   9.564
   80PPPE  H13Y44236   6.437   3.316   9.623
   80PPPE  C31444237   6.284   3.219   9.749
   80PPPE  H14X44238   6.259   3.111   9.750
   80PPPE  H14Y44239   6.189   3.275   9.765
   80PPPE  C31544240   6.376   3.250   9.869
   80PPPE  H15X44241   6.461   3.179   9.868
   80PPPE  H15Y44242   6.319   3.229   9.962
   80PPPE  C31644243   6.429   3.394   9.874
   80PPPE  H16X44244   6.490   3.409   9.966
   80PPPE  H16Y44245   6.495   3.418   9.788
   80PPPE  H16Z44246   6.345   3.466   9.875
   81PPPE     N44247   4.456   6.397   7.835
   81PPPE   HN144248   4.353   6.404   7.847
   81PPPE   HN244249   4.483   6.296   7.832
   81PPPE   HN344250   4.503   6.443   7.916
   81PPPE   C1244251   4.500   6.473   7.713
   81PPPE  H12A44252   4.443   6.568   7.712
   81PPPE  H12B44253   4.474   6.413   7.623
   81PPPE   C1144254   4.650   6.503   7.723
   81PPPE  H11A44255   4.677   6.571   7.640
   81PPPE  H11B44256   4.708   6.409   7.710
   81PPPE     P44257   4.823   6.626   7.871
   81PPPE   O1344258   4.917   6.557   7.780
   81PPPE   O1444259   4.810   6.773   7.854
   81PPPE   O1144260   4.859   6.591   8.020
   81PPPE   O1244261   4.679   6.560   7.851
   81PPPE    C144262   4.813   6.472   8.086
   81PPPE    HA44263   4.899   6.425   8.141
   81PPPE    HB44264   4.776   6.395   8.015
   81PPPE    C244265   4.703   6.504   8.191
   81PPPE    HS44266   4.630   6.570   8.140
   81PPPE   O2144267   4.763   6.573   8.302
   81PPPE   C2144268   4.678   6.625   8.388
   81PPPE   O2244269   4.558   6.638   8.370
   81PPPE   C2244270   4.756   6.668   8.512
   81PPPE   H2R44271   4.822   6.752   8.480
   81PPPE   H2S44272   4.820   6.584   8.545
   81PPPE    C344273   4.626   6.376   8.239
   81PPPE    HX44274   4.529   6.410   8.282
   81PPPE    HY44275   4.602   6.314   8.150
   81PPPE   O3144276   4.701   6.300   8.335
   81PPPE   C3144277   4.628   6.202   8.390
   81PPPE   O3244278   4.518   6.169   8.352
   81PPPE   C3244279   4.703   6.140   8.508
   81PPPE   H2X44280   4.806   6.115   8.474
   81PPPE   H2Y44281   4.651   6.046   8.536
   81PPPE   C2344282   4.668   6.715   8.630
   81PPPE   H3R44283   4.629   6.628   8.685
   81PPPE   H3S44284   4.580   6.773   8.592
   81PPPE   C2444285   4.747   6.807   8.724
   81PPPE   H4R44286   4.780   6.896   8.666
   81PPPE   H4S44287   4.838   6.755   8.760
   81PPPE   C2544288   4.666   6.856   8.845
   81PPPE   H5R44289   4.561   6.879   8.815
   81PPPE   H5S44290   4.712   6.950   8.882
   81PPPE   C2644291   4.666   6.756   8.961
   81PPPE   H6R44292   4.772   6.732   8.986
   81PPPE   H6S44293   4.618   6.660   8.930
   81PPPE   C2744294   4.596   6.811   9.087
   81PPPE   H7R44295   4.488   6.788   9.079
   81PPPE   H7S44296   4.606   6.921   9.089
   81PPPE   C2844297   4.651   6.753   9.218
   81PPPE   H8R44298   4.646   6.642   9.213
   81PPPE   H8S44299   4.583   6.783   9.300
   81PPPE   C2944300   4.791   6.801   9.251
   81PPPE   H9144301   4.802   6.910   9.244
   81PPPE  C21044302   4.898   6.728   9.286
   81PPPE  H10144303   4.991   6.781   9.310
   81PPPE  C21144304   4.907   6.578   9.302
   81PPPE  H11R44305   4.997   6.542   9.248
   81PPPE  H11S44306   4.820   6.526   9.257
   81PPPE  C21244307   4.918   6.530   9.449
   81PPPE  H12R44308   4.985   6.598   9.506
   81PPPE  H12S44309   4.964   6.429   9.450
   81PPPE  C21344310   4.782   6.520   9.520
   81PPPE  H13R44311   4.720   6.440   9.475
   81PPPE  H13S44312   4.728   6.616   9.506
   81PPPE  C21444313   4.797   6.495   9.671
   81PPPE  H14R44314   4.704   6.527   9.724
   81PPPE  H14S44315   4.880   6.558   9.708
   81PPPE  C21544316   4.828   6.350   9.712
   81PPPE  H15R44317   4.868   6.352   9.815
   81PPPE  H15S44318   4.908   6.309   9.647
   81PPPE  C21644319   4.706   6.259   9.710
   81PPPE  H16R44320   4.623   6.305   9.769
   81PPPE  H16S44321   4.670   6.243   9.606
   81PPPE  H16T44322   4.731   6.161   9.755
   81PPPE   C3344323   4.709   6.235   8.630
   81PPPE   H3X44324   4.607   6.254   8.668
   81PPPE   H3Y44325   4.752   6.333   8.599
   81PPPE   C3444326   4.796   6.178   8.743
   81PPPE   H4X44327   4.897   6.157   8.703
   81PPPE   H4Y44328   4.753   6.082   8.779
   81PPPE   C3544329   4.811   6.274   8.863
   81PPPE   H5X44330   4.840   6.375   8.827
   81PPPE   H5Y44331   4.893   6.236   8.927
   81PPPE   C3644332   4.685   6.285   8.951
   81PPPE   H6X44333   4.655   6.183   8.983
   81PPPE   H6Y44334   4.602   6.329   8.892
   81PPPE   C3744335   4.710   6.370   9.076
   81PPPE   H7X44336   4.733   6.474   9.046
   81PPPE   H7Y44337   4.799   6.329   9.129
   81PPPE   C3844338   4.593   6.372   9.177
   81PPPE   H8X44339   4.626   6.429   9.267
   81PPPE   H8Y44340   4.570   6.269   9.211
   81PPPE   C3944341   4.466   6.440   9.123
   81PPPE   H9X44342   4.407   6.365   9.065
   81PPPE   H9Y44343   4.495   6.521   9.054
   81PPPE  C31044344   4.377   6.501   9.232
   81PPPE  H10X44345   4.293   6.556   9.183
   81PPPE  H10Y44346   4.436   6.575   9.290
   81PPPE  C31144347   4.316   6.399   9.329
   81PPPE  H11X44348   4.397   6.346   9.384
   81PPPE  H11Y44349   4.261   6.323   9.269
   81PPPE  C31244350   4.218   6.462   9.429
   81PPPE  H12X44351   4.164   6.381   9.483
   81PPPE  H12Y44352   4.142   6.520   9.372
   81PPPE  C31344353   4.283   6.556   9.533
   81PPPE  H13X44354   4.201   6.603   9.592
   81PPPE  H13Y44355   4.336   6.638   9.481
   81PPPE  C31444356   4.380   6.487   9.631
   81PPPE  H14X44357   4.416   6.562   9.703
   81PPPE  H14Y44358   4.468   6.450   9.575
   81PPPE  C31544359   4.319   6.370   9.710
   81PPPE  H15X44360   4.396   6.330   9.779
   81PPPE  H15Y44361   4.293   6.288   9.640
   81PPPE  C31644362   4.194   6.405   9.792
   81PPPE  H16X44363   4.216   6.487   9.864
   81PPPE  H16Y44364   4.111   6.438   9.726
   81PPPE  H16Z44365   4.160   6.317   9.850
   82PPPE     N44366   5.577   1.760   7.677
   82PPPE   HN144367   5.481   1.794   7.700
   82PPPE   HN244368   5.618   1.836   7.619
   82PPPE   HN344369   5.569   1.674   7.618
   82PPPE   C1244370   5.652   1.744   7.807
   82PPPE  H12A44371   5.760   1.756   7.784
   82PPPE  H12B44372   5.633   1.642   7.846
   82PPPE   C1144373   5.609   1.849   7.912
   82PPPE  H11A44374   5.689   1.859   7.988
   82PPPE  H11B44375   5.521   1.811   7.968
   82PPPE     P44376   5.434   2.023   7.824
   82PPPE   O1344377   5.438   2.146   7.744
   82PPPE   O1444378   5.371   1.905   7.759
   82PPPE   O1144379   5.372   2.049   7.966
   82PPPE   O1244380   5.584   1.978   7.853
   82PPPE    C144381   5.431   2.141   8.059
   82PPPE    HA44382   5.351   2.208   8.097
   82PPPE    HB44383   5.508   2.206   8.013
   82PPPE    C244384   5.494   2.070   8.182
   82PPPE    HS44385   5.575   2.005   8.144
   82PPPE   O2144386   5.392   1.995   8.251
   82PPPE   C2144387   5.435   1.887   8.314
   82PPPE   O2244388   5.548   1.840   8.305
   82PPPE   C2244389   5.323   1.826   8.397
   82PPPE   H2R44390   5.365   1.739   8.453
   82PPPE   H2S44391   5.246   1.788   8.326
   82PPPE    C344392   5.557   2.174   8.280
   82PPPE    HX44393   5.633   2.234   8.226
   82PPPE    HY44394   5.476   2.243   8.310
   82PPPE   O3144395   5.611   2.114   8.400
   82PPPE   C3144396   5.735   2.068   8.391
   82PPPE   O3244397   5.807   2.078   8.293
   82PPPE   C3244398   5.775   2.000   8.522
   82PPPE   H2X44399   5.881   1.968   8.513
   82PPPE   H2Y44400   5.711   1.910   8.532
   82PPPE   C2344401   5.257   1.924   8.496
   82PPPE   H3R44402   5.168   1.874   8.539
   82PPPE   H3S44403   5.222   2.015   8.443
   82PPPE   C2444404   5.348   1.965   8.614
   82PPPE   H4R44405   5.435   2.022   8.576
   82PPPE   H4S44406   5.385   1.874   8.665
   82PPPE   C2544407   5.269   2.050   8.713
   82PPPE   H5R44408   5.184   1.991   8.753
   82PPPE   H5S44409   5.226   2.137   8.659
   82PPPE   C2644410   5.350   2.103   8.833
   82PPPE   H6R44411   5.435   2.165   8.796
   82PPPE   H6S44412   5.391   2.019   8.892
   82PPPE   C2744413   5.259   2.188   8.922
   82PPPE   H7R44414   5.177   2.123   8.960
   82PPPE   H7S44415   5.211   2.265   8.857
   82PPPE   C2844416   5.327   2.254   9.044
   82PPPE   H8R44417   5.378   2.174   9.101
   82PPPE   H8S44418   5.247   2.291   9.111
   82PPPE   C2944419   5.418   2.371   9.012
   82PPPE   H9144420   5.368   2.457   8.965
   82PPPE  C21044421   5.550   2.379   9.038
   82PPPE  H10144422   5.603   2.472   9.013
   82PPPE  C21144423   5.634   2.272   9.103
   82PPPE  H11R44424   5.725   2.254   9.042
   82PPPE  H11S44425   5.580   2.175   9.106
   82PPPE  C21244426   5.677   2.302   9.248
   82PPPE  H12R44427   5.746   2.389   9.251
   82PPPE  H12S44428   5.734   2.214   9.285
   82PPPE  C21344429   5.562   2.330   9.345
   82PPPE  H13R44430   5.479   2.258   9.327
   82PPPE  H13S44431   5.522   2.432   9.326
   82PPPE  C21444432   5.608   2.319   9.491
   82PPPE  H14R44433   5.700   2.379   9.505
   82PPPE  H14S44434   5.634   2.213   9.512
   82PPPE  C21544435   5.503   2.365   9.592
   82PPPE  H15R44436   5.407   2.312   9.573
   82PPPE  H15S44437   5.484   2.474   9.577
   82PPPE  C21644438   5.547   2.341   9.736
   82PPPE  H16R44439   5.474   2.385   9.807
   82PPPE  H16S44440   5.555   2.232   9.756
   82PPPE  H16T44441   5.646   2.388   9.755
   82PPPE   C3344442   5.757   2.092   8.646
   82PPPE   H3X44443   5.652   2.128   8.652
   82PPPE   H3Y44444   5.823   2.181   8.636
   82PPPE   C3444445   5.791   2.023   8.780
   82PPPE   H4X44446   5.784   2.098   8.861
   82PPPE   H4Y44447   5.897   1.987   8.777
   82PPPE   C3544448   5.699   1.905   8.813
   82PPPE   H5X44449   5.713   1.825   8.737
   82PPPE   H5Y44450   5.593   1.937   8.809
   82PPPE   C3644451   5.726   1.842   8.951
   82PPPE   H6X44452   5.836   1.829   8.964
   82PPPE   H6Y44453   5.680   1.741   8.954
   82PPPE   C3744454   5.670   1.922   9.070
   82PPPE   H7X44455   5.564   1.946   9.049
   82PPPE   H7Y44456   5.727   2.018   9.079
   82PPPE   C3844457   5.680   1.847   9.204
   82PPPE   H8X44458   5.787   1.829   9.229
   82PPPE   H8Y44459   5.632   1.747   9.191
   82PPPE   C3944460   5.612   1.916   9.324
   82PPPE   H9X44461   5.669   2.008   9.352
   82PPPE   H9Y44462   5.617   1.847   9.411
   82PPPE  C31044463   5.465   1.954   9.301
   82PPPE  H10X44464   5.411   1.870   9.253
   82PPPE  H10Y44465   5.462   2.040   9.230
   82PPPE  C31144466   5.388   1.993   9.428
   82PPPE  H11X44467   5.437   2.080   9.476
   82PPPE  H11Y44468   5.391   1.908   9.499
   82PPPE  C31244469   5.241   2.028   9.396
   82PPPE  H12X44470   5.190   1.939   9.354
   82PPPE  H12Y44471   5.241   2.107   9.318
   82PPPE  C31344472   5.162   2.079   9.517
   82PPPE  H13X44473   5.064   2.118   9.482
   82PPPE  H13Y44474   5.217   2.163   9.563
   82PPPE  C31444475   5.135   1.970   9.623
   82PPPE  H14X44476   5.231   1.929   9.661
   82PPPE  H14Y44477   5.079   1.887   9.575
   82PPPE  C31544478   5.053   2.023   9.742
   82PPPE  H15X44479   5.015   1.936   9.800
   82PPPE  H15Y44480   4.965   2.078   9.703
   82PPPE  C31644481   5.131   2.114   9.837
   82PPPE  H16X44482   5.216   2.059   9.883
   82PPPE  H16Y44483   5.172   2.201   9.782
   82PPPE  H16Z44484   5.065   2.151   9.918
   83PPPE     N44485   1.645   4.316   7.601
   83PPPE   HN144486   1.641   4.358   7.696
   83PPPE   HN244487   1.728   4.255   7.592
   83PPPE   HN344488   1.655   4.397   7.536
   83PPPE   C1244489   1.518   4.237   7.582
   83PPPE  H12A44490   1.531   4.141   7.635
   83PPPE  H12B44491   1.507   4.217   7.473
   83PPPE   C1144492   1.394   4.310   7.638
   83PPPE  H11A44493   1.305   4.264   7.590
   83PPPE  H11B44494   1.393   4.417   7.607
   83PPPE     P44495   1.445   4.395   7.882
   83PPPE   O1344496   1.577   4.431   7.826
   83PPPE   O1444497   1.347   4.503   7.908
   83PPPE   O1144498   1.464   4.304   8.009
   83PPPE   O1244499   1.381   4.293   7.779
   83PPPE    C144500   1.353   4.252   8.084
   83PPPE    HA44501   1.342   4.144   8.063
   83PPPE    HB44502   1.257   4.302   8.059
   83PPPE    C244503   1.376   4.270   8.237
   83PPPE    HS44504   1.386   4.380   8.254
   83PPPE   O2144505   1.492   4.194   8.278
   83PPPE   C2144506   1.567   4.255   8.369
   83PPPE   O2244507   1.548   4.368   8.411
   83PPPE   C2244508   1.683   4.166   8.413
   83PPPE   H2R44509   1.748   4.231   8.476
   83PPPE   H2S44510   1.740   4.136   8.323
   83PPPE    C344511   1.251   4.220   8.316
   83PPPE    HX44512   1.159   4.265   8.273
   83PPPE    HY44513   1.245   4.111   8.297
   83PPPE   O3144514   1.259   4.239   8.459
   83PPPE   C3144515   1.214   4.357   8.503
   83PPPE   O3244516   1.169   4.445   8.431
   83PPPE   C3244517   1.229   4.364   8.654
   83PPPE   H2X44518   1.223   4.262   8.697
   83PPPE   H2Y44519   1.146   4.426   8.695
   83PPPE   C2344520   1.640   4.043   8.496
   83PPPE   H3R44521   1.731   4.001   8.545
   83PPPE   H3S44522   1.599   3.964   8.429
   83PPPE   C2444523   1.537   4.076   8.605
   83PPPE   H4R44524   1.435   4.073   8.562
   83PPPE   H4S44525   1.555   4.180   8.640
   83PPPE   C2544526   1.543   3.987   8.731
   83PPPE   H5R44527   1.640   4.005   8.782
   83PPPE   H5S44528   1.540   3.878   8.707
   83PPPE   C2644529   1.428   4.021   8.827
   83PPPE   H6R44530   1.333   3.976   8.792
   83PPPE   H6S44531   1.415   4.131   8.825
   83PPPE   C2744532   1.455   3.980   8.973
   83PPPE   H7R44533   1.559   4.010   9.000
   83PPPE   H7S44534   1.448   3.870   8.982
   83PPPE   C2844535   1.359   4.049   9.071
   83PPPE   H8R44536   1.255   4.029   9.039
   83PPPE   H8S44537   1.375   4.159   9.064
   83PPPE   C2944538   1.378   4.001   9.213
   83PPPE   H9144539   1.337   3.901   9.234
   83PPPE  C21044540   1.439   4.068   9.313
   83PPPE  H10144541   1.443   4.021   9.413
   83PPPE  C21144542   1.502   4.205   9.307
   83PPPE  H11R44543   1.541   4.226   9.205
   83PPPE  H11S44544   1.590   4.208   9.375
   83PPPE  C21244545   1.407   4.320   9.346
   83PPPE  H12R44546   1.325   4.325   9.272
   83PPPE  H12S44547   1.463   4.416   9.340
   83PPPE  C21344548   1.346   4.308   9.487
   83PPPE  H13R44549   1.290   4.212   9.494
   83PPPE  H13S44550   1.271   4.389   9.500
   83PPPE  C21444551   1.446   4.313   9.604
   83PPPE  H14R44552   1.523   4.235   9.590
   83PPPE  H14S44553   1.391   4.288   9.697
   83PPPE  C21544554   1.514   4.449   9.626
   83PPPE  H15R44555   1.573   4.477   9.535
   83PPPE  H15S44556   1.586   4.438   9.709
   83PPPE  C21644557   1.418   4.563   9.661
   83PPPE  H16R44558   1.350   4.586   9.576
   83PPPE  H16S44559   1.355   4.536   9.748
   83PPPE  H16T44560   1.474   4.656   9.686
   83PPPE   C3344561   1.365   4.429   8.687
   83PPPE   H3X44562   1.364   4.534   8.651
   83PPPE   H3Y44563   1.444   4.374   8.631
   83PPPE   C3444564   1.403   4.428   8.835
   83PPPE   H4X44565   1.401   4.326   8.878
   83PPPE   H4Y44566   1.330   4.490   8.891
   83PPPE   C3544567   1.543   4.488   8.854
   83PPPE   H5X44568   1.560   4.506   8.963
   83PPPE   H5Y44569   1.542   4.587   8.803
   83PPPE   C3644570   1.662   4.407   8.799
   83PPPE   H6X44571   1.751   4.473   8.802
   83PPPE   H6Y44572   1.647   4.378   8.693
   83PPPE   C3744573   1.695   4.285   8.886
   83PPPE   H7X44574   1.615   4.208   8.877
   83PPPE   H7Y44575   1.691   4.323   8.991
   83PPPE   C3844576   1.833   4.225   8.857
   83PPPE   H8X44577   1.906   4.309   8.858
   83PPPE   H8Y44578   1.835   4.180   8.755
   83PPPE   C3944579   1.882   4.121   8.961
   83PPPE   H9X44580   1.992   4.111   8.952
   83PPPE   H9Y44581   1.838   4.022   8.940
   83PPPE  C31044582   1.845   4.164   9.103
   83PPPE  H10X44583   1.738   4.140   9.121
   83PPPE  H10Y44584   1.856   4.274   9.110
   83PPPE  C31144585   1.928   4.109   9.218
   83PPPE  H11X44586   2.031   4.151   9.213
   83PPPE  H11Y44587   1.941   3.999   9.210
   83PPPE  C31244588   1.863   4.149   9.351
   83PPPE  H12X44589   1.788   4.073   9.382
   83PPPE  H12Y44590   1.809   4.245   9.334
   83PPPE  C31344591   1.961   4.177   9.466
   83PPPE  H13X44592   2.035   4.252   9.431
   83PPPE  H13Y44593   2.017   4.085   9.494
   83PPPE  C31444594   1.888   4.234   9.588
   83PPPE  H14X44595   1.830   4.153   9.638
   83PPPE  H14Y44596   1.816   4.311   9.555
   83PPPE  C31544597   1.983   4.298   9.690
   83PPPE  H15X44598   2.042   4.377   9.640
   83PPPE  H15Y44599   2.054   4.222   9.728
   83PPPE  C31644600   1.909   4.360   9.809
   83PPPE  H16X44601   1.980   4.410   9.878
   83PPPE  H16Y44602   1.835   4.435   9.774
   83PPPE  H16Z44603   1.854   4.282   9.866
   84PPPE     N44604   6.413   5.144   7.715
   84PPPE   HN144605   6.380   5.110   7.807
   84PPPE   HN244606   6.376   5.241   7.704
   84PPPE   HN344607   6.372   5.086   7.639
   84PPPE   C1244608   6.563   5.145   7.711
   84PPPE  H12A44609   6.598   5.192   7.805
   84PPPE  H12B44610   6.595   5.210   7.626
   84PPPE   C1144611   6.618   5.002   7.694
   84PPPE  H11A44612   6.601   4.969   7.590
   84PPPE  H11B44613   6.559   4.935   7.759
   84PPPE     P44614   6.815   4.888   7.821
   84PPPE   O1344615   6.783   4.757   7.760
   84PPPE   O1444616   6.957   4.920   7.847
   84PPPE   O1144617   6.728   4.913   7.949
   84PPPE   O1244618   6.759   5.000   7.722
   84PPPE    C144619   6.729   5.038   8.018
   84PPPE    HA44620   6.636   5.045   8.078
   84PPPE    HB44621   6.730   5.126   7.949
   84PPPE    C244622   6.849   5.055   8.115
   84PPPE    HS44623   6.937   5.079   8.052
   84PPPE   O2144624   6.868   4.934   8.190
   84PPPE   C2144625   6.992   4.901   8.216
   84PPPE   O2244626   7.091   4.963   8.179
   84PPPE   C2244627   6.994   4.770   8.295
   84PPPE   H2R44628   7.054   4.698   8.235
   84PPPE   H2S44629   6.891   4.730   8.305
   84PPPE    C344630   6.825   5.174   8.213
   84PPPE    HX44631   6.913   5.185   8.280
   84PPPE    HY44632   6.817   5.267   8.153
   84PPPE   O3144633   6.700   5.152   8.281
   84PPPE   C3144634   6.707   5.125   8.411
   84PPPE   O3244635   6.803   5.147   8.482
   84PPPE   C3244636   6.574   5.060   8.450
   84PPPE   H2X44637   6.565   4.966   8.391
   84PPPE   H2Y44638   6.494   5.130   8.416
   84PPPE   C2344639   7.059   4.784   8.434
   84PPPE   H3R44640   7.150   4.847   8.427
   84PPPE   H3S44641   7.092   4.684   8.470
   84PPPE   C2444642   6.968   4.844   8.542
   84PPPE   H4R44643   6.896   4.767   8.576
   84PPPE   H4S44644   6.910   4.929   8.501
   84PPPE   C2544645   7.051   4.895   8.661
   84PPPE   H5R44646   7.108   4.985   8.631
   84PPPE   H5S44647   7.124   4.816   8.687
   84PPPE   C2644648   6.972   4.927   8.789
   84PPPE   H6R44649   7.045   4.935   8.872
   84PPPE   H6S44650   6.904   4.842   8.812
   84PPPE   C2744651   6.891   5.057   8.785
   84PPPE   H7R44652   6.821   5.050   8.699
   84PPPE   H7S44653   6.957   5.143   8.764
   84PPPE   C2844654   6.807   5.079   8.912
   84PPPE   H8R44655   6.710   5.126   8.883
   84PPPE   H8S44656   6.781   4.980   8.954
   84PPPE   C2944657   6.873   5.167   9.015
   84PPPE   H9144658   6.859   5.275   9.000
   84PPPE  C21044659   6.943   5.127   9.123
   84PPPE  H10144660   6.985   5.203   9.189
   84PPPE  C21144661   6.971   4.984   9.162
   84PPPE  H11R44662   6.998   4.922   9.074
   84PPPE  H11S44663   6.880   4.938   9.207
   84PPPE  C21244664   7.085   4.971   9.265
   84PPPE  H12R44665   7.181   5.007   9.223
   84PPPE  H12S44666   7.098   4.863   9.289
   84PPPE  C21344667   7.055   5.045   9.397
   84PPPE  H13R44668   6.953   5.017   9.431
   84PPPE  H13S44669   7.054   5.155   9.381
   84PPPE  C21444670   7.155   5.013   9.508
   84PPPE  H14R44671   7.254   5.059   9.486
   84PPPE  H14S44672   7.172   4.903   9.515
   84PPPE  C21544673   7.104   5.064   9.643
   84PPPE  H15R44674   7.024   5.139   9.626
   84PPPE  H15S44675   7.186   5.114   9.699
   84PPPE  C21644676   7.046   4.951   9.726
   84PPPE  H16R44677   7.122   4.873   9.747
   84PPPE  H16S44678   7.004   4.989   9.822
   84PPPE  H16T44679   6.964   4.905   9.668
   84PPPE   C3344680   6.553   5.032   8.600
   84PPPE   H3X44681   6.444   5.044   8.619
   84PPPE   H3Y44682   6.603   5.107   8.664
   84PPPE   C3444683   6.588   4.889   8.645
   84PPPE   H4X44684   6.698   4.879   8.661
   84PPPE   H4Y44685   6.559   4.816   8.567
   84PPPE   C3544686   6.513   4.854   8.774
   84PPPE   H5X44687   6.404   4.862   8.752
   84PPPE   H5Y44688   6.535   4.930   8.852
   84PPPE   C3644689   6.539   4.714   8.832
   84PPPE   H6X44690   6.636   4.716   8.886
   84PPPE   H6Y44691   6.547   4.639   8.750
   84PPPE   C3744692   6.424   4.674   8.926
   84PPPE   H7X44693   6.353   4.608   8.872
   84PPPE   H7Y44694   6.369   4.768   8.951
   84PPPE   C3844695   6.458   4.606   9.059
   84PPPE   H8X44696   6.490   4.502   9.042
   84PPPE   H8Y44697   6.364   4.597   9.118
   84PPPE   C3944698   6.561   4.680   9.147
   84PPPE   H9X44699   6.664   4.648   9.122
   84PPPE   H9Y44700   6.543   4.647   9.251
   84PPPE  C31044701   6.559   4.833   9.140
   84PPPE  H10X44702   6.458   4.872   9.113
   84PPPE  H10Y44703   6.630   4.866   9.061
   84PPPE  C31144704   6.597   4.895   9.274
   84PPPE  H11X44705   6.631   5.000   9.260
   84PPPE  H11Y44706   6.683   4.838   9.315
   84PPPE  C31244707   6.479   4.889   9.370
   84PPPE  H12X44708   6.402   4.962   9.337
   84PPPE  H12Y44709   6.434   4.788   9.365
   84PPPE  C31344710   6.516   4.917   9.516
   84PPPE  H13X44711   6.494   5.024   9.537
   84PPPE  H13Y44712   6.624   4.902   9.533
   84PPPE  C31444713   6.438   4.827   9.613
   84PPPE  H14X44714   6.494   4.733   9.629
   84PPPE  H14Y44715   6.339   4.800   9.569
   84PPPE  C31544716   6.411   4.896   9.747
   84PPPE  H15X44717   6.364   4.823   9.817
   84PPPE  H15Y44718   6.336   4.976   9.730
   84PPPE  C31644719   6.534   4.958   9.813
   84PPPE  H16X44720   6.602   4.880   9.851
   84PPPE  H16Y44721   6.502   5.022   9.898
   84PPPE  H16Z44722   6.590   5.023   9.742
   85PPPE     N44723   1.293   3.643   8.084
   85PPPE   HN144724   1.284   3.645   8.188
   85PPPE   HN244725   1.329   3.550   8.056
   85PPPE   HN344726   1.364   3.713   8.053
   85PPPE   C1244727   1.163   3.668   8.011
   85PPPE  H12A44728   1.104   3.743   8.069
   85PPPE  H12B44729   1.108   3.572   8.007
   85PPPE   C1144730   1.191   3.718   7.869
   85PPPE  H11A44731   1.223   3.825   7.873
   85PPPE  H11B44732   1.097   3.716   7.809
   85PPPE     P44733   1.269   3.516   7.718
   85PPPE   O1344734   1.143   3.452   7.762
   85PPPE   O1444735   1.276   3.558   7.576
   85PPPE   O1144736   1.389   3.421   7.750
   85PPPE   O1244737   1.296   3.643   7.808
   85PPPE    C144738   1.483   3.443   7.855
   85PPPE    HA44739   1.491   3.549   7.887
   85PPPE    HB44740   1.583   3.416   7.817
   85PPPE    C244741   1.456   3.353   7.979
   85PPPE    HS44742   1.470   3.249   7.943
   85PPPE   O2144743   1.323   3.375   8.035
   85PPPE   C2144744   1.278   3.267   8.102
   85PPPE   O2244745   1.330   3.157   8.099
   85PPPE   C2244746   1.148   3.301   8.177
   85PPPE   H2R44747   1.072   3.226   8.148
   85PPPE   H2S44748   1.113   3.401   8.145
   85PPPE    C344749   1.561   3.382   8.089
   85PPPE    HX44750   1.553   3.300   8.163
   85PPPE    HY44751   1.663   3.379   8.044
   85PPPE   O3144752   1.535   3.510   8.152
   85PPPE   C3144753   1.624   3.535   8.249
   85PPPE   O3244754   1.726   3.472   8.269
   85PPPE   C3244755   1.578   3.657   8.327
   85PPPE   H2X44756   1.564   3.741   8.256
   85PPPE   H2Y44757   1.659   3.684   8.398
   85PPPE   C2344758   1.163   3.299   8.332
   85PPPE   H3R44759   1.074   3.348   8.377
   85PPPE   H3S44760   1.252   3.358   8.362
   85PPPE   C2444761   1.170   3.157   8.392
   85PPPE   H4R44762   1.261   3.107   8.352
   85PPPE   H4S44763   1.082   3.098   8.360
   85PPPE   C2544764   1.178   3.152   8.547
   85PPPE   H5R44765   1.207   3.050   8.577
   85PPPE   H5S44766   1.078   3.172   8.591
   85PPPE   C2644767   1.278   3.254   8.603
   85PPPE   H6R44768   1.226   3.352   8.611
   85PPPE   H6S44769   1.361   3.266   8.530
   85PPPE   C2744770   1.345   3.221   8.738
   85PPPE   H7R44771   1.401   3.126   8.730
   85PPPE   H7S44772   1.269   3.206   8.817
   85PPPE   C2844773   1.440   3.336   8.776
   85PPPE   H8R44774   1.376   3.423   8.803
   85PPPE   H8S44775   1.495   3.366   8.684
   85PPPE   C2944776   1.541   3.313   8.885
   85PPPE   H9144777   1.633   3.261   8.853
   85PPPE  C21044778   1.529   3.346   9.015
   85PPPE  H10144779   1.614   3.325   9.081
   85PPPE  C21144780   1.413   3.414   9.084
   85PPPE  H11R44781   1.371   3.344   9.160
   85PPPE  H11S44782   1.330   3.435   9.014
   85PPPE  C21244783   1.450   3.545   9.157
   85PPPE  H12R44784   1.358   3.589   9.200
   85PPPE  H12S44785   1.490   3.617   9.082
   85PPPE  C21344786   1.553   3.530   9.270
   85PPPE  H13R44787   1.584   3.632   9.301
   85PPPE  H13S44788   1.644   3.478   9.234
   85PPPE  C21444789   1.502   3.459   9.397
   85PPPE  H14R44790   1.473   3.354   9.374
   85PPPE  H14S44791   1.413   3.512   9.436
   85PPPE  C21544792   1.612   3.460   9.504
   85PPPE  H15R44793   1.641   3.566   9.519
   85PPPE  H15S44794   1.701   3.406   9.465
   85PPPE  C21644795   1.573   3.400   9.640
   85PPPE  H16R44796   1.490   3.458   9.686
   85PPPE  H16S44797   1.541   3.294   9.630
   85PPPE  H16T44798   1.660   3.403   9.710
   85PPPE   C3344799   1.448   3.631   8.408
   85PPPE   H3X44800   1.472   3.559   8.489
   85PPPE   H3Y44801   1.369   3.584   8.346
   85PPPE   C3444802   1.395   3.762   8.469
   85PPPE   H4X44803   1.369   3.835   8.389
   85PPPE   H4Y44804   1.480   3.805   8.525
   85PPPE   C3544805   1.278   3.747   8.567
   85PPPE   H5X44806   1.185   3.718   8.515
   85PPPE   H5Y44807   1.261   3.847   8.614
   85PPPE   C3644808   1.308   3.647   8.680
   85PPPE   H6X44809   1.416   3.653   8.705
   85PPPE   H6Y44810   1.289   3.544   8.642
   85PPPE   C3744811   1.231   3.669   8.811
   85PPPE   H7X44812   1.256   3.770   8.849
   85PPPE   H7Y44813   1.268   3.597   8.887
   85PPPE   C3844814   1.078   3.657   8.803
   85PPPE   H8X44815   1.039   3.733   8.732
   85PPPE   H8Y44816   1.040   3.683   8.905
   85PPPE   C3944817   1.018   3.520   8.767
   85PPPE   H9X44818   1.048   3.494   8.664
   85PPPE   H9Y44819   0.908   3.529   8.769
   85PPPE  C31044820   1.058   3.405   8.861
   85PPPE  H10X44821   1.167   3.388   8.851
   85PPPE  H10Y44822   1.007   3.312   8.828
   85PPPE  C31144823   1.030   3.426   9.011
   85PPPE  H11X44824   0.923   3.450   9.027
   85PPPE  H11Y44825   1.090   3.512   9.048
   85PPPE  C31244826   1.068   3.301   9.091
   85PPPE  H12X44827   1.168   3.266   9.058
   85PPPE  H12Y44828   0.995   3.219   9.070
   85PPPE  C31344829   1.076   3.323   9.243
   85PPPE  H13X44830   1.148   3.405   9.266
   85PPPE  H13Y44831   1.116   3.231   9.290
   85PPPE  C31444832   0.941   3.355   9.309
   85PPPE  H14X44833   0.864   3.283   9.275
   85PPPE  H14Y44834   0.908   3.457   9.279
   85PPPE  C31544835   0.951   3.347   9.462
   85PPPE  H15X44836   1.032   3.416   9.496
   85PPPE  H15Y44837   0.981   3.244   9.491
   85PPPE  C31644838   0.821   3.382   9.535
   85PPPE  H16X44839   0.836   3.378   9.645
   85PPPE  H16Y44840   0.787   3.485   9.508
   85PPPE  H16Z44841   0.742   3.309   9.507
   86PPPE     N44842   6.415   2.432   7.872
   86PPPE   HN144843   6.358   2.444   7.958
   86PPPE   HN244844   6.452   2.335   7.870
   86PPPE   HN344845   6.493   2.501   7.872
   86PPPE   C1244846   6.331   2.444   7.747
   86PPPE  H12A44847   6.399   2.453   7.660
   86PPPE  H12B44848   6.267   2.535   7.754
   86PPPE   C1144849   6.248   2.315   7.733
   86PPPE  H11A44850   6.183   2.325   7.643
   86PPPE  H11B44851   6.182   2.302   7.821
   86PPPE     P44852   6.298   2.058   7.752
   86PPPE   O1344853   6.228   2.059   7.880
   86PPPE   O1444854   6.228   1.998   7.636
   86PPPE   O1144855   6.441   1.990   7.766
   86PPPE   O1244856   6.339   2.207   7.716
   86PPPE    C144857   6.540   2.052   7.850
   86PPPE    HA44858   6.506   2.145   7.900
   86PPPE    HB44859   6.629   2.078   7.789
   86PPPE    C244860   6.588   1.958   7.965
   86PPPE    HS44861   6.624   1.865   7.915
   86PPPE   O2144862   6.476   1.930   8.052
   86PPPE   C2144863   6.499   1.830   8.136
   86PPPE   O2244864   6.591   1.751   8.126
   86PPPE   C2244865   6.391   1.827   8.243
   86PPPE   H2R44866   6.346   1.725   8.240
   86PPPE   H2S44867   6.311   1.901   8.219
   86PPPE    C344868   6.707   2.020   8.045
   86PPPE    HX44869   6.760   1.937   8.096
   86PPPE    HY44870   6.779   2.061   7.972
   86PPPE   O3144871   6.663   2.116   8.144
   86PPPE   C3144872   6.707   2.240   8.134
   86PPPE   O3244873   6.775   2.285   8.044
   86PPPE   C3244874   6.646   2.325   8.246
   86PPPE   H2X44875   6.536   2.322   8.229
   86PPPE   H2Y44876   6.681   2.429   8.232
   86PPPE   C2344877   6.445   1.851   8.386
   86PPPE   H3R44878   6.470   1.958   8.400
   86PPPE   H3S44879   6.538   1.792   8.402
   86PPPE   C2444880   6.344   1.806   8.492
   86PPPE   H4R44881   6.325   1.698   8.476
   86PPPE   H4S44882   6.247   1.859   8.478
   86PPPE   C2544883   6.391   1.823   8.637
   86PPPE   H5R44884   6.495   1.786   8.649
   86PPPE   H5S44885   6.326   1.760   8.702
   86PPPE   C2644886   6.379   1.967   8.689
   86PPPE   H6R44887   6.283   2.011   8.656
   86PPPE   H6S44888   6.461   2.028   8.646
   86PPPE   C2744889   6.385   1.971   8.842
   86PPPE   H7R44890   6.476   1.916   8.874
   86PPPE   H7S44891   6.299   1.916   8.886
   86PPPE   C2844892   6.391   2.115   8.897
   86PPPE   H8R44893   6.460   2.173   8.832
   86PPPE   H8S44894   6.438   2.109   8.998
   86PPPE   C2944895   6.257   2.182   8.904
   86PPPE   H9144896   6.186   2.155   8.824
   86PPPE  C21044897   6.219   2.269   8.999
   86PPPE  H10144898   6.116   2.307   8.999
   86PPPE  C21144899   6.301   2.314   9.117
   86PPPE  H11R44900   6.288   2.423   9.134
   86PPPE  H11S44901   6.410   2.299   9.099
   86PPPE  C21244902   6.261   2.237   9.243
   86PPPE  H12R44903   6.264   2.128   9.223
   86PPPE  H12S44904   6.156   2.263   9.271
   86PPPE  C21344905   6.353   2.265   9.362
   86PPPE  H13R44906   6.442   2.324   9.329
   86PPPE  H13S44907   6.390   2.168   9.401
   86PPPE  C21444908   6.284   2.340   9.477
   86PPPE  H14R44909   6.193   2.285   9.508
   86PPPE  H14S44910   6.252   2.440   9.441
   86PPPE  C21544911   6.375   2.357   9.599
   86PPPE  H15R44912   6.327   2.429   9.668
   86PPPE  H15S44913   6.472   2.400   9.565
   86PPPE  C21644914   6.401   2.227   9.675
   86PPPE  H16R44915   6.304   2.188   9.713
   86PPPE  H16S44916   6.447   2.150   9.610
   86PPPE  H16T44917   6.467   2.243   9.762
   86PPPE   C3344918   6.671   2.279   8.393
   86PPPE   H3X44919   6.682   2.168   8.402
   86PPPE   H3Y44920   6.580   2.305   8.449
   86PPPE   C3444921   6.787   2.352   8.463
   86PPPE   H4X44922   6.789   2.456   8.424
   86PPPE   H4Y44923   6.886   2.308   8.439
   86PPPE   C3544924   6.767   2.365   8.615
   86PPPE   H5X44925   6.660   2.391   8.632
   86PPPE   H5Y44926   6.828   2.450   8.652
   86PPPE   C3644927   6.799   2.242   8.703
   86PPPE   H6X44928   6.909   2.226   8.703
   86PPPE   H6Y44929   6.750   2.151   8.662
   86PPPE   C3744930   6.750   2.267   8.847
   86PPPE   H7X44931   6.639   2.273   8.848
   86PPPE   H7Y44932   6.785   2.368   8.877
   86PPPE   C3844933   6.796   2.170   8.957
   86PPPE   H8X44934   6.764   2.216   9.053
   86PPPE   H8Y44935   6.907   2.165   8.960
   86PPPE   C3944936   6.740   2.028   8.953
   86PPPE   H9X44937   6.817   1.958   8.914
   86PPPE   H9Y44938   6.655   2.026   8.881
   86PPPE  C31044939   6.691   1.980   9.092
   86PPPE  H10X44940   6.650   1.877   9.083
   86PPPE  H10Y44941   6.609   2.046   9.125
   86PPPE  C31144942   6.801   1.979   9.199
   86PPPE  H11X44943   6.852   2.078   9.205
   86PPPE  H11Y44944   6.877   1.905   9.167
   86PPPE  C31244945   6.756   1.939   9.341
   86PPPE  H12X44946   6.847   1.932   9.404
   86PPPE  H12Y44947   6.711   1.838   9.336
   86PPPE  C31344948   6.657   2.035   9.410
   86PPPE  H13X44949   6.623   1.990   9.505
   86PPPE  H13Y44950   6.567   2.045   9.344
   86PPPE  C31444951   6.711   2.176   9.440
   86PPPE  H14X44952   6.627   2.244   9.463
   86PPPE  H14Y44953   6.760   2.216   9.348
   86PPPE  C31544954   6.811   2.182   9.557
   86PPPE  H15X44955   6.886   2.261   9.534
   86PPPE  H15Y44956   6.867   2.086   9.563
   86PPPE  C31644957   6.749   2.216   9.692
   86PPPE  H16X44958   6.828   2.225   9.770
   86PPPE  H16Y44959   6.695   2.313   9.687
   86PPPE  H16Z44960   6.677   2.138   9.724
   87PPPE     N44961   1.565   5.698   7.767
   87PPPE   HN144962   1.621   5.610   7.767
   87PPPE   HN244963   1.593   5.756   7.848
   87PPPE   HN344964   1.465   5.671   7.777
   87PPPE   C1244965   1.590   5.784   7.645
   87PPPE  H12A44966   1.525   5.748   7.562
   87PPPE  H12B44967   1.696   5.771   7.616
   87PPPE   C1144968   1.562   5.931   7.679
   87PPPE  H11A44969   1.453   5.947   7.691
   87PPPE  H11B44970   1.594   5.996   7.595
   87PPPE     P44971   1.773   6.025   7.801
   87PPPE   O1344972   1.853   5.940   7.710
   87PPPE   O1444973   1.764   6.170   7.772
   87PPPE   O1144974   1.818   5.998   7.950
   87PPPE   O1244975   1.626   5.966   7.802
   87PPPE    C144976   1.835   5.864   7.997
   87PPPE    HA44977   1.944   5.843   8.003
   87PPPE    HB44978   1.792   5.788   7.929
   87PPPE    C244979   1.774   5.839   8.138
   87PPPE    HS44980   1.665   5.862   8.135
   87PPPE   O2144981   1.841   5.918   8.237
   87PPPE   C2144982   1.791   6.038   8.259
   87PPPE   O2244983   1.699   6.090   8.198
   87PPPE   C2244984   1.864   6.100   8.379
   87PPPE   H2R44985   1.972   6.101   8.355
   87PPPE   H2S44986   1.849   6.032   8.466
   87PPPE    C344987   1.787   5.688   8.176
   87PPPE    HX44988   1.717   5.626   8.115
   87PPPE    HY44989   1.889   5.654   8.147
   87PPPE   O3144990   1.772   5.668   8.318
   87PPPE   C3144991   1.647   5.652   8.357
   87PPPE   O3244992   1.554   5.620   8.285
   87PPPE   C3244993   1.634   5.694   8.503
   87PPPE   H2X44994   1.718   5.762   8.529
   87PPPE   H2Y44995   1.640   5.604   8.568
   87PPPE   C2344996   1.816   6.243   8.413
   87PPPE   H3R44997   1.823   6.307   8.323
   87PPPE   H3S44998   1.886   6.286   8.489
   87PPPE   C2444999   1.674   6.251   8.471
   87PPPE   H4R45000   1.602   6.196   8.406
   87PPPE   H4S45001   1.642   6.357   8.472
   87PPPE   C2545002   1.663   6.198   8.615
   87PPPE   H5R45003   1.736   6.252   8.679
   87PPPE   H5S45004   1.691   6.091   8.618
   87PPPE   C2645005   1.523   6.216   8.675
   87PPPE   H6R45006   1.447   6.163   8.613
   87PPPE   H6S45007   1.497   6.324   8.674
   87PPPE   C2745008   1.518   6.165   8.819
   87PPPE   H7R45009   1.601   6.213   8.874
   87PPPE   H7S45010   1.535   6.056   8.821
   87PPPE   C2845011   1.386   6.196   8.891
   87PPPE   H8R45012   1.304   6.159   8.826
   87PPPE   H8S45013   1.372   6.306   8.898
   87PPPE   C2945014   1.370   6.134   9.028
   87PPPE   H9145015   1.264   6.120   9.054
   87PPPE  C21045016   1.459   6.097   9.123
   87PPPE  H10145017   1.417   6.054   9.214
   87PPPE  C21145018   1.611   6.105   9.132
   87PPPE  H11R45019   1.659   6.171   9.057
   87PPPE  H11S45020   1.660   6.005   9.124
   87PPPE  C21245021   1.642   6.161   9.271
   87PPPE  H12R45022   1.575   6.118   9.348
   87PPPE  H12S45023   1.621   6.270   9.266
   87PPPE  C21345024   1.784   6.152   9.329
   87PPPE  H13R45025   1.859   6.194   9.258
   87PPPE  H13S45026   1.810   6.047   9.351
   87PPPE  C21445027   1.780   6.236   9.457
   87PPPE  H14R45028   1.693   6.202   9.518
   87PPPE  H14S45029   1.761   6.342   9.431
   87PPPE  C21545030   1.902   6.230   9.547
   87PPPE  H15R45031   1.990   6.270   9.493
   87PPPE  H15S45032   1.924   6.125   9.574
   87PPPE  C21645033   1.879   6.312   9.675
   87PPPE  H16R45034   1.799   6.266   9.736
   87PPPE  H16S45035   1.971   6.318   9.737
   87PPPE  H16T45036   1.848   6.416   9.650
   87PPPE   C3345037   1.500   5.766   8.520
   87PPPE   H3X45038   1.418   5.690   8.512
   87PPPE   H3Y45039   1.485   5.838   8.437
   87PPPE   C3445040   1.485   5.846   8.649
   87PPPE   H4X45041   1.384   5.893   8.648
   87PPPE   H4Y45042   1.559   5.929   8.648
   87PPPE   C3545043   1.498   5.767   8.780
   87PPPE   H5X45044   1.463   5.662   8.769
   87PPPE   H5Y45045   1.430   5.817   8.853
   87PPPE   C3645046   1.638   5.772   8.842
   87PPPE   H6X45047   1.688   5.866   8.810
   87PPPE   H6Y45048   1.699   5.687   8.805
   87PPPE   C3745049   1.634   5.775   8.996
   87PPPE   H7X45050   1.562   5.854   9.026
   87PPPE   H7Y45051   1.735   5.803   9.034
   87PPPE   C3845052   1.592   5.644   9.064
   87PPPE   H8X45053   1.661   5.564   9.030
   87PPPE   H8Y45054   1.488   5.618   9.033
   87PPPE   C3945055   1.601   5.647   9.218
   87PPPE   H9X45056   1.708   5.652   9.247
   87PPPE   H9Y45057   1.560   5.552   9.259
   87PPPE  C31045058   1.530   5.766   9.286
   87PPPE  H10X45059   1.422   5.768   9.258
   87PPPE  H10Y45060   1.577   5.860   9.249
   87PPPE  C31145061   1.545   5.764   9.438
   87PPPE  H11X45062   1.643   5.717   9.462
   87PPPE  H11Y45063   1.466   5.700   9.484
   87PPPE  C31245064   1.545   5.904   9.503
   87PPPE  H12X45065   1.458   5.963   9.467
   87PPPE  H12Y45066   1.638   5.955   9.471
   87PPPE  C31345067   1.543   5.898   9.656
   87PPPE  H13X45068   1.614   5.819   9.687
   87PPPE  H13Y45069   1.442   5.868   9.692
   87PPPE  C31445070   1.589   6.027   9.726
   87PPPE  H14X45071   1.687   6.057   9.684
   87PPPE  H14Y45072   1.606   6.003   9.833
   87PPPE  C31545073   1.491   6.144   9.720
   87PPPE  H15X45074   1.462   6.165   9.615
   87PPPE  H15Y45075   1.543   6.234   9.759
   87PPPE  C31645076   1.365   6.123   9.805
   87PPPE  H16X45077   1.298   6.048   9.759
   87PPPE  H16Y45078   1.392   6.087   9.907
   87PPPE  H16Z45079   1.308   6.218   9.817
   88PPPE     N45080   1.705   2.235   7.592
   88PPPE   HN145081   1.729   2.282   7.682
   88PPPE   HN245082   1.793   2.242   7.537
   88PPPE   HN345083   1.626   2.285   7.548
   88PPPE   C1245084   1.676   2.091   7.631
   88PPPE  H12A45085   1.642   2.036   7.541
   88PPPE  H12B45086   1.593   2.093   7.705
   88PPPE   C1145087   1.799   2.022   7.694
   88PPPE  H11A45088   1.860   1.975   7.613
   88PPPE  H11B45089   1.767   1.940   7.760
   88PPPE     P45090   1.829   2.195   7.888
   88PPPE   O1345091   1.810   2.329   7.826
   88PPPE   O1445092   1.707   2.128   7.935
   88PPPE   O1145093   1.945   2.194   7.994
   88PPPE   O1245094   1.885   2.113   7.764
   88PPPE    C145095   2.065   2.117   7.984
   88PPPE    HA45096   2.152   2.187   7.984
   88PPPE    HB45097   2.072   2.058   7.890
   88PPPE    C245098   2.086   2.015   8.102
   88PPPE    HS45099   2.147   1.930   8.065
   88PPPE   O2145100   1.961   1.967   8.156
   88PPPE   C2145101   1.888   1.896   8.073
   88PPPE   O2245102   1.920   1.862   7.961
   88PPPE   C2245103   1.756   1.853   8.139
   88PPPE   H2R45104   1.753   1.742   8.136
   88PPPE   H2S45105   1.675   1.893   8.074
   88PPPE    C345106   2.167   2.080   8.218
   88PPPE    HX45107   2.175   2.004   8.299
   88PPPE    HY45108   2.269   2.103   8.182
   88PPPE   O3145109   2.101   2.201   8.260
   88PPPE   C3145110   2.116   2.233   8.387
   88PPPE   O3245111   2.192   2.180   8.466
   88PPPE   C3245112   2.017   2.345   8.418
   88PPPE   H2X45113   1.920   2.320   8.370
   88PPPE   H2Y45114   2.057   2.438   8.371
   88PPPE   C2345115   1.732   1.902   8.285
   88PPPE   H3R45116   1.732   2.013   8.286
   88PPPE   H3S45117   1.814   1.868   8.351
   88PPPE   C2445118   1.597   1.851   8.339
   88PPPE   H4R45119   1.604   1.742   8.358
   88PPPE   H4S45120   1.520   1.866   8.260
   88PPPE   C2545121   1.548   1.923   8.465
   88PPPE   H5R45122   1.444   1.889   8.487
   88PPPE   H5S45123   1.543   2.032   8.446
   88PPPE   C2645124   1.633   1.898   8.590
   88PPPE   H6R45125   1.731   1.949   8.577
   88PPPE   H6S45126   1.653   1.789   8.602
   88PPPE   C2745127   1.565   1.951   8.717
   88PPPE   H7R45128   1.485   1.881   8.750
   88PPPE   H7S45129   1.518   2.049   8.693
   88PPPE   C2845130   1.664   1.976   8.833
   88PPPE   H8R45131   1.610   2.030   8.914
   88PPPE   H8S45132   1.741   2.047   8.795
   88PPPE   C2945133   1.731   1.851   8.884
   88PPPE   H9145134   1.788   1.795   8.809
   88PPPE  C21045135   1.729   1.806   9.011
   88PPPE  H10145136   1.786   1.715   9.036
   88PPPE  C21145137   1.659   1.870   9.128
   88PPPE  H11R45138   1.625   1.792   9.198
   88PPPE  H11S45139   1.568   1.926   9.096
   88PPPE  C21245140   1.751   1.968   9.203
   88PPPE  H12R45141   1.795   2.041   9.132
   88PPPE  H12S45142   1.835   1.912   9.248
   88PPPE  C21345143   1.679   2.046   9.314
   88PPPE  H13R45144   1.609   2.120   9.270
   88PPPE  H13S45145   1.755   2.103   9.373
   88PPPE  C21445146   1.602   1.955   9.411
   88PPPE  H14R45147   1.668   1.870   9.440
   88PPPE  H14S45148   1.513   1.913   9.360
   88PPPE  C21545149   1.558   2.027   9.538
   88PPPE  H15R45150   1.488   2.109   9.512
   88PPPE  H15S45151   1.647   2.073   9.586
   88PPPE  C21645152   1.492   1.932   9.637
   88PPPE  H16R45153   1.558   1.845   9.658
   88PPPE  H16S45154   1.473   1.983   9.734
   88PPPE  H16T45155   1.395   1.893   9.599
   88PPPE   C3345156   1.998   2.367   8.569
   88PPPE   H3X45157   1.937   2.459   8.585
   88PPPE   H3Y45158   2.096   2.385   8.618
   88PPPE   C3445159   1.929   2.250   8.639
   88PPPE   H4X45160   1.983   2.155   8.616
   88PPPE   H4Y45161   1.824   2.238   8.602
   88PPPE   C3545162   1.929   2.266   8.791
   88PPPE   H5X45163   2.033   2.286   8.825
   88PPPE   H5Y45164   1.898   2.171   8.839
   88PPPE   C3645165   1.836   2.378   8.839
   88PPPE   H6X45166   1.741   2.373   8.782
   88PPPE   H6Y45167   1.883   2.476   8.819
   88PPPE   C3745168   1.803   2.365   8.989
   88PPPE   H7X45169   1.755   2.267   9.006
   88PPPE   H7Y45170   1.731   2.444   9.018
   88PPPE   C3845171   1.927   2.376   9.078
   88PPPE   H8X45172   1.970   2.478   9.072
   88PPPE   H8Y45173   2.006   2.306   9.043
   88PPPE   C3945174   1.894   2.342   9.224
   88PPPE   H9X45175   1.853   2.239   9.227
   88PPPE   H9Y45176   1.812   2.409   9.259
   88PPPE  C31045177   2.013   2.353   9.319
   88PPPE  H10X45178   1.978   2.327   9.421
   88PPPE  H10Y45179   2.050   2.457   9.321
   88PPPE  C31145180   2.131   2.259   9.284
   88PPPE  H11X45181   2.199   2.260   9.371
   88PPPE  H11Y45182   2.187   2.300   9.197
   88PPPE  C31245183   2.087   2.115   9.252
   88PPPE  H12X45184   2.031   2.115   9.156
   88PPPE  H12Y45185   2.015   2.082   9.330
   88PPPE  C31345186   2.202   2.014   9.240
   88PPPE  H13X45187   2.265   2.046   9.154
   88PPPE  H13Y45188   2.159   1.914   9.216
   88PPPE  C31445189   2.292   2.000   9.363
   88PPPE  H14X45190   2.332   2.098   9.395
   88PPPE  H14Y45191   2.380   1.939   9.332
   88PPPE  C31545192   2.230   1.928   9.485
   88PPPE  H15X45193   2.314   1.905   9.553
   88PPPE  H15Y45194   2.186   1.831   9.453
   88PPPE  C31645195   2.126   2.008   9.565
   88PPPE  H16X45196   2.116   1.965   9.667
   88PPPE  H16Y45197   2.155   2.114   9.575
   88PPPE  H16Z45198   2.025   2.003   9.518
   89PPPE     N45199   6.193   6.421   8.097
   89PPPE   HN145200   6.243   6.512   8.103
   89PPPE   HN245201   6.147   6.402   8.188
   89PPPE   HN345202   6.261   6.346   8.074
   89PPPE   C1245203   6.095   6.422   7.983
   89PPPE  H12A45204   6.044   6.521   7.980
   89PPPE  H12B45205   6.020   6.343   8.002
   89PPPE   C1145206   6.169   6.392   7.851
   89PPPE  H11A45207   6.232   6.479   7.824
   89PPPE  H11B45208   6.093   6.379   7.771
   89PPPE     P45209   6.270   6.168   7.755
   89PPPE   O1345210   6.166   6.063   7.771
   89PPPE   O1445211   6.278   6.232   7.623
   89PPPE   O1145212   6.410   6.103   7.784
   89PPPE   O1245213   6.252   6.277   7.869
   89PPPE    C145214   6.487   6.127   7.902
   89PPPE    HA45215   6.482   6.232   7.936
   89PPPE    HB45216   6.593   6.106   7.878
   89PPPE    C245217   6.447   6.032   8.018
   89PPPE    HS45218   6.440   5.931   7.972
   89PPPE   O2145219   6.321   6.076   8.074
   89PPPE   C2145220   6.248   5.977   8.125
   89PPPE   O2245221   6.275   5.859   8.117
   89PPPE   C2245222   6.121   6.032   8.187
   89PPPE   H2R45223   6.050   5.947   8.198
   89PPPE   H2S45224   6.076   6.106   8.117
   89PPPE    C345225   6.555   6.024   8.130
   89PPPE    HX45226   6.522   5.949   8.204
   89PPPE    HY45227   6.649   5.985   8.086
   89PPPE   O3145228   6.570   6.152   8.196
   89PPPE   C3145229   6.678   6.222   8.167
   89PPPE   O3245230   6.764   6.192   8.087
   89PPPE   C3245231   6.672   6.356   8.241
   89PPPE   H2X45232   6.603   6.422   8.184
   89PPPE   H2Y45233   6.774   6.401   8.237
   89PPPE   C2345234   6.144   6.096   8.326
   89PPPE   H3R45235   6.046   6.133   8.363
   89PPPE   H3S45236   6.213   6.183   8.320
   89PPPE   C2445237   6.198   5.997   8.429
   89PPPE   H4R45238   6.308   5.986   8.416
   89PPPE   H4S45239   6.153   5.896   8.415
   89PPPE   C2545240   6.169   6.042   8.573
   89PPPE   H5R45241   6.061   6.024   8.596
   89PPPE   H5S45242   6.185   6.152   8.581
   89PPPE   C2645243   6.256   5.973   8.679
   89PPPE   H6R45244   6.322   5.897   8.631
   89PPPE   H6S45245   6.190   5.919   8.750
   89PPPE   C2745246   6.341   6.072   8.758
   89PPPE   H7R45247   6.385   6.019   8.845
   89PPPE   H7S45248   6.274   6.150   8.799
   89PPPE   C2845249   6.454   6.137   8.676
   89PPPE   H8R45250   6.415   6.160   8.574
   89PPPE   H8S45251   6.535   6.062   8.661
   89PPPE   C2945252   6.508   6.263   8.738
   89PPPE   H9145253   6.486   6.355   8.682
   89PPPE  C21045254   6.575   6.274   8.854
   89PPPE  H10145255   6.606   6.373   8.891
   89PPPE  C21145256   6.608   6.159   8.944
   89PPPE  H11R45257   6.714   6.166   8.978
   89PPPE  H11S45258   6.600   6.063   8.887
   89PPPE  C21245259   6.517   6.140   9.066
   89PPPE  H12R45260   6.504   6.031   9.079
   89PPPE  H12S45261   6.415   6.182   9.050
   89PPPE  C21345262   6.577   6.193   9.196
   89PPPE  H13R45263   6.537   6.294   9.220
   89PPPE  H13S45264   6.687   6.205   9.185
   89PPPE  C21445265   6.553   6.094   9.311
   89PPPE  H14R45266   6.600   5.998   9.281
   89PPPE  H14S45267   6.445   6.075   9.325
   89PPPE  C21545268   6.616   6.139   9.443
   89PPPE  H15R45269   6.543   6.201   9.500
   89PPPE  H15S45270   6.703   6.204   9.421
   89PPPE  C21645271   6.663   6.020   9.527
   89PPPE  H16R45272   6.579   5.968   9.577
   89PPPE  H16S45273   6.716   5.946   9.464
   89PPPE  H16T45274   6.733   6.055   9.605
   89PPPE   C3345275   6.625   6.345   8.389
   89PPPE   H3X45276   6.704   6.295   8.448
   89PPPE   H3Y45277   6.533   6.283   8.398
   89PPPE   C3445278   6.596   6.483   8.450
   89PPPE   H4X45279   6.675   6.554   8.416
   89PPPE   H4Y45280   6.604   6.479   8.561
   89PPPE   C3545281   6.460   6.542   8.411
   89PPPE   H5X45282   6.441   6.520   8.304
   89PPPE   H5Y45283   6.468   6.653   8.422
   89PPPE   C3645284   6.341   6.496   8.497
   89PPPE   H6X45285   6.347   6.386   8.512
   89PPPE   H6Y45286   6.246   6.517   8.442
   89PPPE   C3745287   6.332   6.568   8.632
   89PPPE   H7X45288   6.319   6.677   8.618
   89PPPE   H7Y45289   6.427   6.554   8.688
   89PPPE   C3845290   6.216   6.516   8.718
   89PPPE   H8X45291   6.218   6.405   8.720
   89PPPE   H8Y45292   6.120   6.547   8.671
   89PPPE   C3945293   6.217   6.565   8.864
   89PPPE   H9X45294   6.121   6.536   8.909
   89PPPE   H9Y45295   6.224   6.676   8.868
   89PPPE  C31045296   6.331   6.504   8.947
   89PPPE  H10X45297   6.429   6.546   8.914
   89PPPE  H10Y45298   6.334   6.394   8.927
   89PPPE  C31145299   6.318   6.522   9.099
   89PPPE  H11X45300   6.314   6.630   9.125
   89PPPE  H11Y45301   6.408   6.479   9.147
   89PPPE  C31245302   6.194   6.450   9.155
   89PPPE  H12X45303   6.189   6.348   9.111
   89PPPE  H12Y45304   6.103   6.504   9.124
   89PPPE  C31345305   6.193   6.437   9.308
   89PPPE  H13X45306   6.090   6.410   9.340
   89PPPE  H13Y45307   6.218   6.534   9.355
   89PPPE  C31445308   6.287   6.327   9.359
   89PPPE  H14X45309   6.391   6.364   9.357
   89PPPE  H14Y45310   6.281   6.238   9.291
   89PPPE  C31545311   6.254   6.280   9.501
   89PPPE  H15X45312   6.327   6.202   9.531
   89PPPE  H15Y45313   6.153   6.234   9.503
   89PPPE  C31645314   6.258   6.393   9.603
   89PPPE  H16X45315   6.250   6.352   9.706
   89PPPE  H16Y45316   6.352   6.451   9.595
   89PPPE  H16Z45317   6.173   6.463   9.587
   90PPPE     N45318   4.069   7.029   8.075
   90PPPE   HN145319   4.008   7.085   8.012
   90PPPE   HN245320   4.016   6.949   8.114
   90PPPE   HN345321   4.102   7.091   8.152
   90PPPE   C1245322   4.185   6.986   7.989
   90PPPE  H12A45323   4.148   6.908   7.920
   90PPPE  H12B45324   4.264   6.943   8.054
   90PPPE   C1145325   4.238   7.106   7.907
   90PPPE  H11A45326   4.315   7.067   7.837
   90PPPE  H11B45327   4.287   7.179   7.975
   90PPPE     P45328   4.158   7.281   7.731
   90PPPE   O1345329   4.281   7.247   7.655
   90PPPE   O1445330   4.037   7.308   7.652
   90PPPE   O1145331   4.181   7.407   7.825
   90PPPE   O1245332   4.129   7.166   7.837
   90PPPE    C145333   4.078   7.432   7.922
   90PPPE    HA45334   4.073   7.350   7.997
   90PPPE    HB45335   3.978   7.441   7.874
   90PPPE    C245336   4.103   7.562   8.001
   90PPPE    HS45337   4.127   7.642   7.927
   90PPPE   O2145338   4.212   7.539   8.092
   90PPPE   C2145339   4.273   7.649   8.134
   90PPPE   O2245340   4.253   7.761   8.089
   90PPPE   C2245341   4.377   7.612   8.240
   90PPPE   H2R45342   4.405   7.704   8.294
   90PPPE   H2S45343   4.466   7.575   8.185
   90PPPE    C345344   3.974   7.603   8.079
   90PPPE    HX45345   3.991   7.699   8.133
   90PPPE    HY45346   3.895   7.624   8.004
   90PPPE   O3145347   3.929   7.495   8.164
   90PPPE   C3145348   3.967   7.504   8.292
   90PPPE   O3245349   4.026   7.600   8.339
   90PPPE   C3245350   3.933   7.374   8.363
   90PPPE   H2X45351   4.013   7.300   8.343
   90PPPE   H2Y45352   3.837   7.336   8.321
   90PPPE   C2345353   4.331   7.503   8.339
   90PPPE   H3R45354   4.277   7.422   8.285
   90PPPE   H3S45355   4.260   7.547   8.413
   90PPPE   C2445356   4.446   7.434   8.415
   90PPPE   H4R45357   4.531   7.418   8.345
   90PPPE   H4S45358   4.412   7.334   8.450
   90PPPE   C2545359   4.493   7.513   8.538
   90PPPE   H5R45360   4.458   7.618   8.532
   90PPPE   H5S45361   4.604   7.513   8.538
   90PPPE   C2645362   4.448   7.452   8.671
   90PPPE   H6R45363   4.490   7.349   8.679
   90PPPE   H6S45364   4.337   7.444   8.676
   90PPPE   C2745365   4.499   7.534   8.791
   90PPPE   H7R45366   4.435   7.624   8.805
   90PPPE   H7S45367   4.601   7.569   8.768
   90PPPE   C2845368   4.507   7.454   8.922
   90PPPE   H8R45369   4.565   7.516   8.995
   90PPPE   H8S45370   4.568   7.363   8.905
   90PPPE   C2945371   4.374   7.416   8.981
   90PPPE   H9145372   4.334   7.319   8.949
   90PPPE  C21045373   4.303   7.490   9.068
   90PPPE  H10145374   4.209   7.450   9.107
   90PPPE  C21145375   4.341   7.625   9.123
   90PPPE  H11R45376   4.273   7.702   9.081
   90PPPE  H11S45377   4.445   7.655   9.095
   90PPPE  C21245378   4.332   7.635   9.276
   90PPPE  H12R45379   4.231   7.604   9.309
   90PPPE  H12S45380   4.344   7.741   9.307
   90PPPE  C21345381   4.435   7.549   9.351
   90PPPE  H13R45382   4.535   7.599   9.349
   90PPPE  H13S45383   4.446   7.452   9.297
   90PPPE  C21445384   4.394   7.515   9.495
   90PPPE  H14R45385   4.464   7.441   9.540
   90PPPE  H14S45386   4.296   7.463   9.485
   90PPPE  C21545387   4.379   7.633   9.591
   90PPPE  H15R45388   4.305   7.706   9.551
   90PPPE  H15S45389   4.478   7.684   9.596
   90PPPE  C21645390   4.340   7.595   9.734
   90PPPE  H16R45391   4.344   7.683   9.801
   90PPPE  H16S45392   4.237   7.554   9.738
   90PPPE  H16T45393   4.410   7.518   9.775
   90PPPE   C3345394   3.914   7.391   8.516
   90PPPE   H3X45395   3.859   7.302   8.554
   90PPPE   H3Y45396   3.852   7.480   8.538
   90PPPE   C3445397   4.047   7.401   8.593
   90PPPE   H4X45398   4.112   7.477   8.547
   90PPPE   H4Y45399   4.100   7.303   8.590
   90PPPE   C3545400   4.026   7.442   8.740
   90PPPE   H5X45401   3.988   7.547   8.741
   90PPPE   H5Y45402   4.125   7.443   8.792
   90PPPE   C3645403   3.929   7.352   8.817
   90PPPE   H6X45404   3.962   7.246   8.807
   90PPPE   H6Y45405   3.827   7.360   8.774
   90PPPE   C3745406   3.921   7.387   8.966
   90PPPE   H7X45407   4.023   7.379   9.011
   90PPPE   H7Y45408   3.857   7.312   9.017
   90PPPE   C3845409   3.863   7.526   8.994
   90PPPE   H8X45410   3.760   7.530   8.952
   90PPPE   H8Y45411   3.923   7.605   8.943
   90PPPE   C3945412   3.857   7.557   9.144
   90PPPE   H9X45413   3.864   7.460   9.199
   90PPPE   H9Y45414   3.759   7.602   9.168
   90PPPE  C31045415   3.970   7.649   9.192
   90PPPE  H10X45416   3.972   7.742   9.130
   90PPPE  H10Y45417   4.066   7.596   9.173
   90PPPE  C31145418   3.964   7.689   9.340
   90PPPE  H11X45419   3.888   7.768   9.354
   90PPPE  H11Y45420   4.061   7.733   9.372
   90PPPE  C31245421   3.928   7.573   9.436
   90PPPE  H12X45422   3.836   7.523   9.400
   90PPPE  H12Y45423   3.905   7.619   9.534
   90PPPE  C31345424   4.043   7.473   9.454
   90PPPE  H13X45425   4.112   7.517   9.529
   90PPPE  H13Y45426   4.096   7.462   9.357
   90PPPE  C31445427   4.007   7.329   9.496
   90PPPE  H14X45428   3.930   7.290   9.426
   90PPPE  H14Y45429   3.965   7.327   9.598
   90PPPE  C31545430   4.129   7.234   9.489
   90PPPE  H15X45431   4.180   7.251   9.391
   90PPPE  H15Y45432   4.092   7.129   9.488
   90PPPE  C31645433   4.232   7.248   9.601
   90PPPE  H16X45434   4.336   7.236   9.562
   90PPPE  H16Y45435   4.223   7.347   9.651
   90PPPE  H16Z45436   4.218   7.170   9.680
   91PPPE     N45437   3.119   1.157   7.619
   91PPPE   HN145438   3.078   1.242   7.574
   91PPPE   HN245439   3.223   1.158   7.616
   91PPPE   HN345440   3.091   1.075   7.562
   91PPPE   C1245441   3.075   1.140   7.761
   91PPPE  H12A45442   2.964   1.143   7.763
   91PPPE  H12B45443   3.116   1.225   7.820
   91PPPE   C1145444   3.127   1.006   7.817
   91PPPE  H11A45445   3.061   0.924   7.783
   91PPPE  H11B45446   3.116   1.014   7.927
   91PPPE     P45447   3.371   0.910   7.866
   91PPPE   O1345448   3.352   0.762   7.862
   91PPPE   O1445449   3.503   0.953   7.818
   91PPPE   O1145450   3.345   0.964   8.012
   91PPPE   O1245451   3.261   0.980   7.775
   91PPPE    C145452   3.264   0.900   8.111
   91PPPE    HA45453   3.331   0.847   8.182
   91PPPE    HB45454   3.194   0.825   8.068
   91PPPE    C245455   3.178   1.001   8.195
   91PPPE    HS45456   3.102   1.046   8.128
   91PPPE   O2145457   3.263   1.102   8.253
   91PPPE   C2145458   3.279   1.212   8.182
   91PPPE   O2245459   3.228   1.237   8.074
   91PPPE   C2245460   3.372   1.310   8.257
   91PPPE   H2R45461   3.316   1.404   8.275
   91PPPE   H2S45462   3.456   1.331   8.188
   91PPPE    C345463   3.096   0.934   8.310
   91PPPE    HX45464   3.034   1.014   8.356
   91PPPE    HY45465   3.024   0.860   8.267
   91PPPE   O3145466   3.178   0.877   8.415
   91PPPE   C3145467   3.206   0.749   8.403
   91PPPE   O3245468   3.174   0.676   8.310
   91PPPE   C3245469   3.299   0.706   8.515
   91PPPE   H2X45470   3.394   0.762   8.504
   91PPPE   H2Y45471   3.319   0.598   8.499
   91PPPE   C2345472   3.429   1.257   8.391
   91PPPE   H3R45473   3.518   1.317   8.419
   91PPPE   H3S45474   3.464   1.152   8.378
   91PPPE   C2445475   3.331   1.262   8.509
   91PPPE   H4R45476   3.234   1.215   8.480
   91PPPE   H4S45477   3.311   1.367   8.539
   91PPPE   C2545478   3.387   1.183   8.628
   91PPPE   H5R45479   3.481   1.231   8.663
   91PPPE   H5S45480   3.410   1.081   8.591
   91PPPE   C2645481   3.293   1.163   8.748
   91PPPE   H6R45482   3.336   1.084   8.812
   91PPPE   H6S45483   3.195   1.127   8.710
   91PPPE   C2745484   3.276   1.289   8.834
   91PPPE   H7R45485   3.219   1.365   8.777
   91PPPE   H7S45486   3.376   1.332   8.857
   91PPPE   C2845487   3.206   1.260   8.968
   91PPPE   H8R45488   3.182   1.356   9.018
   91PPPE   H8S45489   3.278   1.206   9.033
   91PPPE   C2945490   3.080   1.178   8.947
   91PPPE   H9145491   3.022   1.207   8.858
   91PPPE  C21045492   3.034   1.079   9.026
   91PPPE  H10145493   2.940   1.029   8.998
   91PPPE  C21145494   3.097   1.029   9.153
   91PPPE  H11R45495   3.046   1.078   9.239
   91PPPE  H11S45496   3.204   1.056   9.160
   91PPPE  C21245497   3.084   0.877   9.173
   91PPPE  H12R45498   3.122   0.824   9.082
   91PPPE  H12S45499   2.977   0.849   9.186
   91PPPE  C21345500   3.165   0.826   9.294
   91PPPE  H13R45501   3.272   0.847   9.276
   91PPPE  H13S45502   3.153   0.716   9.303
   91PPPE  C21445503   3.126   0.893   9.427
   91PPPE  H14R45504   3.020   0.873   9.450
   91PPPE  H14S45505   3.138   1.003   9.418
   91PPPE  C21545506   3.214   0.847   9.544
   91PPPE  H15R45507   3.321   0.858   9.517
   91PPPE  H15S45508   3.197   0.739   9.562
   91PPPE  C21645509   3.188   0.925   9.673
   91PPPE  H16R45510   3.251   0.888   9.756
   91PPPE  H16S45511   3.210   1.033   9.658
   91PPPE  H16T45512   3.082   0.917   9.704
   91PPPE   C3345513   3.245   0.725   8.659
   91PPPE   H3X45514   3.143   0.681   8.668
   91PPPE   H3Y45515   3.238   0.833   8.683
   91PPPE   C3445516   3.337   0.655   8.760
   91PPPE   H4X45517   3.440   0.698   8.753
   91PPPE   H4Y45518   3.343   0.548   8.732
   91PPPE   C3545519   3.290   0.663   8.905
   91PPPE   H5X45520   3.182   0.636   8.907
   91PPPE   H5Y45521   3.298   0.767   8.943
   91PPPE   C3645522   3.367   0.566   8.997
   91PPPE   H6X45523   3.378   0.468   8.946
   91PPPE   H6Y45524   3.309   0.548   9.090
   91PPPE   C3745525   3.503   0.618   9.043
   91PPPE   H7X45526   3.560   0.660   8.958
   91PPPE   H7Y45527   3.562   0.533   9.084
   91PPPE   C3845528   3.488   0.722   9.154
   91PPPE   H8X45529   3.434   0.677   9.240
   91PPPE   H8Y45530   3.427   0.807   9.117
   91PPPE   C3945531   3.623   0.774   9.203
   91PPPE   H9X45532   3.674   0.821   9.116
   91PPPE   H9Y45533   3.684   0.687   9.237
   91PPPE  C31045534   3.612   0.875   9.318
   91PPPE  H10X45535   3.710   0.886   9.368
   91PPPE  H10Y45536   3.541   0.835   9.393
   91PPPE  C31145537   3.565   1.014   9.272
   91PPPE  H11X45538   3.502   1.005   9.181
   91PPPE  H11Y45539   3.654   1.076   9.245
   91PPPE  C31245540   3.482   1.085   9.379
   91PPPE  H12X45541   3.539   1.090   9.474
   91PPPE  H12Y45542   3.391   1.023   9.398
   91PPPE  C31345543   3.435   1.225   9.339
   91PPPE  H13X45544   3.400   1.224   9.234
   91PPPE  H13Y45545   3.520   1.296   9.347
   91PPPE  C31445546   3.321   1.277   9.428
   91PPPE  H14X45547   3.231   1.215   9.411
   91PPPE  H14Y45548   3.295   1.381   9.397
   91PPPE  C31545549   3.353   1.277   9.578
   91PPPE  H15X45550   3.371   1.173   9.612
   91PPPE  H15Y45551   3.262   1.313   9.632
   91PPPE  C31645552   3.472   1.364   9.619
   91PPPE  H16X45553   3.486   1.362   9.729
   91PPPE  H16Y45554   3.566   1.327   9.572
   91PPPE  H16Z45555   3.456   1.470   9.588
   92PPPE     N45556   5.397   6.942   8.006
   92PPPE   HN145557   5.400   6.919   8.107
   92PPPE   HN245558   5.491   6.973   7.974
   92PPPE   HN345559   5.330   7.020   7.989
   92PPPE   C1245560   5.362   6.823   7.921
   92PPPE  H12A45561   5.288   6.856   7.845
   92PPPE  H12B45562   5.317   6.744   7.985
   92PPPE   C1145563   5.489   6.773   7.850
   92PPPE  H11A45564   5.462   6.693   7.777
   92PPPE  H11B45565   5.558   6.728   7.926
   92PPPE     P45566   5.698   6.872   7.724
   92PPPE   O1345567   5.781   6.795   7.818
   92PPPE   O1445568   5.690   6.819   7.585
   92PPPE   O1145569   5.740   7.024   7.716
   92PPPE   O1245570   5.551   6.883   7.782
   92PPPE    C145571   5.695   7.124   7.808
   92PPPE    HA45572   5.589   7.110   7.837
   92PPPE    HB45573   5.701   7.223   7.757
   92PPPE    C245574   5.783   7.137   7.936
   92PPPE    HS45575   5.885   7.163   7.902
   92PPPE   O2145576   5.780   7.013   8.008
   92PPPE   C2145577   5.884   6.995   8.088
   92PPPE   O2245578   5.980   7.069   8.099
   92PPPE   C2245579   5.865   6.866   8.167
   92PPPE   H2R45580   5.947   6.859   8.242
   92PPPE   H2S45581   5.874   6.782   8.095
   92PPPE    C345582   5.729   7.250   8.028
   92PPPE    HX45583   5.798   7.257   8.115
   92PPPE    HY45584   5.733   7.346   7.973
   92PPPE   O3145585   5.595   7.220   8.072
   92PPPE   C3145586   5.550   7.308   8.162
   92PPPE   O3245587   5.605   7.411   8.194
   92PPPE   C3245588   5.417   7.258   8.217
   92PPPE   H2X45589   5.385   7.167   8.163
   92PPPE   H2Y45590   5.342   7.338   8.197
   92PPPE   C2345591   5.727   6.860   8.238
   92PPPE   H3R45592   5.648   6.892   8.166
   92PPPE   H3S45593   5.726   6.931   8.323
   92PPPE   C2445594   5.690   6.719   8.285
   92PPPE   H4R45595   5.703   6.648   8.200
   92PPPE   H4S45596   5.583   6.717   8.314
   92PPPE   C2545597   5.772   6.669   8.405
   92PPPE   H5R45598   5.881   6.672   8.383
   92PPPE   H5S45599   5.745   6.563   8.422
   92PPPE   C2645600   5.744   6.747   8.535
   92PPPE   H6R45601   5.637   6.776   8.537
   92PPPE   H6S45602   5.805   6.840   8.538
   92PPPE   C2745603   5.771   6.660   8.658
   92PPPE   H7R45604   5.877   6.626   8.660
   92PPPE   H7S45605   5.707   6.570   8.649
   92PPPE   C2845606   5.735   6.726   8.793
   92PPPE   H8R45607   5.729   6.645   8.869
   92PPPE   H8S45608   5.633   6.768   8.786
   92PPPE   C2945609   5.832   6.834   8.835
   92PPPE   H9145610   5.833   6.922   8.769
   92PPPE  C21045611   5.913   6.832   8.942
   92PPPE  H10145612   5.977   6.920   8.961
   92PPPE  C21145613   5.926   6.723   9.046
   92PPPE  H11R45614   6.034   6.700   9.061
   92PPPE  H11S45615   5.877   6.629   9.014
   92PPPE  C21245616   5.867   6.763   9.183
   92PPPE  H12R45617   5.867   6.674   9.249
   92PPPE  H12S45618   5.762   6.796   9.171
   92PPPE  C21345619   5.948   6.874   9.253
   92PPPE  H13R45620   5.956   6.962   9.185
   92PPPE  H13S45621   6.050   6.837   9.274
   92PPPE  C21445622   5.884   6.923   9.384
   92PPPE  H14R45623   5.781   6.960   9.364
   92PPPE  H14S45624   5.944   7.010   9.421
   92PPPE  C21545625   5.879   6.819   9.496
   92PPPE  H15R45626   5.981   6.778   9.513
   92PPPE  H15S45627   5.813   6.735   9.466
   92PPPE  C21645628   5.827   6.879   9.627
   92PPPE  H16R45629   5.824   6.801   9.706
   92PPPE  H16S45630   5.893   6.961   9.662
   92PPPE  H16T45631   5.724   6.920   9.614
   92PPPE   C3345632   5.424   7.230   8.369
   92PPPE   H3X45633   5.321   7.203   8.402
   92PPPE   H3Y45634   5.454   7.322   8.424
   92PPPE   C3445635   5.519   7.116   8.408
   92PPPE   H4X45636   5.624   7.153   8.399
   92PPPE   H4Y45637   5.507   7.030   8.339
   92PPPE   C3545638   5.497   7.066   8.552
   92PPPE   H5X45639   5.494   7.153   8.621
   92PPPE   H5Y45640   5.585   7.004   8.582
   92PPPE   C3645641   5.370   6.981   8.569
   92PPPE   H6X45642   5.371   6.901   8.492
   92PPPE   H6Y45643   5.280   7.044   8.551
   92PPPE   C3745644   5.357   6.914   8.706
   92PPPE   H7X45645   5.449   6.855   8.727
   92PPPE   H7Y45646   5.272   6.842   8.704
   92PPPE   C3845647   5.333   7.012   8.822
   92PPPE   H8X45648   5.242   7.072   8.799
   92PPPE   H8Y45649   5.419   7.082   8.830
   92PPPE   C3945650   5.312   6.944   8.959
   92PPPE   H9X45651   5.229   6.871   8.952
   92PPPE   H9Y45652   5.282   7.022   9.031
   92PPPE  C31045653   5.437   6.872   9.013
   92PPPE  H10X45654   5.524   6.941   9.008
   92PPPE  H10Y45655   5.460   6.784   8.948
   92PPPE  C31145656   5.424   6.822   9.158
   92PPPE  H11X45657   5.513   6.761   9.183
   92PPPE  H11Y45658   5.335   6.756   9.167
   92PPPE  C31245659   5.414   6.936   9.260
   92PPPE  H12X45660   5.320   6.993   9.242
   92PPPE  H12Y45661   5.499   7.006   9.246
   92PPPE  C31345662   5.413   6.891   9.407
   92PPPE  H13X45663   5.503   6.831   9.430
   92PPPE  H13Y45664   5.324   6.826   9.423
   92PPPE  C31445665   5.406   7.013   9.501
   92PPPE  H14X45666   5.327   7.081   9.462
   92PPPE  H14Y45667   5.503   7.068   9.496
   92PPPE  C31545668   5.372   6.983   9.647
   92PPPE  H15X45669   5.370   7.080   9.702
   92PPPE  H15Y45670   5.454   6.924   9.694
   92PPPE  C31645671   5.238   6.912   9.669
   92PPPE  H16X45672   5.158   6.960   9.608
   92PPPE  H16Y45673   5.244   6.805   9.640
   92PPPE  H16Z45674   5.207   6.918   9.775
   93PPPE     N45675   7.041   3.616   7.698
   93PPPE   HN145676   6.948   3.643   7.660
   93PPPE   HN245677   7.105   3.697   7.694
   93PPPE   HN345678   7.084   3.544   7.637
   93PPPE   C1245679   7.041   3.555   7.836
   93PPPE  H12A45680   6.936   3.534   7.866
   93PPPE  H12B45681   7.085   3.630   7.906
   93PPPE   C1145682   7.126   3.427   7.835
   93PPPE  H11A45683   7.062   3.343   7.800
   93PPPE  H11B45684   7.158   3.400   7.939
   93PPPE     P45685   7.369   3.514   7.789
   93PPPE   O1345686   7.465   3.498   7.677
   93PPPE   O1445687   7.327   3.653   7.818
   93PPPE   O1145688   7.416   3.437   7.918
   93PPPE   O1245689   7.238   3.436   7.746
   93PPPE    C145690   7.451   3.299   7.903
   93PPPE    HA45691   7.523   3.285   7.820
   93PPPE    HB45692   7.361   3.239   7.880
   93PPPE    C245693   7.523   3.236   8.028
   93PPPE    HS45694   7.547   3.131   8.002
   93PPPE   O2145695   7.440   3.240   8.146
   93PPPE   C2145696   7.337   3.157   8.146
   93PPPE   O2245697   7.301   3.089   8.051
   93PPPE   C2245698   7.269   3.150   8.284
   93PPPE   H2R45699   7.261   3.043   8.310
   93PPPE   H2S45700   7.167   3.192   8.271
   93PPPE    C345701   7.659   3.306   8.058
   93PPPE    HX45702   7.728   3.233   8.105
   93PPPE    HY45703   7.705   3.332   7.960
   93PPPE   O3145704   7.644   3.427   8.136
   93PPPE   C3145705   7.653   3.409   8.268
   93PPPE   O3245706   7.689   3.307   8.323
   93PPPE   C3245707   7.610   3.537   8.339
   93PPPE   H2X45708   7.522   3.512   8.403
   93PPPE   H2Y45709   7.579   3.611   8.263
   93PPPE   C2345710   7.338   3.222   8.403
   93PPPE   H3R45711   7.259   3.245   8.477
   93PPPE   H3S45712   7.384   3.318   8.372
   93PPPE   C2445713   7.443   3.134   8.474
   93PPPE   H4R45714   7.525   3.111   8.402
   93PPPE   H4S45715   7.398   3.037   8.505
   93PPPE   C2545716   7.505   3.202   8.598
   93PPPE   H5R45717   7.537   3.304   8.568
   93PPPE   H5S45718   7.597   3.146   8.628
   93PPPE   C2645719   7.411   3.210   8.720
   93PPPE   H6R45720   7.415   3.115   8.776
   93PPPE   H6S45721   7.307   3.223   8.684
   93PPPE   C2745722   7.443   3.329   8.812
   93PPPE   H7R45723   7.358   3.346   8.881
   93PPPE   H7S45724   7.452   3.420   8.749
   93PPPE   C2845725   7.573   3.314   8.894
   93PPPE   H8R45726   7.606   3.416   8.922
   93PPPE   H8S45727   7.653   3.272   8.829
   93PPPE   C2945728   7.554   3.229   9.017
   93PPPE   H9145729   7.503   3.132   8.999
   93PPPE  C21045730   7.594   3.258   9.142
   93PPPE  H10145731   7.573   3.186   9.223
   93PPPE  C21145732   7.667   3.382   9.186
   93PPPE  H11R45733   7.724   3.427   9.102
   93PPPE  H11S45734   7.743   3.356   9.263
   93PPPE  C21245735   7.574   3.490   9.244
   93PPPE  H12R45736   7.492   3.508   9.172
   93PPPE  H12S45737   7.631   3.585   9.255
   93PPPE  C21345738   7.513   3.456   9.382
   93PPPE  H13R45739   7.463   3.357   9.378
   93PPPE  H13S45740   7.436   3.532   9.404
   93PPPE  C21445741   7.615   3.459   9.497
   93PPPE  H14R45742   7.670   3.555   9.491
   93PPPE  H14S45743   7.689   3.376   9.485
   93PPPE  C21545744   7.550   3.448   9.635
   93PPPE  H15R45745   7.460   3.514   9.638
   93PPPE  H15S45746   7.620   3.487   9.712
   93PPPE  C21645747   7.510   3.306   9.674
   93PPPE  H16R45748   7.446   3.306   9.765
   93PPPE  H16S45749   7.455   3.256   9.592
   93PPPE  H16T45750   7.601   3.245   9.696
   93PPPE   C3345751   7.723   3.595   8.427
   93PPPE   H3X45752   7.819   3.590   8.372
   93PPPE   H3Y45753   7.735   3.535   8.520
   93PPPE   C3445754   7.699   3.743   8.461
   93PPPE   H4X45755   7.682   3.798   8.367
   93PPPE   H4Y45756   7.792   3.785   8.507
   93PPPE   C3545757   7.582   3.768   8.557
   93PPPE   H5X45758   7.495   3.706   8.528
   93PPPE   H5Y45759   7.551   3.875   8.550
   93PPPE   C3645760   7.618   3.740   8.703
   93PPPE   H6X45761   7.700   3.808   8.734
   93PPPE   H6Y45762   7.655   3.636   8.714
   93PPPE   C3745763   7.498   3.760   8.796
   93PPPE   H7X45764   7.421   3.684   8.770
   93PPPE   H7Y45765   7.454   3.861   8.779
   93PPPE   C3845766   7.535   3.748   8.945
   93PPPE   H8X45767   7.607   3.828   8.972
   93PPPE   H8Y45768   7.586   3.651   8.961
   93PPPE   C3945769   7.413   3.755   9.038
   93PPPE   H9X45770   7.365   3.855   9.031
   93PPPE   H9Y45771   7.449   3.743   9.142
   93PPPE  C31045772   7.311   3.646   9.007
   93PPPE  H10X45773   7.366   3.552   8.985
   93PPPE  H10Y45774   7.251   3.672   8.917
   93PPPE  C31145775   7.217   3.617   9.124
   93PPPE  H11X45776   7.150   3.704   9.143
   93PPPE  H11Y45777   7.281   3.605   9.214
   93PPPE  C31245778   7.134   3.490   9.102
   93PPPE  H12X45779   7.202   3.408   9.070
   93PPPE  H12Y45780   7.061   3.508   9.020
   93PPPE  C31345781   7.060   3.444   9.228
   93PPPE  H13X45782   6.992   3.359   9.202
   93PPPE  H13Y45783   6.998   3.527   9.266
   93PPPE  C31445784   7.156   3.397   9.338
   93PPPE  H14X45785   7.224   3.481   9.367
   93PPPE  H14Y45786   7.220   3.314   9.300
   93PPPE  C31545787   7.085   3.353   9.464
   93PPPE  H15X45788   7.019   3.266   9.440
   93PPPE  H15Y45789   7.021   3.436   9.501
   93PPPE  C31645790   7.183   3.314   9.574
   93PPPE  H16X45791   7.252   3.399   9.597
   93PPPE  H16Y45792   7.129   3.286   9.667
   93PPPE  H16Z45793   7.246   3.228   9.541
   94PPPE     N45794   6.745   5.769   7.554
   94PPPE   HN145795   6.795   5.681   7.531
   94PPPE   HN245796   6.709   5.760   7.651
   94PPPE   HN345797   6.665   5.787   7.490
   94PPPE   C1245798   6.841   5.885   7.557
   94PPPE  H12A45799   6.781   5.978   7.559
   94PPPE  H12B45800   6.903   5.882   7.466
   94PPPE   C1145801   6.929   5.878   7.683
   94PPPE  H11A45802   6.981   5.975   7.696
   94PPPE  H11B45803   7.009   5.801   7.669
   94PPPE     P45804   6.839   5.714   7.871
   94PPPE   O1345805   6.697   5.688   7.894
   94PPPE   O1445806   6.911   5.617   7.785
   94PPPE   O1145807   6.920   5.745   8.003
   94PPPE   O1245808   6.846   5.853   7.796
   94PPPE    C145809   7.014   5.853   8.002
   94PPPE    HA45810   6.964   5.950   7.981
   94PPPE    HB45811   7.093   5.835   7.926
   94PPPE    C245812   7.086   5.867   8.138
   94PPPE    HS45813   7.166   5.943   8.126
   94PPPE   O2145814   7.139   5.738   8.173
   94PPPE   C2145815   7.243   5.740   8.254
   94PPPE   O2245816   7.318   5.833   8.273
   94PPPE   C2245817   7.255   5.602   8.319
   94PPPE   H2R45818   7.323   5.612   8.405
   94PPPE   H2S45819   7.301   5.533   8.244
   94PPPE    C345820   6.988   5.917   8.247
   94PPPE    HX45821   6.923   5.994   8.201
   94PPPE    HY45822   6.923   5.832   8.279
   94PPPE   O3145823   7.061   5.972   8.359
   94PPPE   C3145824   6.986   6.040   8.445
   94PPPE   O3245825   6.864   6.047   8.440
   94PPPE   C3245826   7.075   6.121   8.537
   94PPPE   H2X45827   7.009   6.198   8.583
   94PPPE   H2Y45828   7.152   6.173   8.475
   94PPPE   C2345829   7.119   5.547   8.367
   94PPPE   H3R45830   7.132   5.442   8.402
   94PPPE   H3S45831   7.043   5.545   8.286
   94PPPE   C2445832   7.067   5.630   8.484
   94PPPE   H4R45833   7.039   5.732   8.449
   94PPPE   H4S45834   7.150   5.643   8.558
   94PPPE   C2545835   6.947   5.572   8.560
   94PPPE   H5R45836   6.964   5.466   8.587
   94PPPE   H5S45837   6.858   5.577   8.494
   94PPPE   C2645838   6.922   5.654   8.687
   94PPPE   H6R45839   6.951   5.759   8.665
   94PPPE   H6S45840   6.988   5.620   8.770
   94PPPE   C2745841   6.776   5.651   8.731
   94PPPE   H7R45842   6.753   5.549   8.768
   94PPPE   H7S45843   6.711   5.671   8.642
   94PPPE   C2845844   6.740   5.752   8.841
   94PPPE   H8R45845   6.791   5.720   8.935
   94PPPE   H8S45846   6.631   5.746   8.863
   94PPPE   C2945847   6.773   5.893   8.801
   94PPPE   H9145848   6.716   5.932   8.716
   94PPPE  C21045849   6.864   5.971   8.860
   94PPPE  H10145850   6.877   6.075   8.825
   94PPPE  C21145851   6.951   5.932   8.976
   94PPPE  H11R45852   6.965   5.822   8.982
   94PPPE  H11S45853   7.053   5.975   8.964
   94PPPE  C21245854   6.897   5.980   9.110
   94PPPE  H12R45855   6.909   5.898   9.184
   94PPPE  H12S45856   6.787   5.999   9.108
   94PPPE  C21345857   6.972   6.103   9.162
   94PPPE  H13R45858   6.931   6.194   9.113
   94PPPE  H13S45859   7.080   6.097   9.139
   94PPPE  C21445860   6.957   6.112   9.314
   94PPPE  H14R45861   6.853   6.080   9.339
   94PPPE  H14S45862   6.968   6.218   9.346
   94PPPE  C21545863   7.055   6.021   9.390
   94PPPE  H15R45864   7.153   6.073   9.401
   94PPPE  H15S45865   7.078   5.931   9.329
   94PPPE  C21645866   7.004   5.975   9.526
   94PPPE  H16R45867   6.965   6.061   9.585
   94PPPE  H16S45868   6.922   5.901   9.513
   94PPPE  H16T45869   7.085   5.927   9.585
   94PPPE   C3345870   7.145   6.044   8.652
   94PPPE   H3X45871   7.069   5.999   8.720
   94PPPE   H3Y45872   7.202   6.118   8.712
   94PPPE   C3445873   7.240   5.933   8.608
   94PPPE   H4X45874   7.298   5.968   8.521
   94PPPE   H4Y45875   7.180   5.846   8.573
   94PPPE   C3545876   7.337   5.888   8.720
   94PPPE   H5X45877   7.380   5.978   8.767
   94PPPE   H5Y45878   7.420   5.829   8.676
   94PPPE   C3645879   7.272   5.805   8.831
   94PPPE   H6X45880   7.243   5.705   8.793
   94PPPE   H6Y45881   7.178   5.856   8.862
   94PPPE   C3745882   7.362   5.791   8.956
   94PPPE   H7X45883   7.429   5.879   8.962
   94PPPE   H7Y45884   7.426   5.701   8.946
   94PPPE   C3845885   7.283   5.786   9.089
   94PPPE   H8X45886   7.225   5.880   9.100
   94PPPE   H8Y45887   7.355   5.783   9.174
   94PPPE   C3945888   7.189   5.666   9.101
   94PPPE   H9X45889   7.249   5.573   9.108
   94PPPE   H9Y45890   7.124   5.661   9.011
   94PPPE  C31045891   7.099   5.667   9.224
   94PPPE  H10X45892   7.051   5.767   9.233
   94PPPE  H10Y45893   7.161   5.652   9.315
   94PPPE  C31145894   6.985   5.565   9.217
   94PPPE  H11X45895   7.028   5.465   9.192
   94PPPE  H11Y45896   6.917   5.594   9.134
   94PPPE  C31245897   6.906   5.554   9.347
   94PPPE  H12X45898   6.821   5.484   9.330
   94PPPE  H12Y45899   6.862   5.652   9.376
   94PPPE  C31345900   6.989   5.497   9.462
   94PPPE  H13X45901   7.047   5.579   9.511
   94PPPE  H13Y45902   7.063   5.428   9.417
   94PPPE  C31445903   6.911   5.414   9.564
   94PPPE  H14X45904   6.975   5.327   9.591
   94PPPE  H14Y45905   6.818   5.373   9.518
   94PPPE  C31545906   6.879   5.484   9.696
   94PPPE  H15X45907   6.819   5.415   9.759
   94PPPE  H15Y45908   6.815   5.573   9.674
   94PPPE  C31645909   7.003   5.526   9.776
   94PPPE  H16X45910   7.071   5.440   9.789
   94PPPE  H16Y45911   7.059   5.607   9.724
   94PPPE  H16Z45912   6.974   5.564   9.876
   95PPPE     N45913   0.823   2.543   7.785
   95PPPE   HN145914   0.732   2.494   7.787
   95PPPE   HN245915   0.827   2.616   7.859
   95PPPE   HN345916   0.836   2.592   7.694
   95PPPE   C1245917   0.939   2.449   7.805
   95PPPE  H12A45918   0.954   2.395   7.709
   95PPPE  H12B45919   0.913   2.377   7.885
   95PPPE   C1145920   1.064   2.529   7.841
   95PPPE  H11A45921   1.153   2.462   7.838
   95PPPE  H11B45922   1.057   2.568   7.945
   95PPPE     P45923   1.203   2.678   7.672
   95PPPE   O1345924   1.286   2.558   7.650
   95PPPE   O1445925   1.153   2.742   7.547
   95PPPE   O1145926   1.275   2.786   7.762
   95PPPE   O1245927   1.073   2.640   7.752
   95PPPE    C145928   1.199   2.874   7.845
   95PPPE    HA45929   1.089   2.864   7.833
   95PPPE    HB45930   1.223   2.979   7.818
   95PPPE    C245931   1.227   2.861   7.999
   95PPPE    HS45932   1.321   2.917   8.018
   95PPPE   O2145933   1.243   2.722   8.039
   95PPPE   C2145934   1.289   2.710   8.164
   95PPPE   O2245935   1.326   2.803   8.233
   95PPPE   C2245936   1.278   2.565   8.211
   95PPPE   H2R45937   1.349   2.503   8.152
   95PPPE   H2S45938   1.175   2.530   8.193
   95PPPE    C345939   1.110   2.928   8.078
   95PPPE    HX45940   1.149   2.956   8.179
   95PPPE    HY45941   1.083   3.023   8.027
   95PPPE   O3145942   0.997   2.839   8.081
   95PPPE   C3145943   0.946   2.819   8.203
   95PPPE   O3245944   0.943   2.900   8.293
   95PPPE   C3245945   0.899   2.674   8.212
   95PPPE   H2X45946   0.957   2.613   8.138
   95PPPE   H2Y45947   0.792   2.670   8.184
   95PPPE   C2345948   1.311   2.554   8.363
   95PPPE   H3R45949   1.253   2.632   8.417
   95PPPE   H3S45950   1.419   2.576   8.378
   95PPPE   C2445951   1.276   2.421   8.431
   95PPPE   H4R45952   1.326   2.337   8.379
   95PPPE   H4S45953   1.166   2.405   8.424
   95PPPE   C2545954   1.318   2.420   8.580
   95PPPE   H5R45955   1.313   2.523   8.620
   95PPPE   H5S45956   1.424   2.387   8.587
   95PPPE   C2645957   1.229   2.331   8.668
   95PPPE   H6R45958   1.216   2.233   8.618
   95PPPE   H6S45959   1.129   2.379   8.678
   95PPPE   C2745960   1.283   2.305   8.810
   95PPPE   H7R45961   1.381   2.254   8.803
   95PPPE   H7S45962   1.213   2.234   8.860
   95PPPE   C2845963   1.298   2.430   8.900
   95PPPE   H8R45964   1.204   2.489   8.895
   95PPPE   H8S45965   1.379   2.494   8.859
   95PPPE   C2945966   1.329   2.391   9.043
   95PPPE   H9145967   1.366   2.288   9.055
   95PPPE  C21045968   1.316   2.467   9.153
   95PPPE  H10145969   1.342   2.424   9.251
   95PPPE  C21145970   1.270   2.611   9.159
   95PPPE  H11R45971   1.276   2.658   9.059
   95PPPE  H11S45972   1.337   2.668   9.226
   95PPPE  C21245973   1.125   2.631   9.208
   95PPPE  H12R45974   1.058   2.575   9.138
   95PPPE  H12S45975   1.098   2.738   9.200
   95PPPE  C21345976   1.095   2.584   9.351
   95PPPE  H13R45977   1.139   2.483   9.369
   95PPPE  H13S45978   0.985   2.575   9.361
   95PPPE  C21445979   1.141   2.681   9.461
   95PPPE  H14R45980   1.093   2.780   9.445
   95PPPE  H14S45981   1.251   2.696   9.455
   95PPPE  C21545982   1.105   2.630   9.602
   95PPPE  H15R45983   1.163   2.538   9.622
   95PPPE  H15S45984   0.998   2.601   9.603
   95PPPE  C21645985   1.129   2.732   9.713
   95PPPE  H16R45986   1.235   2.766   9.713
   95PPPE  H16S45987   1.063   2.820   9.701
   95PPPE  H16T45988   1.109   2.686   9.813
   95PPPE   C3345989   0.920   2.613   8.352
   95PPPE   H3X45990   0.876   2.678   8.431
   95PPPE   H3Y45991   1.028   2.606   8.375
   95PPPE   C3445992   0.857   2.473   8.362
   95PPPE   H4X45993   0.909   2.407   8.289
   95PPPE   H4Y45994   0.750   2.477   8.334
   95PPPE   C3545995   0.869   2.410   8.502
   95PPPE   H5X45996   0.806   2.465   8.575
   95PPPE   H5Y45997   0.974   2.419   8.535
   95PPPE   C3645998   0.830   2.262   8.499
   95PPPE   H6X45999   0.881   2.215   8.412
   95PPPE   H6Y46000   0.720   2.252   8.483
   95PPPE   C3746001   0.872   2.181   8.623
   95PPPE   H7X46002   0.979   2.197   8.646
   95PPPE   H7Y46003   0.860   2.074   8.596
   95PPPE   C3846004   0.788   2.204   8.751
   95PPPE   H8X46005   0.778   2.106   8.802
   95PPPE   H8Y46006   0.685   2.238   8.724
   95PPPE   C3946007   0.854   2.300   8.851
   95PPPE   H9X46008   0.855   2.404   8.811
   95PPPE   H9Y46009   0.959   2.269   8.864
   95PPPE  C31046010   0.787   2.298   8.990
   95PPPE  H10X46011   0.773   2.192   9.022
   95PPPE  H10Y46012   0.687   2.346   8.987
   95PPPE  C31146013   0.875   2.367   9.095
   95PPPE  H11X46014   0.883   2.475   9.071
   95PPPE  H11Y46015   0.977   2.324   9.088
   95PPPE  C31246016   0.828   2.350   9.241
   95PPPE  H12X46017   0.919   2.358   9.305
   95PPPE  H12Y46018   0.786   2.248   9.258
   95PPPE  C31346019   0.730   2.458   9.289
   95PPPE  H13X46020   0.628   2.437   9.249
   95PPPE  H13Y46021   0.763   2.556   9.247
   95PPPE  C31446022   0.727   2.472   9.442
   95PPPE  H14X46023   0.831   2.483   9.478
   95PPPE  H14Y46024   0.687   2.379   9.488
   95PPPE  C31546025   0.648   2.594   9.492
   95PPPE  H15X46026   0.543   2.563   9.515
   95PPPE  H15Y46027   0.642   2.669   9.410
   95PPPE  C31646028   0.709   2.661   9.615
   95PPPE  H16X46029   0.805   2.711   9.589
   95PPPE  H16Y46030   0.640   2.738   9.657
   95PPPE  H16Z46031   0.730   2.586   9.694
   96PPPE     N46032   5.560   0.901   7.846
   96PPPE   HN146033   5.487   0.841   7.801
   96PPPE   HN246034   5.567   0.986   7.787
   96PPPE   HN346035   5.649   0.846   7.846
   96PPPE   C1246036   5.510   0.943   7.981
   96PPPE  H12A46037   5.596   0.975   8.043
   96PPPE  H12B46038   5.462   0.854   8.028
   96PPPE   C1146039   5.406   1.056   7.968
   96PPPE  H11A46040   5.458   1.154   7.969
   96PPPE  H11B46041   5.341   1.056   8.058
   96PPPE     P46042   5.347   1.130   7.725
   96PPPE   O1346043   5.493   1.135   7.700
   96PPPE   O1446044   5.266   1.086   7.610
   96PPPE   O1146045   5.296   1.272   7.770
   96PPPE   O1246046   5.325   1.037   7.851
   96PPPE    C146047   5.164   1.278   7.826
   96PPPE    HA46048   5.137   1.186   7.883
   96PPPE    HB46049   5.088   1.290   7.746
   96PPPE    C246050   5.144   1.396   7.927
   96PPPE    HS46051   5.113   1.483   7.865
   96PPPE   O2146052   5.268   1.425   7.996
   96PPPE   C2146053   5.262   1.544   8.058
   96PPPE   O2246054   5.177   1.628   8.037
   96PPPE   C2246055   5.375   1.564   8.158
   96PPPE   H2R46056   5.327   1.566   8.258
   96PPPE   H2S46057   5.419   1.664   8.139
   96PPPE    C346058   5.029   1.362   8.027
   96PPPE    HX46059   5.016   1.445   8.100
   96PPPE    HY46060   4.934   1.360   7.968
   96PPPE   O3146061   5.044   1.234   8.093
   96PPPE   C3146062   5.117   1.233   8.204
   96PPPE   O3246063   5.183   1.326   8.246
   96PPPE   C3246064   5.106   1.097   8.272
   96PPPE   H2X46065   5.158   1.020   8.209
   96PPPE   H2Y46066   4.999   1.071   8.278
   96PPPE   C2346067   5.486   1.456   8.157
   96PPPE   H3R46068   5.532   1.454   8.056
   96PPPE   H3S46069   5.442   1.356   8.177
   96PPPE   C2446070   5.596   1.486   8.261
   96PPPE   H4R46071   5.607   1.595   8.276
   96PPPE   H4S46072   5.691   1.449   8.220
   96PPPE   C2546073   5.576   1.416   8.397
   96PPPE   H5R46074   5.674   1.413   8.448
   96PPPE   H5S46075   5.543   1.311   8.380
   96PPPE   C2646076   5.479   1.481   8.495
   96PPPE   H6R46077   5.376   1.484   8.452
   96PPPE   H6S46078   5.512   1.585   8.516
   96PPPE   C2746079   5.474   1.401   8.627
   96PPPE   H7R46080   5.576   1.390   8.668
   96PPPE   H7S46081   5.437   1.299   8.604
   96PPPE   C2846082   5.381   1.462   8.733
   96PPPE   H8R46083   5.366   1.387   8.813
   96PPPE   H8S46084   5.281   1.481   8.688
   96PPPE   C2946085   5.438   1.589   8.793
   96PPPE   H9146086   5.526   1.631   8.742
   96PPPE  C21046087   5.390   1.650   8.902
   96PPPE  H10146088   5.440   1.741   8.939
   96PPPE  C21146089   5.272   1.605   8.984
   96PPPE  H11R46090   5.198   1.549   8.921
   96PPPE  H11S46091   5.218   1.694   9.023
   96PPPE  C21246092   5.309   1.515   9.104
   96PPPE  H12R46093   5.337   1.413   9.068
   96PPPE  H12S46094   5.218   1.504   9.166
   96PPPE  C21346095   5.422   1.571   9.191
   96PPPE  H13R46096   5.414   1.682   9.190
   96PPPE  H13S46097   5.520   1.544   9.144
   96PPPE  C21446098   5.421   1.525   9.337
   96PPPE  H14R46099   5.515   1.559   9.385
   96PPPE  H14S46100   5.419   1.414   9.342
   96PPPE  C21546101   5.304   1.582   9.420
   96PPPE  H15R46102   5.208   1.545   9.379
   96PPPE  H15S46103   5.304   1.693   9.410
   96PPPE  C21646104   5.312   1.545   9.568
   96PPPE  H16R46105   5.308   1.435   9.581
   96PPPE  H16S46106   5.407   1.582   9.613
   96PPPE  H16T46107   5.227   1.590   9.624
   96PPPE   C3346108   5.165   1.099   8.415
   96PPPE   H3X46109   5.124   1.187   8.470
   96PPPE   H3Y46110   5.275   1.111   8.411
   96PPPE   C3446111   5.128   0.974   8.495
   96PPPE   H4X46112   5.151   0.884   8.434
   96PPPE   H4Y46113   5.019   0.974   8.515
   96PPPE   C3546114   5.205   0.962   8.627
   96PPPE   H5X46115   5.314   0.958   8.604
   96PPPE   H5Y46116   5.177   0.867   8.677
   96PPPE   C3646117   5.184   1.077   8.727
   96PPPE   H6X46118   5.210   1.175   8.681
   96PPPE   H6Y46119   5.256   1.060   8.811
   96PPPE   C3746120   5.042   1.083   8.784
   96PPPE   H7X46121   5.012   0.982   8.818
   96PPPE   H7Y46122   4.972   1.113   8.704
   96PPPE   C3846123   5.028   1.180   8.903
   96PPPE   H8X46124   4.921   1.184   8.933
   96PPPE   H8Y46125   5.057   1.282   8.871
   96PPPE   C3946126   5.111   1.139   9.026
   96PPPE   H9X46127   5.219   1.144   9.000
   96PPPE   H9Y46128   5.087   1.034   9.054
   96PPPE  C31046129   5.087   1.230   9.146
   96PPPE  H10X46130   4.984   1.217   9.184
   96PPPE  H10Y46131   5.097   1.335   9.111
   96PPPE  C31146132   5.188   1.212   9.260
   96PPPE  H11X46133   5.165   1.287   9.338
   96PPPE  H11Y46134   5.290   1.233   9.222
   96PPPE  C31246135   5.184   1.072   9.322
   96PPPE  H12X46136   5.233   0.999   9.255
   96PPPE  H12Y46137   5.078   1.041   9.334
   96PPPE  C31346138   5.250   1.068   9.461
   96PPPE  H13X46139   5.237   0.966   9.505
   96PPPE  H13Y46140   5.199   1.139   9.529
   96PPPE  C31446141   5.399   1.105   9.462
   96PPPE  H14X46142   5.417   1.197   9.404
   96PPPE  H14Y46143   5.456   1.023   9.414
   96PPPE  C31546144   5.448   1.128   9.606
   96PPPE  H15X46145   5.366   1.102   9.676
   96PPPE  H15Y46146   5.469   1.235   9.621
   96PPPE  C31646147   5.570   1.044   9.640
   96PPPE  H16X46148   5.656   1.075   9.577
   96PPPE  H16Y46149   5.597   1.058   9.747
   96PPPE  H16Z46150   5.550   0.936   9.623
   97PPPE     N46151   7.064   2.316   7.589
   97PPPE   HN146152   7.092   2.412   7.561
   97PPPE   HN246153   7.138   2.252   7.554
   97PPPE   HN346154   6.977   2.293   7.537
   97PPPE   C1246155   7.043   2.315   7.738
   97PPPE  H12A46156   7.141   2.336   7.785
   97PPPE  H12B46157   7.007   2.215   7.769
   97PPPE   C1146158   6.943   2.425   7.778
   97PPPE  H11A46159   6.953   2.440   7.888
   97PPPE  H11B46160   6.839   2.391   7.758
   97PPPE     P46161   6.935   2.689   7.756
   97PPPE   O1346162   7.043   2.778   7.707
   97PPPE   O1446163   6.797   2.722   7.712
   97PPPE   O1146164   6.939   2.674   7.913
   97PPPE   O1246165   6.969   2.544   7.703
   97PPPE    C146166   6.822   2.658   7.994
   97PPPE    HA46167   6.840   2.578   8.069
   97PPPE    HB46168   6.733   2.628   7.935
   97PPPE    C246169   6.791   2.789   8.070
   97PPPE    HS46170   6.811   2.871   7.997
   97PPPE   O2146171   6.879   2.797   8.183
   97PPPE   C2146172   6.898   2.922   8.226
   97PPPE   O2246173   6.855   3.021   8.170
   97PPPE   C2246174   6.985   2.924   8.352
   97PPPE   H2R46175   6.958   3.015   8.410
   97PPPE   H2S46176   7.090   2.934   8.318
   97PPPE    C346177   6.640   2.802   8.111
   97PPPE    HX46178   6.623   2.903   8.153
   97PPPE    HY46179   6.581   2.800   8.017
   97PPPE   O3146180   6.589   2.697   8.197
   97PPPE   C3146181   6.601   2.726   8.328
   97PPPE   O3246182   6.668   2.818   8.371
   97PPPE   C3246183   6.518   2.632   8.414
   97PPPE   H2X46184   6.544   2.527   8.389
   97PPPE   H2Y46185   6.411   2.650   8.390
   97PPPE   C2346186   6.976   2.800   8.444
   97PPPE   H3R46187   7.009   2.709   8.389
   97PPPE   H3S46188   6.871   2.784   8.477
   97PPPE   C2446189   7.061   2.816   8.571
   97PPPE   H4R46190   7.029   2.908   8.624
   97PPPE   H4S46191   7.168   2.829   8.544
   97PPPE   C2546192   7.045   2.697   8.666
   97PPPE   H5R46193   7.091   2.607   8.618
   97PPPE   H5S46194   6.938   2.675   8.683
   97PPPE   C2646195   7.113   2.721   8.802
   97PPPE   H6R46196   7.048   2.785   8.865
   97PPPE   H6S46197   7.207   2.777   8.785
   97PPPE   C2746198   7.147   2.591   8.876
   97PPPE   H7R46199   7.201   2.617   8.969
   97PPPE   H7S46200   7.214   2.531   8.811
   97PPPE   C2846201   7.026   2.503   8.909
   97PPPE   H8R46202   6.980   2.469   8.814
   97PPPE   H8S46203   6.951   2.567   8.960
   97PPPE   C2946204   7.065   2.383   8.992
   97PPPE   H9146205   7.135   2.314   8.944
   97PPPE  C21046206   7.023   2.354   9.117
   97PPPE  H10146207   7.056   2.260   9.163
   97PPPE  C21146208   6.928   2.433   9.204
   97PPPE  H11R46209   6.830   2.383   9.213
   97PPPE  H11S46210   6.911   2.535   9.163
   97PPPE  C21246211   6.991   2.447   9.343
   97PPPE  H12R46212   7.092   2.494   9.336
   97PPPE  H12S46213   7.002   2.345   9.384
   97PPPE  C21346214   6.911   2.522   9.450
   97PPPE  H13R46215   6.814   2.470   9.468
   97PPPE  H13S46216   6.887   2.626   9.418
   97PPPE  C21446217   6.992   2.525   9.581
   97PPPE  H14R46218   7.080   2.592   9.568
   97PPPE  H14S46219   7.032   2.423   9.599
   97PPPE  C21546220   6.913   2.564   9.705
   97PPPE  H15R46221   6.978   2.549   9.794
   97PPPE  H15S46222   6.826   2.496   9.716
   97PPPE  C21646223   6.866   2.709   9.704
   97PPPE  H16R46224   6.812   2.734   9.798
   97PPPE  H16S46225   6.955   2.776   9.697
   97PPPE  H16T46226   6.799   2.730   9.617
   97PPPE   C3346227   6.542   2.658   8.564
   97PPPE   H3X46228   6.521   2.764   8.589
   97PPPE   H3Y46229   6.649   2.640   8.588
   97PPPE   C3446230   6.456   2.569   8.656
   97PPPE   H4X46231   6.451   2.466   8.614
   97PPPE   H4Y46232   6.353   2.609   8.658
   97PPPE   C3546233   6.510   2.560   8.799
   97PPPE   H5X46234   6.608   2.506   8.801
   97PPPE   H5Y46235   6.439   2.502   8.861
   97PPPE   C3646236   6.534   2.697   8.865
   97PPPE   H6X46237   6.441   2.756   8.853
   97PPPE   H6Y46238   6.616   2.751   8.813
   97PPPE   C3746239   6.565   2.686   9.015
   97PPPE   H7X46240   6.498   2.610   9.060
   97PPPE   H7Y46241   6.541   2.784   9.060
   97PPPE   C3846242   6.710   2.656   9.054
   97PPPE   H8X46243   6.748   2.569   8.997
   97PPPE   H8Y46244   6.707   2.628   9.162
   97PPPE   C3946245   6.802   2.780   9.041
   97PPPE   H9X46246   6.739   2.867   9.068
   97PPPE   H9Y46247   6.835   2.792   8.936
   97PPPE  C31046248   6.921   2.786   9.138
   97PPPE  H10X46249   7.008   2.729   9.098
   97PPPE  H10Y46250   6.889   2.736   9.233
   97PPPE  C31146251   6.964   2.929   9.174
   97PPPE  H11X46252   6.879   2.977   9.227
   97PPPE  H11Y46253   6.984   2.987   9.082
   97PPPE  C31246254   7.087   2.936   9.267
   97PPPE  H12X46255   7.093   3.040   9.307
   97PPPE  H12Y46256   7.179   2.917   9.209
   97PPPE  C31346257   7.081   2.836   9.384
   97PPPE  H13X46258   7.112   2.736   9.347
   97PPPE  H13Y46259   6.976   2.828   9.419
   97PPPE  C31446260   7.166   2.876   9.504
   97PPPE  H14X46261   7.267   2.911   9.472
   97PPPE  H14Y46262   7.181   2.786   9.569
   97PPPE  C31546263   7.097   2.983   9.589
   97PPPE  H15X46264   6.992   2.952   9.608
   97PPPE  H15Y46265   7.089   3.076   9.528
   97PPPE  C31646266   7.166   3.012   9.722
   97PPPE  H16X46267   7.101   3.074   9.787
   97PPPE  H16Y46268   7.188   2.916   9.774
   97PPPE  H16Z46269   7.261   3.066   9.706
   98PPPE     N46270   7.529   4.167   8.012
   98PPPE   HN146271   7.588   4.247   8.041
   98PPPE   HN246272   7.437   4.204   7.980
   98PPPE   HN346273   7.517   4.101   8.092
   98PPPE   C1246274   7.597   4.102   7.895
   98PPPE  H12A46275   7.705   4.127   7.901
   98PPPE  H12B46276   7.587   3.991   7.904
   98PPPE   C1146277   7.537   4.150   7.760
   98PPPE  H11A46278   7.448   4.086   7.740
   98PPPE  H11B46279   7.611   4.127   7.680
   98PPPE     P46280   7.357   4.336   7.769
   98PPPE   O1346281   7.294   4.314   7.636
   98PPPE   O1446282   7.303   4.264   7.886
   98PPPE   O1146283   7.365   4.491   7.799
   98PPPE   O1246284   7.508   4.290   7.758
   98PPPE    C146285   7.477   4.548   7.868
   98PPPE    HA46286   7.495   4.649   7.826
   98PPPE    HB46287   7.571   4.492   7.855
   98PPPE    C246288   7.453   4.571   8.020
   98PPPE    HS46289   7.535   4.640   8.049
   98PPPE   O2146290   7.459   4.445   8.091
   98PPPE   C2146291   7.498   4.464   8.218
   98PPPE   O2246292   7.560   4.561   8.256
   98PPPE   C2246293   7.452   4.350   8.307
   98PPPE   H2R46294   7.495   4.254   8.271
   98PPPE   H2S46295   7.341   4.345   8.300
   98PPPE    C346296   7.318   4.641   8.052
   98PPPE    HX46297   7.295   4.716   7.973
   98PPPE    HY46298   7.238   4.564   8.047
   98PPPE   O3146299   7.320   4.700   8.185
   98PPPE   C3146300   7.381   4.818   8.191
   98PPPE   O3246301   7.410   4.886   8.094
   98PPPE   C3246302   7.408   4.864   8.334
   98PPPE   H2X46303   7.325   4.931   8.364
   98PPPE   H2Y46304   7.501   4.925   8.328
   98PPPE   C2346305   7.492   4.372   8.455
   98PPPE   H3R46306   7.480   4.478   8.484
   98PPPE   H3S46307   7.599   4.345   8.470
   98PPPE   C2446308   7.404   4.292   8.552
   98PPPE   H4R46309   7.404   4.184   8.525
   98PPPE   H4S46310   7.299   4.328   8.543
   98PPPE   C2546311   7.450   4.307   8.698
   98PPPE   H5R46312   7.478   4.413   8.717
   98PPPE   H5S46313   7.542   4.247   8.712
   98PPPE   C2646314   7.346   4.264   8.802
   98PPPE   H6R46315   7.393   4.272   8.902
   98PPPE   H6S46316   7.319   4.157   8.787
   98PPPE   C2746317   7.217   4.349   8.806
   98PPPE   H7R46318   7.161   4.321   8.897
   98PPPE   H7S46319   7.152   4.324   8.719
   98PPPE   C2846320   7.244   4.501   8.806
   98PPPE   H8R46321   7.277   4.530   8.705
   98PPPE   H8S46322   7.330   4.518   8.875
   98PPPE   C2946323   7.125   4.585   8.846
   98PPPE   H9146324   7.046   4.590   8.770
   98PPPE  C21046325   7.108   4.650   8.962
   98PPPE  H10146326   7.014   4.706   8.978
   98PPPE  C21146327   7.200   4.654   9.081
   98PPPE  H11R46328   7.217   4.758   9.115
   98PPPE  H11S46329   7.300   4.611   9.058
   98PPPE  C21246330   7.140   4.573   9.197
   98PPPE  H12R46331   7.120   4.470   9.161
   98PPPE  H12S46332   7.044   4.618   9.229
   98PPPE  C21346333   7.230   4.561   9.321
   98PPPE  H13R46334   7.232   4.659   9.374
   98PPPE  H13S46335   7.334   4.538   9.289
   98PPPE  C21446336   7.183   4.448   9.414
   98PPPE  H14R46337   7.265   4.374   9.425
   98PPPE  H14S46338   7.097   4.396   9.368
   98PPPE  C21546339   7.141   4.495   9.554
   98PPPE  H15R46340   7.096   4.409   9.608
   98PPPE  H15S46341   7.061   4.571   9.544
   98PPPE  C21646342   7.254   4.555   9.638
   98PPPE  H16R46343   7.223   4.563   9.745
   98PPPE  H16S46344   7.344   4.490   9.633
   98PPPE  H16T46345   7.280   4.656   9.603
   98PPPE   C3346346   7.432   4.756   8.442
   98PPPE   H3X46347   7.533   4.711   8.428
   98PPPE   H3Y46348   7.355   4.675   8.438
   98PPPE   C3446349   7.431   4.820   8.580
   98PPPE   H4X46350   7.326   4.842   8.610
   98PPPE   H4Y46351   7.486   4.917   8.570
   98PPPE   C3546352   7.502   4.745   8.692
   98PPPE   H5X46353   7.609   4.732   8.668
   98PPPE   H5Y46354   7.456   4.645   8.706
   98PPPE   C3646355   7.489   4.825   8.823
   98PPPE   H6X46356   7.382   4.845   8.842
   98PPPE   H6Y46357   7.540   4.923   8.812
   98PPPE   C3746358   7.547   4.751   8.943
   98PPPE   H7X46359   7.656   4.735   8.930
   98PPPE   H7Y46360   7.498   4.652   8.950
   98PPPE   C3846361   7.522   4.826   9.075
   98PPPE   H8X46362   7.416   4.858   9.081
   98PPPE   H8Y46363   7.584   4.919   9.078
   98PPPE   C3946364   7.554   4.737   9.195
   98PPPE   H9X46365   7.659   4.702   9.190
   98PPPE   H9Y46366   7.489   4.647   9.190
   98PPPE  C31046367   7.531   4.807   9.330
   98PPPE  H10X46368   7.427   4.844   9.335
   98PPPE  H10Y46369   7.598   4.895   9.338
   98PPPE  C31146370   7.556   4.712   9.448
   98PPPE  H11X46371   7.581   4.610   9.411
   98PPPE  H11Y46372   7.462   4.703   9.506
   98PPPE  C31246373   7.667   4.759   9.543
   98PPPE  H12X46374   7.652   4.868   9.563
   98PPPE  H12Y46375   7.766   4.747   9.495
   98PPPE  C31346376   7.664   4.686   9.678
   98PPPE  H13X46377   7.561   4.691   9.720
   98PPPE  H13Y46378   7.730   4.739   9.750
   98PPPE  C31446379   7.706   4.539   9.672
   98PPPE  H14X46380   7.814   4.535   9.647
   98PPPE  H14Y46381   7.650   4.485   9.593
   98PPPE  C31546382   7.682   4.470   9.807
   98PPPE  H15X46383   7.720   4.536   9.887
   98PPPE  H15Y46384   7.741   4.376   9.811
   98PPPE  C31646385   7.536   4.432   9.835
   98PPPE  H16X46386   7.496   4.369   9.753
   98PPPE  H16Y46387   7.530   4.375   9.929
   98PPPE  H16Z46388   7.473   4.523   9.845
   99PPPE     N46389   0.686   4.742   7.687
   99PPPE   HN146390   0.690   4.727   7.790
   99PPPE   HN246391   0.596   4.699   7.656
   99PPPE   HN346392   0.767   4.692   7.646
   99PPPE   C1246393   0.701   4.890   7.661
   99PPPE  H12A46394   0.638   4.943   7.735
   99PPPE  H12B46395   0.664   4.912   7.559
   99PPPE   C1146396   0.849   4.935   7.675
   99PPPE  H11A46397   0.854   5.043   7.697
   99PPPE  H11B46398   0.898   4.922   7.576
   99PPPE     P46399   0.902   4.879   7.926
   99PPPE   O1346400   0.991   4.984   7.980
   99PPPE   O1446401   0.757   4.883   7.951
   99PPPE   O1146402   0.963   4.747   7.984
   99PPPE   O1246403   0.924   4.858   7.770
   99PPPE    C146404   0.939   4.617   7.930
   99PPPE    HA46405   1.036   4.576   7.894
   99PPPE    HB46406   0.871   4.617   7.843
   99PPPE    C246407   0.886   4.520   8.040
   99PPPE    HS46408   0.871   4.420   7.994
   99PPPE   O2146409   0.764   4.564   8.102
   99PPPE   C2146410   0.657   4.589   8.031
   99PPPE   O2246411   0.647   4.585   7.909
   99PPPE   C2246412   0.539   4.619   8.126
   99PPPE   H2R46413   0.508   4.522   8.170
   99PPPE   H2S46414   0.455   4.660   8.065
   99PPPE    C346415   0.994   4.504   8.152
   99PPPE    HX46416   0.971   4.414   8.212
   99PPPE    HY46417   1.091   4.484   8.102
   99PPPE   O3146418   1.008   4.624   8.233
   99PPPE   C3146419   0.932   4.620   8.345
   99PPPE   O3246420   0.859   4.529   8.378
   99PPPE   C3246421   0.950   4.749   8.423
   99PPPE   H2X46422   1.058   4.761   8.446
   99PPPE   H2Y46423   0.895   4.737   8.519
   99PPPE   C2346424   0.576   4.718   8.239
   99PPPE   H3R46425   0.595   4.819   8.197
   99PPPE   H3S46426   0.671   4.683   8.286
   99PPPE   C2446427   0.476   4.727   8.355
   99PPPE   H4R46428   0.450   4.625   8.390
   99PPPE   H4S46429   0.383   4.777   8.322
   99PPPE   C2546430   0.538   4.804   8.473
   99PPPE   H5R46431   0.568   4.905   8.438
   99PPPE   H5S46432   0.631   4.752   8.504
   99PPPE   C2646433   0.450   4.820   8.598
   99PPPE   H6R46434   0.421   4.721   8.637
   99PPPE   H6S46435   0.357   4.876   8.571
   99PPPE   C2746436   0.524   4.898   8.708
   99PPPE   H7R46437   0.558   4.995   8.667
   99PPPE   H7S46438   0.615   4.840   8.737
   99PPPE   C2846439   0.439   4.924   8.834
   99PPPE   H8R46440   0.407   4.826   8.876
   99PPPE   H8S46441   0.347   4.977   8.804
   99PPPE   C2946442   0.514   5.006   8.937
   99PPPE   H9146443   0.514   5.115   8.919
   99PPPE  C21046444   0.581   4.959   9.044
   99PPPE  H10146445   0.631   5.030   9.111
   99PPPE  C21146446   0.596   4.815   9.084
   99PPPE  H11R46447   0.565   4.748   9.001
   99PPPE  H11S46448   0.529   4.792   9.169
   99PPPE  C21246449   0.740   4.777   9.122
   99PPPE  H12R46450   0.815   4.820   9.051
   99PPPE  H12S46451   0.748   4.667   9.112
   99PPPE  C21346452   0.778   4.811   9.267
   99PPPE  H13R46453   0.687   4.811   9.330
   99PPPE  H13S46454   0.820   4.914   9.269
   99PPPE  C21446455   0.880   4.713   9.328
   99PPPE  H14R46456   0.968   4.705   9.261
   99PPPE  H14S46457   0.834   4.613   9.336
   99PPPE  C21546458   0.929   4.755   9.468
   99PPPE  H15R46459   0.986   4.849   9.459
   99PPPE  H15S46460   0.999   4.677   9.505
   99PPPE  C21646461   0.819   4.774   9.572
   99PPPE  H16R46462   0.749   4.687   9.574
   99PPPE  H16S46463   0.862   4.784   9.674
   99PPPE  H16T46464   0.760   4.866   9.551
   99PPPE   C3346465   0.896   4.873   8.347
   99PPPE   H3X46466   0.786   4.868   8.336
   99PPPE   H3Y46467   0.939   4.877   8.245
   99PPPE   C3446468   0.932   5.003   8.419
   99PPPE   H4X46469   0.915   5.090   8.351
   99PPPE   H4Y46470   1.040   4.999   8.445
   99PPPE   C3546471   0.856   5.027   8.549
   99PPPE   H5X46472   0.869   4.940   8.617
   99PPPE   H5Y46473   0.747   5.039   8.529
   99PPPE   C3646474   0.909   5.152   8.620
   99PPPE   H6X46475   0.883   5.243   8.561
   99PPPE   H6Y46476   1.019   5.147   8.627
   99PPPE   C3746477   0.853   5.168   8.762
   99PPPE   H7X46478   0.879   5.077   8.822
   99PPPE   H7Y46479   0.743   5.175   8.758
   99PPPE   C3846480   0.910   5.292   8.832
   99PPPE   H8X46481   0.887   5.380   8.768
   99PPPE   H8Y46482   1.020   5.285   8.841
   99PPPE   C3946483   0.848   5.313   8.970
   99PPPE   H9X46484   0.738   5.295   8.964
   99PPPE   H9Y46485   0.860   5.420   8.998
   99PPPE  C31046486   0.908   5.226   9.081
   99PPPE  H10X46487   1.013   5.257   9.100
   99PPPE  H10Y46488   0.909   5.119   9.050
   99PPPE  C31146489   0.824   5.241   9.208
   99PPPE  H11X46490   0.723   5.198   9.186
   99PPPE  H11Y46491   0.810   5.349   9.229
   99PPPE  C31246492   0.879   5.175   9.336
   99PPPE  H12X46493   0.949   5.245   9.385
   99PPPE  H12Y46494   0.937   5.084   9.310
   99PPPE  C31346495   0.766   5.137   9.435
   99PPPE  H13X46496   0.812   5.107   9.531
   99PPPE  H13Y46497   0.710   5.050   9.395
   99PPPE  C31446498   0.664   5.249   9.458
   99PPPE  H14X46499   0.625   5.284   9.360
   99PPPE  H14Y46500   0.715   5.335   9.506
   99PPPE  C31546501   0.540   5.211   9.540
   99PPPE  H15X46502   0.489   5.127   9.488
   99PPPE  H15Y46503   0.471   5.298   9.540
   99PPPE  C31646504   0.568   5.173   9.685
   99PPPE  H16X46505   0.640   5.088   9.690
   99PPPE  H16Y46506   0.611   5.258   9.741
   99PPPE  H16Z46507   0.475   5.144   9.737
  100PPPE     N46508   4.259   0.864   7.819
  100PPPE   HN146509   4.178   0.909   7.772
  100PPPE   HN246510   4.266   0.901   7.916
  100PPPE   HN346511   4.343   0.895   7.767
  100PPPE   C1246512   4.253   0.713   7.812
  100PPPE  H12A46513   4.219   0.688   7.709
  100PPPE  H12B46514   4.179   0.676   7.885
  100PPPE   C1146515   4.392   0.650   7.833
  100PPPE  H11A46516   4.389   0.544   7.801
  100PPPE  H11B46517   4.418   0.650   7.941
  100PPPE     P46518   4.640   0.731   7.780
  100PPPE   O1346519   4.699   0.599   7.748
  100PPPE   O1446520   4.680   0.846   7.695
  100PPPE   O1146521   4.653   0.768   7.934
  100PPPE   O1246522   4.485   0.722   7.755
  100PPPE    C146523   4.574   0.870   7.997
  100PPPE    HA46524   4.467   0.841   8.000
  100PPPE    HB46525   4.582   0.966   7.941
  100PPPE    C246526   4.612   0.900   8.146
  100PPPE    HS46527   4.702   0.966   8.139
  100PPPE   O2146528   4.646   0.776   8.214
  100PPPE   C2146529   4.737   0.789   8.312
  100PPPE   O2246530   4.794   0.893   8.339
  100PPPE   C2246531   4.763   0.655   8.385
  100PPPE   H2R46532   4.872   0.635   8.378
  100PPPE   H2S46533   4.709   0.573   8.333
  100PPPE    C346534   4.499   0.985   8.221
  100PPPE    HX46535   4.548   1.023   8.313
  100PPPE    HY46536   4.477   1.074   8.159
  100PPPE   O3146537   4.375   0.920   8.262
  100PPPE   C3146538   4.265   0.923   8.186
  100PPPE   O3246539   4.264   0.963   8.071
  100PPPE   C3246540   4.140   0.856   8.252
  100PPPE   H2X46541   4.156   0.746   8.255
  100PPPE   H2Y46542   4.057   0.873   8.181
  100PPPE   C2346543   4.723   0.658   8.536
  100PPPE   H3R46544   4.615   0.638   8.547
  100PPPE   H3S46545   4.744   0.759   8.578
  100PPPE   C2446546   4.790   0.555   8.628
  100PPPE   H4R46547   4.900   0.570   8.625
  100PPPE   H4S46548   4.769   0.453   8.591
  100PPPE   C2546549   4.744   0.566   8.776
  100PPPE   H5R46550   4.665   0.643   8.786
  100PPPE   H5S46551   4.831   0.603   8.835
  100PPPE   C2646552   4.694   0.435   8.841
  100PPPE   H6R46553   4.734   0.348   8.785
  100PPPE   H6S46554   4.583   0.430   8.833
  100PPPE   C2746555   4.737   0.420   8.989
  100PPPE   H7R46556   4.847   0.429   8.995
  100PPPE   H7S46557   4.709   0.319   9.025
  100PPPE   C2846558   4.672   0.525   9.083
  100PPPE   H8R46559   4.565   0.495   9.090
  100PPPE   H8S46560   4.676   0.623   9.031
  100PPPE   C2946561   4.732   0.542   9.221
  100PPPE   H9146562   4.842   0.541   9.222
  100PPPE  C21046563   4.668   0.559   9.339
  100PPPE  H10146564   4.728   0.569   9.430
  100PPPE  C21146565   4.519   0.565   9.363
  100PPPE  H11R46566   4.465   0.548   9.267
  100PPPE  H11S46567   4.488   0.665   9.400
  100PPPE  C21246568   4.461   0.457   9.457
  100PPPE  H12R46569   4.519   0.364   9.444
  100PPPE  H12S46570   4.356   0.436   9.428
  100PPPE  C21346571   4.461   0.489   9.606
  100PPPE  H13R46572   4.556   0.541   9.634
  100PPPE  H13S46573   4.459   0.394   9.663
  100PPPE  C21446574   4.339   0.571   9.648
  100PPPE  H14R46575   4.246   0.514   9.624
  100PPPE  H14S46576   4.336   0.665   9.590
  100PPPE  C21546577   4.341   0.601   9.798
  100PPPE  H15R46578   4.440   0.643   9.825
  100PPPE  H15S46579   4.330   0.505   9.853
  100PPPE  C21646580   4.233   0.698   9.844
  100PPPE  H16R46581   4.231   0.789   9.780
  100PPPE  H16S46582   4.133   0.649   9.841
  100PPPE  H16T46583   4.253   0.730   9.949
  100PPPE   C3346584   4.089   0.905   8.393
  100PPPE   H3X46585   4.024   0.993   8.373
  100PPPE   H3Y46586   4.172   0.946   8.454
  100PPPE   C3446587   4.008   0.803   8.481
  100PPPE   H4X46588   3.946   0.738   8.416
  100PPPE   H4Y46589   3.941   0.866   8.544
  100PPPE   C3546590   4.089   0.719   8.583
  100PPPE   H5X46591   4.146   0.797   8.636
  100PPPE   H5Y46592   4.155   0.654   8.520
  100PPPE   C3646593   4.037   0.626   8.696
  100PPPE   H6X46594   3.971   0.552   8.647
  100PPPE   H6Y46595   3.974   0.680   8.770
  100PPPE   C3746596   4.149   0.543   8.770
  100PPPE   H7X46597   4.237   0.526   8.703
  100PPPE   H7Y46598   4.103   0.443   8.780
  100PPPE   C3846599   4.198   0.575   8.916
  100PPPE   H8X46600   4.202   0.477   8.968
  100PPPE   H8Y46601   4.117   0.628   8.972
  100PPPE   C3946602   4.341   0.635   8.943
  100PPPE   H9X46603   4.381   0.698   8.861
  100PPPE   H9Y46604   4.407   0.545   8.938
  100PPPE  C31046605   4.372   0.699   9.083
  100PPPE  H10X46606   4.480   0.687   9.102
  100PPPE  H10Y46607   4.318   0.637   9.158
  100PPPE  C31146608   4.350   0.850   9.118
  100PPPE  H11X46609   4.254   0.885   9.075
  100PPPE  H11Y46610   4.431   0.913   9.075
  100PPPE  C31246611   4.343   0.878   9.271
  100PPPE  H12X46612   4.447   0.883   9.311
  100PPPE  H12Y46613   4.296   0.790   9.320
  100PPPE  C31346614   4.263   1.004   9.316
  100PPPE  H13X46615   4.166   1.007   9.261
  100PPPE  H13Y46616   4.316   1.097   9.289
  100PPPE  C31446617   4.226   1.005   9.467
  100PPPE  H14X46618   4.301   1.063   9.526
  100PPPE  H14Y46619   4.225   0.901   9.506
  100PPPE  C31546620   4.094   1.073   9.504
  100PPPE  H15X46621   4.008   1.023   9.453
  100PPPE  H15Y46622   4.096   1.177   9.467
  100PPPE  C31646623   4.072   1.073   9.656
  100PPPE  H16X46624   4.151   1.132   9.707
  100PPPE  H16Y46625   3.974   1.117   9.683
  100PPPE  H16Z46626   4.077   0.970   9.697
  101PPPE     N46627   0.712   3.825   7.641
  101PPPE   HN146628   0.685   3.724   7.641
  101PPPE   HN246629   0.627   3.881   7.661
  101PPPE   HN346630   0.751   3.854   7.548
  101PPPE   C1246631   0.803   3.858   7.755
  101PPPE  H12A46632   0.871   3.939   7.721
  101PPPE  H12B46633   0.862   3.768   7.781
  101PPPE   C1146634   0.714   3.906   7.870
  101PPPE  H11A46635   0.775   3.955   7.949
  101PPPE  H11B46636   0.667   3.818   7.918
  101PPPE     P46637   0.631   4.147   7.807
  101PPPE   O1346638   0.742   4.165   7.711
  101PPPE   O1446639   0.502   4.206   7.766
  101PPPE   O1146640   0.671   4.188   7.955
  101PPPE   O1246641   0.609   3.991   7.820
  101PPPE    C146642   0.578   4.154   8.059
  101PPPE    HA46643   0.547   4.048   8.055
  101PPPE    HB46644   0.486   4.217   8.049
  101PPPE    C246645   0.633   4.177   8.204
  101PPPE    HS46646   0.674   4.279   8.213
  101PPPE   O2146647   0.730   4.076   8.240
  101PPPE   C2146648   0.856   4.108   8.222
  101PPPE   O2246649   0.900   4.194   8.148
  101PPPE   C2246650   0.943   4.019   8.311
  101PPPE   H2R46651   1.048   4.034   8.278
  101PPPE   H2S46652   0.914   3.913   8.291
  101PPPE    C346653   0.515   4.163   8.304
  101PPPE    HX46654   0.439   4.241   8.280
  101PPPE    HY46655   0.470   4.063   8.283
  101PPPE   O3146656   0.556   4.173   8.442
  101PPPE   C3146657   0.455   4.139   8.524
  101PPPE   O3246658   0.344   4.107   8.486
  101PPPE   C3246659   0.496   4.143   8.671
  101PPPE   H2X46660   0.543   4.046   8.697
  101PPPE   H2Y46661   0.402   4.152   8.729
  101PPPE   C2346662   0.930   4.050   8.462
  101PPPE   H3R46663   0.864   4.138   8.480
  101PPPE   H3S46664   1.030   4.076   8.504
  101PPPE   C2446665   0.874   3.930   8.540
  101PPPE   H4R46666   0.946   3.845   8.533
  101PPPE   H4S46667   0.779   3.898   8.491
  101PPPE   C2546668   0.843   3.957   8.688
  101PPPE   H5R46669   0.802   3.862   8.731
  101PPPE   H5S46670   0.764   4.034   8.697
  101PPPE   C2646671   0.963   4.000   8.774
  101PPPE   H6R46672   0.978   4.110   8.766
  101PPPE   H6S46673   1.055   3.951   8.736
  101PPPE   C2746674   0.946   3.961   8.922
  101PPPE   H7R46675   1.040   3.985   8.977
  101PPPE   H7S46676   0.930   3.851   8.928
  101PPPE   C2846677   0.827   4.027   8.993
  101PPPE   H8R46678   0.734   4.001   8.938
  101PPPE   H8S46679   0.840   4.137   8.986
  101PPPE   C2946680   0.813   3.983   9.137
  101PPPE   H9146681   0.739   3.903   9.156
  101PPPE  C21046682   0.884   4.032   9.240
  101PPPE  H10146683   0.866   3.993   9.341
  101PPPE  C21146684   0.988   4.140   9.228
  101PPPE  H11R46685   0.951   4.223   9.164
  101PPPE  H11S46686   1.079   4.099   9.179
  101PPPE  C21246687   1.031   4.201   9.362
  101PPPE  H12R46688   1.105   4.282   9.340
  101PPPE  H12S46689   1.084   4.125   9.424
  101PPPE  C21346690   0.917   4.262   9.445
  101PPPE  H13R46691   0.858   4.180   9.492
  101PPPE  H13S46692   0.850   4.319   9.378
  101PPPE  C21446693   0.970   4.356   9.555
  101PPPE  H14R46694   1.029   4.436   9.506
  101PPPE  H14S46695   1.038   4.300   9.623
  101PPPE  C21546696   0.858   4.422   9.638
  101PPPE  H15R46697   0.781   4.463   9.569
  101PPPE  H15S46698   0.903   4.507   9.694
  101PPPE  C21646699   0.792   4.328   9.739
  101PPPE  H16R46700   0.737   4.247   9.688
  101PPPE  H16S46701   0.868   4.283   9.806
  101PPPE  H16T46702   0.719   4.385   9.802
  101PPPE   C3346703   0.589   4.261   8.708
  101PPPE   H3X46704   0.552   4.356   8.665
  101PPPE   H3Y46705   0.691   4.243   8.668
  101PPPE   C3446706   0.595   4.277   8.860
  101PPPE   H4X46707   0.620   4.179   8.907
  101PPPE   H4Y46708   0.495   4.306   8.897
  101PPPE   C3546709   0.697   4.381   8.908
  101PPPE   H5X46710   0.673   4.480   8.863
  101PPPE   H5Y46711   0.799   4.352   8.873
  101PPPE   C3646712   0.700   4.395   9.061
  101PPPE   H6X46713   0.782   4.465   9.089
  101PPPE   H6Y46714   0.723   4.298   9.108
  101PPPE   C3746715   0.566   4.446   9.118
  101PPPE   H7X46716   0.492   4.364   9.108
  101PPPE   H7Y46717   0.529   4.532   9.059
  101PPPE   C3846718   0.577   4.487   9.265
  101PPPE   H8X46719   0.623   4.588   9.273
  101PPPE   H8Y46720   0.645   4.417   9.318
  101PPPE   C3946721   0.442   4.491   9.338
  101PPPE   H9X46722   0.376   4.568   9.292
  101PPPE   H9Y46723   0.460   4.523   9.443
  101PPPE  C31046724   0.370   4.356   9.342
  101PPPE  H10X46725   0.323   4.334   9.244
  101PPPE  H10Y46726   0.289   4.361   9.417
  101PPPE  C31146727   0.464   4.241   9.379
  101PPPE  H11X46728   0.535   4.277   9.457
  101PPPE  H11Y46729   0.525   4.210   9.291
  101PPPE  C31246730   0.387   4.122   9.435
  101PPPE  H12X46731   0.317   4.084   9.358
  101PPPE  H12Y46732   0.327   4.156   9.522
  101PPPE  C31346733   0.479   4.009   9.481
  101PPPE  H13X46734   0.528   3.961   9.394
  101PPPE  H13Y46735   0.411   3.936   9.531
  101PPPE  C31446736   0.584   4.047   9.585
  101PPPE  H14X46737   0.537   4.111   9.662
  101PPPE  H14Y46738   0.665   4.106   9.536
  101PPPE  C31546739   0.645   3.925   9.654
  101PPPE  H15X46740   0.698   3.863   9.579
  101PPPE  H15Y46741   0.562   3.863   9.696
  101PPPE  C31646742   0.741   3.961   9.768
  101PPPE  H16X46743   0.689   4.025   9.843
  101PPPE  H16Y46744   0.776   3.870   9.820
  101PPPE  H16Z46745   0.829   4.016   9.729
  102PPPE     N46746   5.961   1.401   7.809
  102PPPE   HN146747   5.889   1.359   7.871
  102PPPE   HN246748   6.049   1.400   7.865
  102PPPE   HN346749   5.939   1.499   7.783
  102PPPE   C1246750   5.991   1.315   7.691
  102PPPE  H12A46751   5.910   1.328   7.615
  102PPPE  H12B46752   5.992   1.210   7.725
  102PPPE   C1146753   6.129   1.355   7.634
  102PPPE  H11A46754   6.116   1.447   7.573
  102PPPE  H11B46755   6.164   1.275   7.566
  102PPPE     P46756   6.274   1.270   7.837
  102PPPE   O1346757   6.218   1.141   7.791
  102PPPE   O1446758   6.419   1.278   7.858
  102PPPE   O1146759   6.190   1.327   7.961
  102PPPE   O1246760   6.228   1.382   7.734
  102PPPE    C146761   6.245   1.442   8.029
  102PPPE    HA46762   6.242   1.530   7.961
  102PPPE    HB46763   6.351   1.426   8.058
  102PPPE    C246764   6.170   1.484   8.160
  102PPPE    HS46765   6.186   1.593   8.169
  102PPPE   O2146766   6.233   1.418   8.272
  102PPPE   C2146767   6.193   1.466   8.390
  102PPPE   O2246768   6.123   1.565   8.403
  102PPPE   C2246769   6.250   1.381   8.504
  102PPPE   H2R46770   6.354   1.415   8.524
  102PPPE   H2S46771   6.253   1.276   8.469
  102PPPE    C346772   6.016   1.459   8.157
  102PPPE    HX46773   5.967   1.529   8.229
  102PPPE    HY46774   5.978   1.487   8.057
  102PPPE   O3146775   5.983   1.324   8.197
  102PPPE   C3146776   5.897   1.256   8.125
  102PPPE   O3246777   5.847   1.292   8.020
  102PPPE   C3246778   5.862   1.127   8.198
  102PPPE   H2X46779   5.951   1.095   8.258
  102PPPE   H2Y46780   5.840   1.049   8.122
  102PPPE   C2346781   6.165   1.391   8.633
  102PPPE   H3R46782   6.192   1.307   8.700
  102PPPE   H3S46783   6.057   1.379   8.608
  102PPPE   C2446784   6.185   1.522   8.711
  102PPPE   H4R46785   6.190   1.606   8.638
  102PPPE   H4S46786   6.282   1.519   8.766
  102PPPE   C2546787   6.071   1.556   8.807
  102PPPE   H5R46788   5.977   1.561   8.748
  102PPPE   H5S46789   6.088   1.656   8.851
  102PPPE   C2646790   6.051   1.454   8.920
  102PPPE   H6R46791   6.137   1.458   8.991
  102PPPE   H6S46792   6.050   1.352   8.876
  102PPPE   C2746793   5.919   1.475   8.996
  102PPPE   H7R46794   5.891   1.383   9.051
  102PPPE   H7S46795   5.839   1.493   8.921
  102PPPE   C2846796   5.922   1.592   9.095
  102PPPE   H8R46797   5.817   1.618   9.118
  102PPPE   H8S46798   5.967   1.681   9.046
  102PPPE   C2946799   5.998   1.560   9.221
  102PPPE   H9146800   6.108   1.564   9.212
  102PPPE  C21046801   5.944   1.529   9.340
  102PPPE  H10146802   6.011   1.511   9.426
  102PPPE  C21146803   5.797   1.518   9.371
  102PPPE  H11R46804   5.738   1.497   9.280
  102PPPE  H11S46805   5.760   1.616   9.410
  102PPPE  C21246806   5.761   1.408   9.474
  102PPPE  H12R46807   5.782   1.309   9.428
  102PPPE  H12S46808   5.652   1.412   9.494
  102PPPE  C21346809   5.835   1.416   9.609
  102PPPE  H13R46810   5.943   1.399   9.593
  102PPPE  H13S46811   5.799   1.331   9.672
  102PPPE  C21446812   5.816   1.548   9.686
  102PPPE  H14R46813   5.772   1.625   9.619
  102PPPE  H14S46814   5.915   1.586   9.718
  102PPPE  C21546815   5.727   1.536   9.810
  102PPPE  H15R46816   5.630   1.491   9.781
  102PPPE  H15S46817   5.707   1.638   9.848
  102PPPE  C21646818   5.790   1.454   9.924
  102PPPE  H16R46819   5.727   1.458  10.015
  102PPPE  H16S46820   5.802   1.348   9.894
  102PPPE  H16T46821   5.890   1.494   9.949
  102PPPE   C3346822   5.740   1.149   8.289
  102PPPE   H3X46823   5.650   1.164   8.226
  102PPPE   H3Y46824   5.757   1.242   8.347
  102PPPE   C3446825   5.713   1.036   8.390
  102PPPE   H4X46826   5.713   0.938   8.337
  102PPPE   H4Y46827   5.611   1.051   8.432
  102PPPE   C3546828   5.812   1.032   8.508
  102PPPE   H5X46829   5.916   1.020   8.471
  102PPPE   H5Y46830   5.787   0.941   8.567
  102PPPE   C3646831   5.806   1.155   8.600
  102PPPE   H6X46832   5.702   1.170   8.636
  102PPPE   H6Y46833   5.836   1.246   8.543
  102PPPE   C3746834   5.900   1.145   8.722
  102PPPE   H7X46835   5.900   1.243   8.775
  102PPPE   H7Y46836   6.004   1.125   8.686
  102PPPE   C3846837   5.859   1.037   8.821
  102PPPE   H8X46838   5.846   0.941   8.767
  102PPPE   H8Y46839   5.760   1.062   8.866
  102PPPE   C3946840   5.961   1.010   8.932
  102PPPE   H9X46841   6.064   1.006   8.891
  102PPPE   H9Y46842   5.938   0.909   8.973
  102PPPE  C31046843   5.955   1.105   9.052
  102PPPE  H10X46844   5.849   1.125   9.079
  102PPPE  H10Y46845   6.002   1.201   9.024
  102PPPE  C31146846   6.027   1.047   9.175
  102PPPE  H11X46847   6.128   1.015   9.144
  102PPPE  H11Y46848   5.972   0.958   9.211
  102PPPE  C31246849   6.040   1.149   9.289
  102PPPE  H12X46850   5.939   1.178   9.326
  102PPPE  H12Y46851   6.088   1.241   9.248
  102PPPE  C31346852   6.126   1.096   9.405
  102PPPE  H13X46853   6.159   1.183   9.466
  102PPPE  H13Y46854   6.217   1.049   9.363
  102PPPE  C31446855   6.054   0.997   9.497
  102PPPE  H14X46856   6.130   0.947   9.561
  102PPPE  H14Y46857   6.004   0.917   9.438
  102PPPE  C31546858   5.952   1.065   9.589
  102PPPE  H15X46859   5.867   1.101   9.528
  102PPPE  H15Y46860   5.999   1.154   9.635
  102PPPE  C31646861   5.902   0.974   9.701
  102PPPE  H16X46862   5.986   0.937   9.763
  102PPPE  H16Y46863   5.833   1.031   9.768
  102PPPE  H16Z46864   5.846   0.887   9.660
  103PPPE     N46865   0.988   5.641   8.015
  103PPPE   HN146866   0.894   5.668   7.978
  103PPPE   HN246867   0.978   5.595   8.108
  103PPPE   HN346868   1.036   5.732   8.025
  103PPPE   C1246869   1.056   5.554   7.912
  103PPPE  H12A46870   0.989   5.468   7.890
  103PPPE  H12B46871   1.151   5.516   7.955
  103PPPE   C1146872   1.085   5.632   7.781
  103PPPE  H11A46873   1.124   5.559   7.707
  103PPPE  H11B46874   1.167   5.704   7.799
  103PPPE     P46875   0.949   5.851   7.732
  103PPPE   O1346876   1.067   5.915   7.672
  103PPPE   O1446877   0.815   5.886   7.681
  103PPPE   O1146878   0.953   5.871   7.888
  103PPPE   O1246879   0.966   5.693   7.728
  103PPPE    C146880   0.965   6.000   7.948
  103PPPE    HA46881   0.880   6.014   8.019
  103PPPE    HB46882   0.960   6.084   7.876
  103PPPE    C246883   1.097   6.013   8.029
  103PPPE    HS46884   1.180   6.011   7.955
  103PPPE   O2146885   1.107   5.899   8.118
  103PPPE   C2146886   1.230   5.885   8.171
  103PPPE   O2246887   1.326   5.951   8.139
  103PPPE   C2246888   1.232   5.759   8.258
  103PPPE   H2R46889   1.339   5.730   8.270
  103PPPE   H2S46890   1.181   5.678   8.202
  103PPPE    C346891   1.103   6.151   8.103
  103PPPE    HX46892   1.195   6.161   8.164
  103PPPE    HY46893   1.111   6.229   8.024
  103PPPE   O3146894   0.982   6.177   8.176
  103PPPE   C3146895   0.984   6.140   8.304
  103PPPE   O3246896   1.081   6.094   8.362
  103PPPE   C3246897   0.845   6.159   8.363
  103PPPE   H2X46898   0.778   6.080   8.322
  103PPPE   H2Y46899   0.807   6.258   8.328
  103PPPE   C2346900   1.168   5.775   8.397
  103PPPE   H3R46901   1.074   5.834   8.393
  103PPPE   H3S46902   1.238   5.832   8.461
  103PPPE   C2446903   1.137   5.638   8.461
  103PPPE   H4R46904   1.202   5.561   8.415
  103PPPE   H4S46905   1.031   5.611   8.439
  103PPPE   C2546906   1.159   5.628   8.613
  103PPPE   H5R46907   1.268   5.620   8.633
  103PPPE   H5S46908   1.114   5.534   8.650
  103PPPE   C2646909   1.106   5.746   8.695
  103PPPE   H6R46910   0.996   5.754   8.682
  103PPPE   H6S46911   1.152   5.841   8.660
  103PPPE   C2746912   1.140   5.729   8.844
  103PPPE   H7R46913   1.243   5.688   8.850
  103PPPE   H7S46914   1.073   5.652   8.888
  103PPPE   C2846915   1.133   5.859   8.925
  103PPPE   H8R46916   1.027   5.892   8.933
  103PPPE   H8S46917   1.187   5.940   8.869
  103PPPE   C2946918   1.196   5.842   9.060
  103PPPE   H9146919   1.302   5.869   9.067
  103PPPE  C21046920   1.136   5.791   9.169
  103PPPE  H10146921   1.193   5.781   9.262
  103PPPE  C21146922   0.994   5.741   9.177
  103PPPE  H11R46923   0.931   5.781   9.096
  103PPPE  H11S46924   0.948   5.774   9.273
  103PPPE  C21246925   0.989   5.587   9.169
  103PPPE  H12R46926   1.024   5.554   9.069
  103PPPE  H12S46927   0.883   5.555   9.180
  103PPPE  C21346928   1.074   5.513   9.274
  103PPPE  H13R46929   1.180   5.544   9.262
  103PPPE  H13S46930   1.070   5.403   9.255
  103PPPE  C21446931   1.027   5.539   9.417
  103PPPE  H14R46932   0.924   5.500   9.431
  103PPPE  H14S46933   1.023   5.649   9.432
  103PPPE  C21546934   1.117   5.480   9.525
  103PPPE  H15R46935   1.103   5.370   9.530
  103PPPE  H15S46936   1.084   5.519   9.624
  103PPPE  C21646937   1.265   5.513   9.510
  103PPPE  H16R46938   1.321   5.487   9.603
  103PPPE  H16S46939   1.311   5.458   9.425
  103PPPE  H16T46940   1.277   5.622   9.491
  103PPPE   C3346941   0.843   6.156   8.517
  103PPPE   H3X46942   0.747   6.199   8.552
  103PPPE   H3Y46943   0.924   6.221   8.557
  103PPPE   C3446944   0.857   6.016   8.576
  103PPPE   H4X46945   0.946   5.965   8.534
  103PPPE   H4Y46946   0.767   5.955   8.549
  103PPPE   C3546947   0.873   6.019   8.728
  103PPPE   H5X46948   0.967   6.072   8.755
  103PPPE   H5Y46949   0.882   5.914   8.765
  103PPPE   C3646950   0.755   6.083   8.802
  103PPPE   H6X46951   0.662   6.033   8.769
  103PPPE   H6Y46952   0.746   6.192   8.778
  103PPPE   C3746953   0.765   6.065   8.954
  103PPPE   H7X46954   0.785   5.958   8.976
  103PPPE   H7Y46955   0.666   6.090   8.999
  103PPPE   C3846956   0.871   6.153   9.021
  103PPPE   H8X46957   0.834   6.258   9.024
  103PPPE   H8Y46958   0.967   6.151   8.965
  103PPPE   C3946959   0.897   6.103   9.163
  103PPPE   H9X46960   0.973   6.022   9.162
  103PPPE   H9Y46961   0.803   6.058   9.202
  103PPPE  C31046962   0.937   6.211   9.264
  103PPPE  H10X46963   0.861   6.292   9.264
  103PPPE  H10Y46964   1.035   6.255   9.236
  103PPPE  C31146965   0.945   6.149   9.404
  103PPPE  H11X46966   1.030   6.078   9.403
  103PPPE  H11Y46967   0.853   6.092   9.427
  103PPPE  C31246968   0.966   6.252   9.514
  103PPPE  H12X46969   0.867   6.293   9.543
  103PPPE  H12Y46970   1.026   6.337   9.474
  103PPPE  C31346971   1.036   6.194   9.638
  103PPPE  H13X46972   1.141   6.233   9.642
  103PPPE  H13Y46973   1.043   6.084   9.629
  103PPPE  C31446974   0.967   6.223   9.772
  103PPPE  H14X46975   0.932   6.329   9.773
  103PPPE  H14Y46976   1.041   6.213   9.854
  103PPPE  C31546977   0.850   6.128   9.801
  103PPPE  H15X46978   0.820   6.077   9.707
  103PPPE  H15Y46979   0.762   6.186   9.836
  103PPPE  C31646980   0.884   6.023   9.908
  103PPPE  H16X46981   0.895   6.072  10.007
  103PPPE  H16Y46982   0.805   5.946   9.915
  103PPPE  H16Z46983   0.981   5.973   9.885
  104PPPE     N46984   3.616   0.609   7.925
  104PPPE   HN146985   3.515   0.629   7.916
  104PPPE   HN246986   3.638   0.510   7.901
  104PPPE   HN346987   3.645   0.623   8.024
  104PPPE   C1246988   3.694   0.699   7.833
  104PPPE  H12A46989   3.692   0.802   7.876
  104PPPE  H12B46990   3.641   0.698   7.736
  104PPPE   C1146991   3.838   0.650   7.812
  104PPPE  H11A46992   3.890   0.643   7.909
  104PPPE  H11B46993   3.891   0.726   7.750
  104PPPE     P46994   3.953   0.421   7.753
  104PPPE   O1346995   3.919   0.304   7.670
  104PPPE   O1446996   4.081   0.489   7.723
  104PPPE   O1146997   3.946   0.386   7.906
  104PPPE   O1246998   3.836   0.527   7.741
  104PPPE    C146999   4.061   0.378   7.989
  104PPPE    HA47000   4.120   0.472   7.988
  104PPPE    HB47001   4.126   0.294   7.955
  104PPPE    C247002   4.021   0.347   8.137
  104PPPE    HS47003   3.952   0.260   8.136
  104PPPE   O2147004   3.958   0.461   8.198
  104PPPE   C2147005   3.829   0.479   8.177
  104PPPE   O2247006   3.757   0.419   8.100
  104PPPE   C2247007   3.781   0.597   8.258
  104PPPE   H2R47008   3.681   0.629   8.220
  104PPPE   H2S47009   3.853   0.681   8.243
  104PPPE    C347010   4.145   0.306   8.224
  104PPPE    HX47011   4.105   0.266   8.319
  104PPPE    HY47012   4.192   0.219   8.173
  104PPPE   O3147013   4.248   0.409   8.241
  104PPPE   C3147014   4.260   0.455   8.368
  104PPPE   O3247015   4.179   0.433   8.456
  104PPPE   C3247016   4.399   0.520   8.393
  104PPPE   H2X47017   4.464   0.489   8.308
  104PPPE   H2Y47018   4.441   0.478   8.487
  104PPPE   C2347019   3.767   0.562   8.408
  104PPPE   H3R47020   3.746   0.657   8.462
  104PPPE   H3S47021   3.861   0.521   8.450
  104PPPE   C2447022   3.651   0.467   8.438
  104PPPE   H4R47023   3.687   0.362   8.442
  104PPPE   H4S47024   3.576   0.473   8.356
  104PPPE   C2547025   3.579   0.503   8.568
  104PPPE   H5R47026   3.488   0.439   8.579
  104PPPE   H5S47027   3.545   0.608   8.561
  104PPPE   C2647028   3.663   0.491   8.696
  104PPPE   H6R47029   3.599   0.525   8.780
  104PPPE   H6S47030   3.750   0.559   8.692
  104PPPE   C2747031   3.707   0.347   8.726
  104PPPE   H7R47032   3.798   0.322   8.667
  104PPPE   H7S47033   3.626   0.278   8.695
  104PPPE   C2847034   3.732   0.324   8.876
  104PPPE   H8R47035   3.747   0.215   8.891
  104PPPE   H8S47036   3.640   0.352   8.932
  104PPPE   C2947037   3.849   0.402   8.928
  104PPPE   H9147038   3.871   0.496   8.876
  104PPPE  C21047039   3.925   0.368   9.033
  104PPPE  H10147040   4.010   0.433   9.061
  104PPPE  C21147041   3.908   0.247   9.121
  104PPPE  H11R47042   3.994   0.179   9.109
  104PPPE  H11S47043   3.817   0.188   9.096
  104PPPE  C21247044   3.900   0.285   9.270
  104PPPE  H12R47045   3.987   0.346   9.301
  104PPPE  H12S47046   3.909   0.190   9.328
  104PPPE  C21347047   3.769   0.355   9.310
  104PPPE  H13R47048   3.682   0.310   9.257
  104PPPE  H13S47049   3.774   0.462   9.278
  104PPPE  C21447050   3.745   0.347   9.461
  104PPPE  H14R47051   3.843   0.352   9.513
  104PPPE  H14S47052   3.700   0.249   9.486
  104PPPE  C21547053   3.655   0.456   9.521
  104PPPE  H15R47054   3.550   0.439   9.489
  104PPPE  H15S47055   3.685   0.556   9.482
  104PPPE  C21647056   3.664   0.458   9.674
  104PPPE  H16R47057   3.769   0.472   9.706
  104PPPE  H16S47058   3.604   0.541   9.716
  104PPPE  H16T47059   3.628   0.362   9.716
  104PPPE   C3347060   4.408   0.674   8.404
  104PPPE   H3X47061   4.338   0.711   8.326
  104PPPE   H3Y47062   4.509   0.706   8.373
  104PPPE   C3447063   4.382   0.743   8.540
  104PPPE   H4X47064   4.353   0.671   8.620
  104PPPE   H4Y47065   4.295   0.805   8.510
  104PPPE   C3547066   4.465   0.859   8.600
  104PPPE   H5X47067   4.523   0.908   8.518
  104PPPE   H5Y47068   4.537   0.819   8.675
  104PPPE   C3647069   4.378   0.970   8.669
  104PPPE   H6X47070   4.306   1.010   8.595
  104PPPE   H6Y47071   4.446   1.053   8.700
  104PPPE   C3747072   4.299   0.928   8.795
  104PPPE   H7X47073   4.371   0.926   8.880
  104PPPE   H7Y47074   4.267   0.823   8.777
  104PPPE   C3847075   4.168   1.001   8.840
  104PPPE   H8X47076   4.118   1.047   8.752
  104PPPE   H8Y47077   4.193   1.081   8.913
  104PPPE   C3947078   4.064   0.902   8.902
  104PPPE   H9X47079   4.123   0.810   8.921
  104PPPE   H9Y47080   3.986   0.878   8.827
  104PPPE  C31047081   3.994   0.932   9.038
  104PPPE  H10X47082   3.901   0.988   9.016
  104PPPE  H10Y47083   4.058   0.999   9.099
  104PPPE  C31147084   3.947   0.810   9.122
  104PPPE  H11X47085   3.907   0.729   9.056
  104PPPE  H11Y47086   3.865   0.846   9.188
  104PPPE  C31247087   4.051   0.754   9.220
  104PPPE  H12X47088   4.076   0.831   9.296
  104PPPE  H12Y47089   4.139   0.733   9.155
  104PPPE  C31347090   4.028   0.622   9.294
  104PPPE  H13X47091   4.128   0.580   9.320
  104PPPE  H13Y47092   3.979   0.550   9.225
  104PPPE  C31447093   3.949   0.629   9.425
  104PPPE  H14X47094   3.948   0.527   9.469
  104PPPE  H14Y47095   3.844   0.658   9.401
  104PPPE  C31547096   4.002   0.723   9.533
  104PPPE  H15X47097   3.990   0.827   9.496
  104PPPE  H15Y47098   4.111   0.704   9.550
  104PPPE  C31647099   3.927   0.710   9.666
  104PPPE  H16X47100   3.818   0.723   9.650
  104PPPE  H16Y47101   3.945   0.610   9.711
  104PPPE  H16Z47102   3.961   0.787   9.738
  105PPPE     N47103   1.910   6.926   8.077
  105PPPE   HN147104   1.865   7.019   8.091
  105PPPE   HN247105   1.836   6.855   8.063
  105PPPE   HN347106   1.967   6.901   8.160
  105PPPE   C1247107   1.997   6.933   7.955
  105PPPE  H12A47108   2.039   6.831   7.934
  105PPPE  H12B47109   2.082   7.000   7.979
  105PPPE   C1147110   1.916   6.983   7.835
  105PPPE  H11A47111   1.873   7.084   7.857
  105PPPE  H11B47112   1.829   6.916   7.818
  105PPPE     P47113   2.099   7.100   7.689
  105PPPE   O1347114   2.193   7.105   7.802
  105PPPE   O1447115   2.152   7.082   7.552
  105PPPE   O1147116   2.007   7.229   7.688
  105PPPE   O1247117   1.994   6.985   7.716
  105PPPE    C147118   2.050   7.348   7.757
  105PPPE    HA47119   2.040   7.435   7.689
  105PPPE    HB47120   2.157   7.347   7.786
  105PPPE    C247121   1.960   7.375   7.880
  105PPPE    HS47122   1.984   7.477   7.918
  105PPPE   O2147123   1.980   7.276   7.983
  105PPPE   C2147124   2.089   7.294   8.057
  105PPPE   O2247125   2.182   7.367   8.028
  105PPPE   C2247126   2.071   7.220   8.190
  105PPPE   H2R47127   2.134   7.128   8.185
  105PPPE   H2S47128   1.964   7.193   8.203
  105PPPE    C347129   1.810   7.376   7.841
  105PPPE    HX47130   1.797   7.440   7.751
  105PPPE    HY47131   1.774   7.274   7.815
  105PPPE   O3147132   1.734   7.434   7.948
  105PPPE   C3147133   1.719   7.357   8.055
  105PPPE   O3247134   1.719   7.234   8.055
  105PPPE   C3247135   1.731   7.447   8.178
  105PPPE   H2X47136   1.699   7.549   8.148
  105PPPE   H2Y47137   1.837   7.452   8.210
  105PPPE   C2347138   2.116   7.307   8.310
  105PPPE   H3R47139   2.053   7.398   8.318
  105PPPE   H3S47140   2.220   7.341   8.288
  105PPPE   C2447141   2.122   7.235   8.446
  105PPPE   H4R47142   2.221   7.257   8.490
  105PPPE   H4S47143   2.117   7.124   8.433
  105PPPE   C2547144   2.017   7.281   8.550
  105PPPE   H5R47145   1.940   7.201   8.562
  105PPPE   H5S47146   1.966   7.373   8.515
  105PPPE   C2647147   2.079   7.313   8.688
  105PPPE   H6R47148   2.163   7.243   8.708
  105PPPE   H6S47149   2.004   7.297   8.768
  105PPPE   C2747150   2.127   7.458   8.697
  105PPPE   H7R47151   2.042   7.529   8.686
  105PPPE   H7S47152   2.191   7.474   8.607
  105PPPE   C2847153   2.212   7.493   8.821
  105PPPE   H8R47154   2.287   7.568   8.788
  105PPPE   H8S47155   2.270   7.403   8.850
  105PPPE   C2947156   2.143   7.554   8.941
  105PPPE   H9147157   2.110   7.657   8.927
  105PPPE  C21047158   2.121   7.495   9.059
  105PPPE  H10147159   2.067   7.552   9.137
  105PPPE  C21147160   2.159   7.354   9.100
  105PPPE  H11R47161   2.223   7.304   9.023
  105PPPE  H11S47162   2.066   7.294   9.106
  105PPPE  C21247163   2.229   7.341   9.236
  105PPPE  H12R47164   2.317   7.409   9.239
  105PPPE  H12S47165   2.266   7.237   9.249
  105PPPE  C21347166   2.135   7.372   9.354
  105PPPE  H13R47167   2.062   7.289   9.365
  105PPPE  H13S47168   2.079   7.465   9.330
  105PPPE  C21447169   2.206   7.395   9.487
  105PPPE  H14R47170   2.306   7.440   9.468
  105PPPE  H14S47171   2.221   7.299   9.541
  105PPPE  C21547172   2.129   7.490   9.578
  105PPPE  H15R47173   2.092   7.578   9.520
  105PPPE  H15S47174   2.197   7.531   9.656
  105PPPE  C21647175   2.013   7.420   9.647
  105PPPE  H16R47176   1.952   7.492   9.704
  105PPPE  H16S47177   1.948   7.369   9.573
  105PPPE  H16T47178   2.050   7.341   9.716
  105PPPE   C3347179   1.640   7.401   8.293
  105PPPE   H3X47180   1.539   7.379   8.251
  105PPPE   H3Y47181   1.629   7.489   8.360
  105PPPE   C3447182   1.687   7.284   8.379
  105PPPE   H4X47183   1.766   7.323   8.446
  105PPPE   H4Y47184   1.732   7.204   8.316
  105PPPE   C3547185   1.573   7.224   8.464
  105PPPE   H5X47186   1.516   7.149   8.406
  105PPPE   H5Y47187   1.501   7.306   8.487
  105PPPE   C3647188   1.621   7.164   8.597
  105PPPE   H6X47189   1.697   7.234   8.638
  105PPPE   H6Y47190   1.672   7.067   8.578
  105PPPE   C3747191   1.513   7.145   8.708
  105PPPE   H7X47192   1.562   7.093   8.794
  105PPPE   H7Y47193   1.434   7.076   8.671
  105PPPE   C3847194   1.451   7.278   8.756
  105PPPE   H8X47195   1.357   7.296   8.699
  105PPPE   H8Y47196   1.521   7.358   8.722
  105PPPE   C3947197   1.428   7.305   8.908
  105PPPE   H9X47198   1.350   7.384   8.917
  105PPPE   H9Y47199   1.520   7.349   8.951
  105PPPE  C31047200   1.390   7.188   9.001
  105PPPE  H10X47201   1.477   7.119   9.003
  105PPPE  H10Y47202   1.303   7.131   8.964
  105PPPE  C31147203   1.360   7.236   9.145
  105PPPE  H11X47204   1.269   7.301   9.146
  105PPPE  H11Y47205   1.442   7.303   9.179
  105PPPE  C31247206   1.342   7.122   9.246
  105PPPE  H12X47207   1.434   7.059   9.246
  105PPPE  H12Y47208   1.257   7.058   9.213
  105PPPE  C31347209   1.321   7.159   9.394
  105PPPE  H13X47210   1.276   7.070   9.442
  105PPPE  H13Y47211   1.250   7.244   9.405
  105PPPE  C31447212   1.451   7.190   9.469
  105PPPE  H14X47213   1.475   7.298   9.454
  105PPPE  H14Y47214   1.535   7.130   9.429
  105PPPE  C31547215   1.442   7.162   9.620
  105PPPE  H15X47216   1.512   7.079   9.645
  105PPPE  H15Y47217   1.339   7.129   9.646
  105PPPE  C31647218   1.479   7.282   9.706
  105PPPE  H16X47219   1.427   7.373   9.671
  105PPPE  H16Y47220   1.451   7.265   9.812
  105PPPE  H16Z47221   1.589   7.299   9.702
  106PPPE     N47222   7.271   5.094   7.992
  106PPPE   HN147223   7.183   5.039   7.982
  106PPPE   HN247224   7.336   5.033   8.045
  106PPPE   HN347225   7.251   5.180   8.048
  106PPPE   C1247226   7.335   5.124   7.859
  106PPPE  H12A47227   7.257   5.158   7.788
  106PPPE  H12B47228   7.377   5.028   7.822
  106PPPE   C1147229   7.447   5.229   7.870
  106PPPE  H11A47230   7.491   5.231   7.973
  106PPPE  H11B47231   7.404   5.330   7.854
  106PPPE     P47232   7.669   5.109   7.802
  106PPPE   O1347233   7.621   4.969   7.790
  106PPPE   O1447234   7.784   5.140   7.713
  106PPPE   O1147235   7.703   5.141   7.952
  106PPPE   O1247236   7.547   5.205   7.770
  106PPPE    C147237   7.752   5.042   8.042
  106PPPE    HA47238   7.851   5.006   8.006
  106PPPE    HB47239   7.681   4.956   8.048
  106PPPE    C247240   7.773   5.093   8.188
  106PPPE    HS47241   7.817   5.007   8.243
  106PPPE   O2147242   7.644   5.128   8.244
  106PPPE   C2147243   7.651   5.145   8.377
  106PPPE   O2247244   7.748   5.118   8.445
  106PPPE   C2247245   7.516   5.194   8.429
  106PPPE   H2R47246   7.436   5.134   8.381
  106PPPE   H2S47247   7.503   5.301   8.400
  106PPPE    C347248   7.876   5.211   8.198
  106PPPE    HX47249   7.922   5.207   8.299
  106PPPE    HY47250   7.959   5.195   8.126
  106PPPE   O3147251   7.812   5.339   8.185
  106PPPE   C3147252   7.828   5.404   8.071
  106PPPE   O3247253   7.894   5.367   7.976
  106PPPE   C3247254   7.748   5.535   8.074
  106PPPE   H2X47255   7.687   5.536   7.981
  106PPPE   H2Y47256   7.820   5.619   8.069
  106PPPE   C2347257   7.506   5.180   8.583
  106PPPE   H3R47258   7.549   5.271   8.630
  106PPPE   H3S47259   7.570   5.097   8.619
  106PPPE   C2447260   7.364   5.152   8.636
  106PPPE   H4R47261   7.370   5.144   8.747
  106PPPE   H4S47262   7.328   5.054   8.599
  106PPPE   C2547263   7.254   5.253   8.600
  106PPPE   H5R47264   7.163   5.226   8.658
  106PPPE   H5S47265   7.227   5.243   8.493
  106PPPE   C2647266   7.288   5.399   8.630
  106PPPE   H6R47267   7.193   5.457   8.632
  106PPPE   H6S47268   7.350   5.438   8.546
  106PPPE   C2747269   7.361   5.428   8.761
  106PPPE   H7R47270   7.408   5.529   8.751
  106PPPE   H7S47271   7.444   5.357   8.779
  106PPPE   C2847272   7.273   5.434   8.885
  106PPPE   H8R47273   7.192   5.509   8.870
  106PPPE   H8S47274   7.341   5.473   8.964
  106PPPE   C2947275   7.212   5.304   8.932
  106PPPE   H9147276   7.114   5.281   8.890
  106PPPE  C21047277   7.268   5.219   9.019
  106PPPE  H10147278   7.213   5.128   9.046
  106PPPE  C21147279   7.402   5.234   9.086
  106PPPE  H11R47280   7.477   5.276   9.016
  106PPPE  H11S47281   7.439   5.133   9.115
  106PPPE  C21247282   7.405   5.322   9.214
  106PPPE  H12R47283   7.400   5.430   9.188
  106PPPE  H12S47284   7.502   5.303   9.264
  106PPPE  C21347285   7.294   5.289   9.314
  106PPPE  H13R47286   7.278   5.179   9.311
  106PPPE  H13S47287   7.199   5.338   9.282
  106PPPE  C21447288   7.327   5.325   9.460
  106PPPE  H14R47289   7.418   5.270   9.492
  106PPPE  H14S47290   7.243   5.290   9.525
  106PPPE  C21547291   7.347   5.474   9.490
  106PPPE  H15R47292   7.256   5.531   9.463
  106PPPE  H15S47293   7.429   5.514   9.425
  106PPPE  C21647294   7.380   5.500   9.637
  106PPPE  H16R47295   7.470   5.443   9.668
  106PPPE  H16S47296   7.295   5.468   9.702
  106PPPE  H16T47297   7.398   5.608   9.656
  106PPPE   C3347298   7.654   5.555   8.197
  106PPPE   H3X47299   7.603   5.459   8.224
  106PPPE   H3Y47300   7.575   5.628   8.170
  106PPPE   C3447301   7.728   5.612   8.319
  106PPPE   H4X47302   7.768   5.712   8.290
  106PPPE   H4Y47303   7.815   5.546   8.343
  106PPPE   C3547304   7.642   5.629   8.445
  106PPPE   H5X47305   7.535   5.640   8.415
  106PPPE   H5Y47306   7.671   5.723   8.496
  106PPPE   C3647307   7.657   5.513   8.545
  106PPPE   H6X47308   7.715   5.431   8.498
  106PPPE   H6Y47309   7.557   5.474   8.570
  106PPPE   C3747310   7.726   5.553   8.676
  106PPPE   H7X47311   7.657   5.617   8.737
  106PPPE   H7Y47312   7.815   5.617   8.653
  106PPPE   C3847313   7.772   5.432   8.760
  106PPPE   H8X47314   7.882   5.435   8.775
  106PPPE   H8Y47315   7.750   5.339   8.703
  106PPPE   C3947316   7.705   5.423   8.897
  106PPPE   H9X47317   7.706   5.317   8.933
  106PPPE   H9Y47318   7.598   5.454   8.888
  106PPPE  C31047319   7.772   5.510   9.004
  106PPPE  H10X47320   7.800   5.608   8.960
  106PPPE  H10Y47321   7.865   5.461   9.039
  106PPPE  C31147322   7.678   5.534   9.122
  106PPPE  H11X47323   7.645   5.437   9.164
  106PPPE  H11Y47324   7.587   5.586   9.083
  106PPPE  C31247325   7.739   5.621   9.233
  106PPPE  H12X47326   7.656   5.681   9.276
  106PPPE  H12Y47327   7.813   5.691   9.189
  106PPPE  C31347328   7.803   5.541   9.348
  106PPPE  H13X47329   7.868   5.609   9.407
  106PPPE  H13Y47330   7.866   5.460   9.308
  106PPPE  C31447331   7.697   5.484   9.444
  106PPPE  H14X47332   7.634   5.413   9.387
  106PPPE  H14Y47333   7.632   5.567   9.479
  106PPPE  C31547334   7.753   5.411   9.566
  106PPPE  H15X47335   7.845   5.355   9.537
  106PPPE  H15Y47336   7.678   5.337   9.600
  106PPPE  C31647337   7.784   5.504   9.684
  106PPPE  H16X47338   7.692   5.560   9.715
  106PPPE  H16Y47339   7.819   5.446   9.772
  106PPPE  H16Z47340   7.862   5.578   9.657
  107PPPE     N47341   1.619   6.382   7.809
  107PPPE   HN147342   1.670   6.312   7.751
  107PPPE   HN247343   1.692   6.428   7.867
  107PPPE   HN347344   1.557   6.326   7.871
  107PPPE   C1247345   1.542   6.483   7.728
  107PPPE  H12A47346   1.475   6.429   7.658
  107PPPE  H12B47347   1.615   6.544   7.670
  107PPPE   C1147348   1.459   6.573   7.821
  107PPPE  H11A47349   1.526   6.616   7.899
  107PPPE  H11B47350   1.382   6.511   7.871
  107PPPE     P47351   1.293   6.771   7.816
  107PPPE   O1347352   1.305   6.908   7.760
  107PPPE   O1447353   1.163   6.702   7.803
  107PPPE   O1147354   1.346   6.764   7.966
  107PPPE   O1247355   1.400   6.678   7.744
  107PPPE    C147356   1.300   6.851   8.069
  107PPPE    HA47357   1.189   6.864   8.065
  107PPPE    HB47358   1.347   6.951   8.060
  107PPPE    C247359   1.333   6.794   8.211
  107PPPE    HS47360   1.281   6.858   8.285
  107PPPE   O2147361   1.477   6.793   8.231
  107PPPE   C2147362   1.514   6.798   8.359
  107PPPE   O2247363   1.441   6.824   8.453
  107PPPE   C2247364   1.664   6.768   8.370
  107PPPE   H2R47365   1.715   6.858   8.409
  107PPPE   H2S47366   1.701   6.746   8.268
  107PPPE    C347367   1.276   6.649   8.223
  107PPPE    HX47368   1.166   6.652   8.207
  107PPPE    HY47369   1.317   6.591   8.137
  107PPPE   O3147370   1.312   6.579   8.344
  107PPPE   C3147371   1.234   6.607   8.450
  107PPPE   O3247372   1.143   6.688   8.449
  107PPPE   C3247373   1.274   6.513   8.564
  107PPPE   H2X47374   1.378   6.536   8.593
  107PPPE   H2Y47375   1.271   6.410   8.524
  107PPPE   C2347376   1.693   6.646   8.460
  107PPPE   H3R47377   1.789   6.600   8.430
  107PPPE   H3S47378   1.614   6.568   8.447
  107PPPE   C2447379   1.705   6.680   8.610
  107PPPE   H4R47380   1.609   6.722   8.646
  107PPPE   H4S47381   1.784   6.757   8.625
  107PPPE   C2547382   1.741   6.556   8.694
  107PPPE   H5R47383   1.840   6.517   8.664
  107PPPE   H5S47384   1.665   6.477   8.673
  107PPPE   C2647385   1.739   6.583   8.845
  107PPPE   H6R47386   1.637   6.616   8.870
  107PPPE   H6S47387   1.808   6.666   8.872
  107PPPE   C2747388   1.774   6.458   8.929
  107PPPE   H7R47389   1.884   6.448   8.936
  107PPPE   H7S47390   1.738   6.368   8.875
  107PPPE   C2847391   1.713   6.459   9.071
  107PPPE   H8R47392   1.746   6.550   9.124
  107PPPE   H8S47393   1.755   6.373   9.126
  107PPPE   C2947394   1.562   6.448   9.063
  107PPPE   H9147395   1.526   6.429   8.961
  107PPPE  C21047396   1.470   6.461   9.160
  107PPPE  H10147397   1.364   6.449   9.135
  107PPPE  C21147398   1.495   6.488   9.306
  107PPPE  H11R47399   1.454   6.587   9.334
  107PPPE  H11S47400   1.604   6.492   9.327
  107PPPE  C21247401   1.433   6.381   9.399
  107PPPE  H12R47402   1.503   6.362   9.483
  107PPPE  H12S47403   1.422   6.284   9.345
  107PPPE  C21347404   1.297   6.420   9.455
  107PPPE  H13R47405   1.231   6.331   9.449
  107PPPE  H13S47406   1.251   6.501   9.394
  107PPPE  C21447407   1.307   6.461   9.602
  107PPPE  H14R47408   1.395   6.527   9.616
  107PPPE  H14S47409   1.327   6.370   9.662
  107PPPE  C21547410   1.181   6.529   9.655
  107PPPE  H15R47411   1.092   6.482   9.608
  107PPPE  H15S47412   1.180   6.636   9.625
  107PPPE  C21647413   1.167   6.516   9.806
  107PPPE  H16R47414   1.066   6.549   9.838
  107PPPE  H16S47415   1.179   6.410   9.838
  107PPPE  H16T47416   1.243   6.577   9.859
  107PPPE   C3347417   1.181   6.520   8.689
  107PPPE   H3X47418   1.160   6.416   8.721
  107PPPE   H3Y47419   1.084   6.567   8.665
  107PPPE   C3447420   1.246   6.591   8.809
  107PPPE   H4X47421   1.341   6.540   8.835
  107PPPE   H4Y47422   1.177   6.581   8.896
  107PPPE   C3547423   1.274   6.741   8.786
  107PPPE   H5X47424   1.181   6.788   8.747
  107PPPE   H5Y47425   1.353   6.754   8.709
  107PPPE   C3647426   1.314   6.815   8.915
  107PPPE   H6X47427   1.236   6.798   8.992
  107PPPE   H6Y47428   1.316   6.924   8.894
  107PPPE   C3747429   1.451   6.773   8.973
  107PPPE   H7X47430   1.531   6.805   8.903
  107PPPE   H7Y47431   1.452   6.663   8.980
  107PPPE   C3847432   1.477   6.833   9.112
  107PPPE   H8X47433   1.394   6.804   9.180
  107PPPE   H8Y47434   1.473   6.943   9.096
  107PPPE   C3947435   1.611   6.802   9.181
  107PPPE   H9X47436   1.696   6.832   9.115
  107PPPE   H9Y47437   1.619   6.693   9.199
  107PPPE  C31047438   1.623   6.874   9.317
  107PPPE  H10X47439   1.534   6.850   9.379
  107PPPE  H10Y47440   1.621   6.983   9.296
  107PPPE  C31147441   1.751   6.849   9.399
  107PPPE  H11X47442   1.754   6.926   9.479
  107PPPE  H11Y47443   1.840   6.866   9.334
  107PPPE  C31247444   1.764   6.711   9.467
  107PPPE  H12X47445   1.857   6.711   9.529
  107PPPE  H12Y47446   1.777   6.634   9.388
  107PPPE  C31347447   1.647   6.669   9.557
  107PPPE  H13X47448   1.664   6.565   9.592
  107PPPE  H13Y47449   1.554   6.667   9.496
  107PPPE  C31447450   1.618   6.757   9.681
  107PPPE  H14X47451   1.687   6.844   9.684
  107PPPE  H14Y47452   1.637   6.697   9.772
  107PPPE  C31547453   1.473   6.806   9.684
  107PPPE  H15X47454   1.404   6.723   9.658
  107PPPE  H15Y47455   1.459   6.882   9.604
  107PPPE  C31647456   1.429   6.862   9.819
  107PPPE  H16X47457   1.430   6.782   9.896
  107PPPE  H16Y47458   1.496   6.943   9.852
  107PPPE  H16Z47459   1.325   6.902   9.813
  108PPPE     N47460   3.636   7.846   7.618
  108PPPE   HN147461   3.716   7.911   7.634
  108PPPE   HN247462   3.644   7.805   7.522
  108PPPE   HN347463   3.552   7.907   7.625
  108PPPE   C1247464   3.626   7.740   7.724
  108PPPE  H12A47465   3.726   7.693   7.735
  108PPPE  H12B47466   3.553   7.664   7.688
  108PPPE   C1147467   3.576   7.798   7.858
  108PPPE  H11A47468   3.646   7.876   7.896
  108PPPE  H11B47469   3.576   7.717   7.934
  108PPPE     P47470   3.409   8.000   7.831
  108PPPE   O1347471   3.482   8.044   7.709
  108PPPE   O1447472   3.263   8.018   7.830
  108PPPE   O1147473   3.480   8.064   7.957
  108PPPE   O1247474   3.442   7.846   7.845
  108PPPE    C147475   3.414   8.073   8.085
  108PPPE    HA47476   3.350   7.986   8.106
  108PPPE    HB47477   3.350   0.020   8.086
  108PPPE    C247478   3.518   8.086   8.201
  108PPPE    HS47479   3.596   0.013   8.165
  108PPPE   O2147480   3.574   7.956   8.228
  108PPPE   C2147481   3.691   7.960   8.291
  108PPPE   O2247482   3.750   8.061   8.324
  108PPPE   C2247483   3.751   7.819   8.297
  108PPPE   H2R47484   3.862   7.830   8.299
  108PPPE   H2S47485   3.722   7.766   8.204
  108PPPE    C347486   3.453   0.005   8.329
  108PPPE    HX47487   3.529   0.006   8.410
  108PPPE    HY47488   3.429   0.111   8.306
  108PPPE   O3147489   3.331   8.081   8.362
  108PPPE   C3147490   3.319   8.034   8.486
  108PPPE   O3247491   3.396   8.055   8.578
  108PPPE   C3247492   3.196   7.945   8.492
  108PPPE   H2X47493   3.108   8.008   8.464
  108PPPE   H2Y47494   3.183   7.911   8.597
  108PPPE   C2347495   3.706   7.733   8.418
  108PPPE   H3R47496   3.742   7.630   8.400
  108PPPE   H3S47497   3.596   7.727   8.424
  108PPPE   C2447498   3.765   7.778   8.554
  108PPPE   H4R47499   3.864   7.825   8.541
  108PPPE   H4S47500   3.779   7.687   8.616
  108PPPE   C2547501   3.671   7.870   8.632
  108PPPE   H5R47502   3.571   7.823   8.636
  108PPPE   H5S47503   3.658   7.967   8.579
  108PPPE   C2647504   3.716   7.898   8.777
  108PPPE   H6R47505   3.801   7.968   8.776
  108PPPE   H6S47506   3.750   7.803   8.824
  108PPPE   C2747507   3.601   7.956   8.861
  108PPPE   H7R47508   3.526   7.876   8.880
  108PPPE   H7S47509   3.550   8.035   8.802
  108PPPE   C2847510   3.643   8.018   8.996
  108PPPE   H8R47511   3.552   8.059   9.044
  108PPPE   H8S47512   3.711   8.104   8.976
  108PPPE   C2947513   3.712   7.918   9.086
  108PPPE   H9147514   3.817   7.896   9.059
  108PPPE  C21047515   3.659   7.856   9.192
  108PPPE  H10147516   3.721   7.786   9.249
  108PPPE  C21147517   3.520   7.870   9.247
  108PPPE  H11R47518   3.445   7.830   9.175
  108PPPE  H11S47519   3.494   7.977   9.265
  108PPPE  C21247520   3.506   7.793   9.380
  108PPPE  H12R47521   3.534   7.686   9.368
  108PPPE  H12S47522   3.399   7.796   9.411
  108PPPE  C21347523   3.590   7.853   9.493
  108PPPE  H13R47524   3.574   7.963   9.491
  108PPPE  H13S47525   3.698   7.833   9.474
  108PPPE  C21447526   3.554   7.802   9.632
  108PPPE  H14R47527   3.636   7.828   9.702
  108PPPE  H14S47528   3.546   7.691   9.632
  108PPPE  C21547529   3.424   7.864   9.685
  108PPPE  H15R47530   3.352   7.783   9.706
  108PPPE  H15S47531   3.378   7.927   9.606
  108PPPE  C21647532   3.446   7.949   9.810
  108PPPE  H16R47533   3.517   7.900   9.880
  108PPPE  H16S47534   3.486   8.049   9.782
  108PPPE  H16T47535   3.351   7.964   9.865
  108PPPE   C3347536   3.210   7.826   8.395
  108PPPE   H3X47537   3.242   7.861   8.295
  108PPPE   H3Y47538   3.111   7.776   8.383
  108PPPE   C3447539   3.311   7.721   8.446
  108PPPE   H4X47540   3.403   7.771   8.482
  108PPPE   H4Y47541   3.338   7.654   8.362
  108PPPE   C3547542   3.253   7.636   8.559
  108PPPE   H5X47543   3.149   7.611   8.529
  108PPPE   H5Y47544   3.245   7.694   8.653
  108PPPE   C3647545   3.326   7.503   8.582
  108PPPE   H6X47546   3.336   7.448   8.486
  108PPPE   H6Y47547   3.263   7.441   8.649
  108PPPE   C3747548   3.465   7.516   8.648
  108PPPE   H7X47549   3.534   7.565   8.576
  108PPPE   H7Y47550   3.504   7.414   8.668
  108PPPE   C3847551   3.466   7.596   8.780
  108PPPE   H8X47552   3.439   7.701   8.759
  108PPPE   H8Y47553   3.569   7.596   8.822
  108PPPE   C3947554   3.369   7.540   8.884
  108PPPE   H9X47555   3.398   7.434   8.905
  108PPPE   H9Y47556   3.266   7.539   8.843
  108PPPE  C31047557   3.366   7.619   9.015
  108PPPE  H10X47558   3.361   7.728   8.994
  108PPPE  H10Y47559   3.461   7.599   9.071
  108PPPE  C31147560   3.245   7.578   9.101
  108PPPE  H11X47561   3.231   7.469   9.089
  108PPPE  H11Y47562   3.153   7.627   9.064
  108PPPE  C31247563   3.262   7.603   9.251
  108PPPE  H12X47564   3.228   7.706   9.277
  108PPPE  H12Y47565   3.369   7.594   9.278
  108PPPE  C31347566   3.185   7.498   9.333
  108PPPE  H13X47567   3.238   7.401   9.327
  108PPPE  H13Y47568   3.086   7.485   9.284
  108PPPE  C31447569   3.163   7.532   9.481
  108PPPE  H14X47570   3.075   7.473   9.517
  108PPPE  H14Y47571   3.137   7.640   9.493
  108PPPE  C31547572   3.281   7.495   9.571
  108PPPE  H15X47573   3.365   7.565   9.552
  108PPPE  H15Y47574   3.315   7.392   9.545
  108PPPE  C31647575   3.244   7.495   9.719
  108PPPE  H16X47576   3.197   7.592   9.746
  108PPPE  H16Y47577   3.172   7.414   9.742
  108PPPE  H16Z47578   3.334   7.480   9.782
  109PPPE     N47579   6.640   7.146   7.608
  109PPPE   HN147580   6.689   7.110   7.523
  109PPPE   HN247581   6.705   7.179   7.682
  109PPPE   HN347582   6.582   7.069   7.646
  109PPPE   C1247583   6.534   7.247   7.577
  109PPPE  H12A47584   6.505   7.234   7.470
  109PPPE  H12B47585   6.573   7.350   7.593
  109PPPE   C1147586   6.415   7.213   7.667
  109PPPE  H11A47587   6.326   7.269   7.633
  109PPPE  H11B47588   6.438   7.246   7.771
  109PPPE     P47589   6.282   7.010   7.756
  109PPPE   O1347590   6.160   7.088   7.731
  109PPPE   O1447591   6.281   6.864   7.732
  109PPPE   O1147592   6.348   7.043   7.896
  109PPPE   O1247593   6.394   7.071   7.661
  109PPPE    C147594   6.473   6.982   7.933
  109PPPE    HA47595   6.525   7.049   8.004
  109PPPE    HB47596   6.540   6.968   7.846
  109PPPE    C247597   6.451   6.846   8.003
  109PPPE    HS47598   6.379   6.789   7.940
  109PPPE   O2147599   6.395   6.872   8.132
  109PPPE   C2147600   6.322   6.779   8.185
  109PPPE   O2247601   6.300   6.668   8.138
  109PPPE   C2247602   6.267   6.828   8.319
  109PPPE   H2R47603   6.230   6.739   8.374
  109PPPE   H2S47604   6.180   6.895   8.299
  109PPPE    C347605   6.581   6.760   8.013
  109PPPE    HX47606   6.550   6.658   8.044
  109PPPE    HY47607   6.626   6.749   7.912
  109PPPE   O3147608   6.675   6.809   8.110
  109PPPE   C3147609   6.766   6.896   8.068
  109PPPE   O3247610   6.776   6.940   7.955
  109PPPE   C3247611   6.866   6.919   8.181
  109PPPE   H2X47612   6.950   6.981   8.142
  109PPPE   H2Y47613   6.906   6.820   8.209
  109PPPE   C2347614   6.372   6.902   8.406
  109PPPE   H3R47615   6.474   6.861   8.391
  109PPPE   H3S47616   6.346   6.883   8.512
  109PPPE   C2447617   6.375   7.054   8.385
  109PPPE   H4R47618   6.307   7.081   8.301
  109PPPE   H4S47619   6.477   7.086   8.356
  109PPPE   C2547620   6.332   7.132   8.510
  109PPPE   H5R47621   6.233   7.094   8.544
  109PPPE   H5S47622   6.319   7.239   8.484
  109PPPE   C2647623   6.432   7.122   8.627
  109PPPE   H6R47624   6.525   7.176   8.599
  109PPPE   H6S47625   6.459   7.016   8.645
  109PPPE   C2747626   6.374   7.181   8.756
  109PPPE   H7R47627   6.284   7.124   8.785
  109PPPE   H7S47628   6.341   7.285   8.735
  109PPPE   C2847629   6.473   7.185   8.874
  109PPPE   H8R47630   6.424   7.242   8.956
  109PPPE   H8S47631   6.561   7.245   8.843
  109PPPE   C2947632   6.517   7.050   8.923
  109PPPE   H9147633   6.603   7.006   8.869
  109PPPE  C21047634   6.463   6.979   9.023
  109PPPE  H10147635   6.507   6.883   9.051
  109PPPE  C21147636   6.345   7.020   9.108
  109PPPE  H11R47637   6.302   6.929   9.155
  109PPPE  H11S47638   6.263   7.063   9.046
  109PPPE  C21247639   6.376   7.121   9.221
  109PPPE  H12R47640   6.341   7.222   9.190
  109PPPE  H12S47641   6.485   7.128   9.238
  109PPPE  C21347642   6.309   7.082   9.354
  109PPPE  H13R47643   6.359   6.990   9.391
  109PPPE  H13S47644   6.202   7.059   9.338
  109PPPE  C21447645   6.321   7.191   9.462
  109PPPE  H14R47646   6.245   7.270   9.445
  109PPPE  H14S47647   6.420   7.240   9.452
  109PPPE  C21547648   6.309   7.136   9.605
  109PPPE  H15R47649   6.337   7.215   9.677
  109PPPE  H15S47650   6.383   7.054   9.618
  109PPPE  C21647651   6.171   7.083   9.643
  109PPPE  H16R47652   6.173   7.042   9.746
  109PPPE  H16S47653   6.095   7.164   9.640
  109PPPE  H16T47654   6.139   7.001   9.574
  109PPPE   C3347655   6.807   6.984   8.309
  109PPPE   H3X47656   6.707   6.942   8.332
  109PPPE   H3Y47657   6.796   7.093   8.296
  109PPPE   C3447658   6.899   6.954   8.429
  109PPPE   H4X47659   7.002   6.986   8.405
  109PPPE   H4Y47660   6.901   6.845   8.447
  109PPPE   C3547661   6.856   7.024   8.559
  109PPPE   H5X47662   6.749   7.002   8.580
  109PPPE   H5Y47663   6.867   7.134   8.548
  109PPPE   C3647664   6.941   6.976   8.678
  109PPPE   H6X47665   7.049   6.984   8.654
  109PPPE   H6Y47666   6.918   6.869   8.697
  109PPPE   C3747667   6.913   7.056   8.806
  109PPPE   H7X47668   6.803   7.072   8.815
  109PPPE   H7Y47669   6.960   7.156   8.799
  109PPPE   C3847670   6.961   6.985   8.933
  109PPPE   H8X47671   7.071   6.974   8.932
  109PPPE   H8Y47672   6.917   6.883   8.933
  109PPPE   C3947673   6.917   7.058   9.061
  109PPPE   H9X47674   6.812   7.092   9.047
  109PPPE   H9Y47675   6.980   7.149   9.074
  109PPPE  C31047676   6.919   6.975   9.189
  109PPPE  H10X47677   6.890   7.041   9.274
  109PPPE  H10Y47678   7.022   6.938   9.210
  109PPPE  C31147679   6.820   6.858   9.185
  109PPPE  H11X47680   6.865   6.774   9.127
  109PPPE  H11Y47681   6.727   6.889   9.132
  109PPPE  C31247682   6.781   6.807   9.324
  109PPPE  H12X47683   6.707   6.877   9.369
  109PPPE  H12Y47684   6.869   6.809   9.391
  109PPPE  C31347685   6.723   6.665   9.322
  109PPPE  H13X47686   6.796   6.599   9.271
  109PPPE  H13Y47687   6.628   6.663   9.264
  109PPPE  C31447688   6.699   6.611   9.463
  109PPPE  H14X47689   6.792   6.627   9.521
  109PPPE  H14Y47690   6.682   6.501   9.459
  109PPPE  C31547691   6.582   6.677   9.537
  109PPPE  H15X47692   6.493   6.611   9.530
  109PPPE  H15Y47693   6.555   6.773   9.487
  109PPPE  C31647694   6.615   6.707   9.683
  109PPPE  H16X47695   6.527   6.743   9.740
  109PPPE  H16Y47696   6.655   6.616   9.734
  109PPPE  H16Z47697   6.694   6.784   9.690
  110PPPE     N47698   0.653   1.893   7.954
  110PPPE   HN147699   0.617   1.805   7.996
  110PPPE   HN247700   0.722   1.935   8.021
  110PPPE   HN347701   0.577   1.962   7.937
  110PPPE   C1247702   0.728   1.862   7.828
  110PPPE  H12A47703   0.766   1.958   7.788
  110PPPE  H12B47704   0.659   1.816   7.754
  110PPPE   C1147705   0.843   1.767   7.862
  110PPPE  H11A47706   0.805   1.663   7.874
  110PPPE  H11B47707   0.886   1.795   7.960
  110PPPE     P47708   1.057   1.880   7.763
  110PPPE   O1347709   1.174   1.829   7.690
  110PPPE   O1447710   0.993   2.003   7.712
  110PPPE   O1147711   1.086   1.899   7.917
  110PPPE   O1247712   0.943   1.768   7.761
  110PPPE    C147713   1.181   1.823   7.994
  110PPPE    HA47714   1.242   1.892   8.056
  110PPPE    HB47715   1.252   1.767   7.929
  110PPPE    C247716   1.112   1.722   8.091
  110PPPE    HS47717   1.053   1.654   8.025
  110PPPE   O2147718   1.029   1.794   8.184
  110PPPE   C2147719   0.915   1.737   8.217
  110PPPE   O2247720   0.852   1.656   8.151
  110PPPE   C2247721   0.867   1.803   8.345
  110PPPE   H2R47722   0.860   1.913   8.326
  110PPPE   H2S47723   0.944   1.786   8.423
  110PPPE    C347724   1.212   1.633   8.170
  110PPPE    HX47725   1.165   1.532   8.180
  110PPPE    HY47726   1.302   1.619   8.105
  110PPPE   O3147727   1.257   1.686   8.298
  110PPPE   C3147728   1.191   1.639   8.405
  110PPPE   O3247729   1.092   1.569   8.400
  110PPPE   C3247730   1.258   1.685   8.535
  110PPPE   H2X47731   1.233   1.793   8.551
  110PPPE   H2Y47732   1.368   1.675   8.524
  110PPPE   C2347733   0.732   1.748   8.392
  110PPPE   H3R47734   0.742   1.641   8.422
  110PPPE   H3S47735   0.657   1.752   8.310
  110PPPE   C2447736   0.680   1.830   8.510
  110PPPE   H4R47737   0.574   1.803   8.530
  110PPPE   H4S47738   0.679   1.938   8.482
  110PPPE   C2547739   0.764   1.816   8.639
  110PPPE   H5R47740   0.713   1.873   8.719
  110PPPE   H5S47741   0.863   1.864   8.623
  110PPPE   C2647742   0.792   1.673   8.690
  110PPPE   H6R47743   0.865   1.624   8.622
  110PPPE   H6S47744   0.700   1.611   8.690
  110PPPE   C2747745   0.851   1.679   8.832
  110PPPE   H7R47746   0.775   1.718   8.904
  110PPPE   H7S47747   0.931   1.756   8.829
  110PPPE   C2847748   0.914   1.549   8.886
  110PPPE   H8R47749   0.993   1.579   8.958
  110PPPE   H8S47750   0.967   1.496   8.804
  110PPPE   C2947751   0.818   1.454   8.954
  110PPPE   H9147752   0.766   1.383   8.888
  110PPPE  C21047753   0.792   1.451   9.087
  110PPPE  H10147754   0.717   1.380   9.125
  110PPPE  C21147755   0.851   1.542   9.191
  110PPPE  H11R47756   0.826   1.647   9.166
  110PPPE  H11S47757   0.962   1.536   9.192
  110PPPE  C21247758   0.799   1.515   9.333
  110PPPE  H12R47759   0.696   1.473   9.334
  110PPPE  H12S47760   0.793   1.613   9.385
  110PPPE  C21347761   0.889   1.424   9.418
  110PPPE  H13R47762   0.993   1.463   9.413
  110PPPE  H13S47763   0.890   1.320   9.379
  110PPPE  C21447764   0.846   1.424   9.566
  110PPPE  H14R47765   0.754   1.364   9.579
  110PPPE  H14S47766   0.822   1.529   9.594
  110PPPE  C21547767   0.954   1.377   9.662
  110PPPE  H15R47768   1.047   1.435   9.643
  110PPPE  H15S47769   0.977   1.270   9.643
  110PPPE  C21647770   0.915   1.395   9.809
  110PPPE  H16R47771   0.999   1.366   9.876
  110PPPE  H16S47772   0.890   1.501   9.830
  110PPPE  H16T47773   0.827   1.332   9.835
  110PPPE   C3347774   1.211   1.602   8.658
  110PPPE   H3X47775   1.228   1.495   8.636
  110PPPE   H3Y47776   1.102   1.616   8.674
  110PPPE   C3447777   1.285   1.633   8.790
  110PPPE   H4X47778   1.395   1.637   8.772
  110PPPE   H4Y47779   1.266   1.548   8.858
  110PPPE   C3547780   1.239   1.761   8.861
  110PPPE   H5X47781   1.128   1.759   8.871
  110PPPE   H5Y47782   1.265   1.849   8.798
  110PPPE   C3647783   1.297   1.781   9.002
  110PPPE   H6X47784   1.269   1.883   9.037
  110PPPE   H6Y47785   1.408   1.777   8.998
  110PPPE   C3747786   1.246   1.679   9.106
  110PPPE   H7X47787   1.281   1.578   9.076
  110PPPE   H7Y47788   1.135   1.677   9.105
  110PPPE   C3847789   1.295   1.705   9.249
  110PPPE   H8X47790   1.406   1.712   9.248
  110PPPE   H8Y47791   1.269   1.618   9.313
  110PPPE   C3947792   1.239   1.831   9.317
  110PPPE   H9X47793   1.263   1.921   9.256
  110PPPE   H9Y47794   1.290   1.844   9.415
  110PPPE  C31047795   1.088   1.827   9.344
  110PPPE  H10X47796   1.065   1.738   9.406
  110PPPE  H10Y47797   1.033   1.815   9.248
  110PPPE  C31147798   1.037   1.953   9.415
  110PPPE  H11X47799   1.066   2.041   9.354
  110PPPE  H11Y47800   1.087   1.964   9.513
  110PPPE  C31247801   0.885   1.956   9.434
  110PPPE  H12X47802   0.835   1.932   9.338
  110PPPE  H12Y47803   0.854   2.058   9.464
  110PPPE  C31347804   0.835   1.858   9.542
  110PPPE  H13X47805   0.875   1.891   9.641
  110PPPE  H13Y47806   0.874   1.756   9.522
  110PPPE  C31447807   0.682   1.855   9.550
  110PPPE  H14X47808   0.641   1.831   9.450
  110PPPE  H14Y47809   0.647   1.956   9.578
  110PPPE  C31547810   0.625   1.754   9.652
  110PPPE  H15X47811   0.657   1.652   9.624
  110PPPE  H15Y47812   0.515   1.755   9.645
  110PPPE  C31647813   0.666   1.783   9.797
  110PPPE  H16X47814   0.613   1.715   9.867
  110PPPE  H16Y47815   0.775   1.769   9.811
  110PPPE  H16Z47816   0.641   1.888   9.824
  111PPPE     N47817   7.754   2.659   7.536
  111PPPE   HN147818   7.694   2.590   7.585
  111PPPE   HN247819   7.732   2.661   7.435
  111PPPE   HN347820   7.855   2.633   7.545
  111PPPE   C1247821   7.729   2.795   7.593
  111PPPE  H12A47822   7.630   2.795   7.643
  111PPPE  H12B47823   7.727   2.868   7.509
  111PPPE   C1147824   7.839   2.832   7.690
  111PPPE  H11A47825   7.935   2.841   7.636
  111PPPE  H11B47826   7.850   2.755   7.769
  111PPPE     P47827   7.898   3.020   7.855
  111PPPE   O1347828   8.034   2.979   7.814
  111PPPE   O1447829   7.868   3.165   7.856
  111PPPE   O1147830   7.848   2.948   7.988
  111PPPE   O1247831   7.801   2.957   7.747
  111PPPE    C147832   7.719   2.886   7.996
  111PPPE    HA47833   7.723   2.784   7.952
  111PPPE    HB47834   7.643   2.945   7.940
  111PPPE    C247835   7.669   2.871   8.142
  111PPPE    HS47836   7.695   2.966   8.194
  111PPPE   O2147837   7.737   2.760   8.204
  111PPPE   C2147838   7.711   2.746   8.333
  111PPPE   O2247839   7.643   2.821   8.401
  111PPPE   C2247840   7.772   2.616   8.383
  111PPPE   H2R47841   7.749   2.535   8.311
  111PPPE   H2S47842   7.724   2.591   8.480
  111PPPE    C347843   7.513   2.855   8.150
  111PPPE    HX47844   7.482   2.910   8.242
  111PPPE    HY47845   7.467   2.909   8.063
  111PPPE   O3147846   7.467   2.717   8.152
  111PPPE   C3147847   7.342   2.708   8.201
  111PPPE   O3247848   7.268   2.802   8.219
  111PPPE   C3247849   7.305   2.562   8.227
  111PPPE   H2X47850   7.379   2.495   8.178
  111PPPE   H2Y47851   7.205   2.546   8.182
  111PPPE   C2347852   7.924   2.630   8.402
  111PPPE   H3R47853   7.974   2.642   8.303
  111PPPE   H3S47854   7.964   2.538   8.449
  111PPPE   C2447855   7.963   2.748   8.492
  111PPPE   H4R47856   7.938   2.845   8.443
  111PPPE   H4S47857   8.074   2.745   8.504
  111PPPE   C2547858   7.900   2.744   8.631
  111PPPE   H5R47859   7.928   2.648   8.680
  111PPPE   H5S47860   7.789   2.748   8.626
  111PPPE   C2647861   7.948   2.861   8.718
  111PPPE   H6R47862   7.897   2.955   8.690
  111PPPE   H6S47863   8.056   2.875   8.698
  111PPPE   C2747864   7.935   2.833   8.869
  111PPPE   H7R47865   8.025   2.880   8.916
  111PPPE   H7S47866   7.941   2.724   8.888
  111PPPE   C2847867   7.812   2.892   8.939
  111PPPE   H8R47868   7.792   2.833   9.030
  111PPPE   H8S47869   7.723   2.883   8.873
  111PPPE   C2947870   7.838   3.037   8.973
  111PPPE   H9147871   7.819   3.108   8.892
  111PPPE  C21047872   7.882   3.085   9.091
  111PPPE  H10147873   7.896   3.194   9.098
  111PPPE  C21147874   7.917   3.012   9.218
  111PPPE  H11R47875   8.028   3.010   9.232
  111PPPE  H11S47876   7.883   2.906   9.219
  111PPPE  C21247877   7.855   3.086   9.338
  111PPPE  H12R47878   7.745   3.073   9.337
  111PPPE  H12S47879   7.876   3.195   9.329
  111PPPE  C21347880   7.909   3.045   9.477
  111PPPE  H13R47881   8.020   3.050   9.476
  111PPPE  H13S47882   7.878   2.941   9.500
  111PPPE  C21447883   7.855   3.140   9.585
  111PPPE  H14R47884   7.744   3.134   9.584
  111PPPE  H14S47885   7.883   3.244   9.560
  111PPPE  C21547886   7.907   3.110   9.726
  111PPPE  H15R47887   8.015   3.135   9.730
  111PPPE  H15S47888   7.899   3.001   9.747
  111PPPE  C21647889   7.833   3.187   9.837
  111PPPE  H16R47890   7.887   3.178   9.933
  111PPPE  H16S47891   7.826   3.295   9.813
  111PPPE  H16T47892   7.730   3.148   9.852
  111PPPE   C3347893   7.298   2.531   8.379
  111PPPE   H3X47894   7.247   2.434   8.394
  111PPPE   H3Y47895   7.238   2.608   8.432
  111PPPE   C3447896   7.438   2.522   8.442
  111PPPE   H4X47897   7.491   2.618   8.424
  111PPPE   H4Y47898   7.494   2.442   8.390
  111PPPE   C3547899   7.440   2.495   8.593
  111PPPE   H5X47900   7.526   2.430   8.617
  111PPPE   H5Y47901   7.347   2.442   8.624
  111PPPE   C3647902   7.457   2.624   8.676
  111PPPE   H6X47903   7.367   2.687   8.657
  111PPPE   H6Y47904   7.545   2.681   8.642
  111PPPE   C3747905   7.468   2.596   8.826
  111PPPE   H7X47906   7.413   2.504   8.853
  111PPPE   H7Y47907   7.420   2.681   8.880
  111PPPE   C3847908   7.611   2.582   8.879
  111PPPE   H8X47909   7.664   2.678   8.865
  111PPPE   H8Y47910   7.665   2.505   8.821
  111PPPE   C3947911   7.615   2.544   9.029
  111PPPE   H9X47912   7.720   2.551   9.065
  111PPPE   H9Y47913   7.583   2.438   9.040
  111PPPE  C31047914   7.525   2.628   9.120
  111PPPE  H10X47915   7.418   2.608   9.095
  111PPPE  H10Y47916   7.544   2.736   9.103
  111PPPE  C31147917   7.546   2.596   9.268
  111PPPE  H11X47918   7.648   2.630   9.297
  111PPPE  H11Y47919   7.542   2.486   9.284
  111PPPE  C31247920   7.443   2.664   9.359
  111PPPE  H12X47921   7.343   2.618   9.345
  111PPPE  H12Y47922   7.435   2.771   9.330
  111PPPE  C31347923   7.482   2.658   9.508
  111PPPE  H13X47924   7.417   2.728   9.564
  111PPPE  H13Y47925   7.587   2.694   9.518
  111PPPE  C31447926   7.470   2.519   9.571
  111PPPE  H14X47927   7.523   2.444   9.509
  111PPPE  H14Y47928   7.362   2.492   9.577
  111PPPE  C31547929   7.532   2.514   9.711
  111PPPE  H15X47930   7.524   2.615   9.756
  111PPPE  H15Y47931   7.640   2.490   9.701
  111PPPE  C31647932   7.466   2.415   9.807
  111PPPE  H16X47933   7.462   2.314   9.760
  111PPPE  H16Y47934   7.523   2.408   9.902
  111PPPE  H16Z47935   7.363   2.447   9.830
  112PPPE     N47936   4.330   7.877   7.609
  112PPPE   HN147937   4.330   7.773   7.622
  112PPPE   HN247938   4.274   7.900   7.524
  112PPPE   HN347939   4.428   7.904   7.590
  112PPPE   C1247940   4.288   7.950   7.733
  112PPPE  H12A47941   4.192   7.907   7.770
  112PPPE  H12B47942   4.274   8.057   7.707
  112PPPE   C1147943   4.400   7.936   7.837
  112PPPE  H11A47944   4.407   7.830   7.871
  112PPPE  H11B47945   4.373   7.994   7.928
  112PPPE     P47946   4.585   8.118   7.810
  112PPPE   O1347947   4.717   8.127   7.742
  112PPPE   O1447948   4.482   0.074   7.772
  112PPPE   O1147949   4.605   8.111   7.965
  112PPPE   O1247950   4.525   7.975   7.778
  112PPPE    C147951   4.532   0.045   8.061
  112PPPE    HA47952   4.468   8.123   8.124
  112PPPE    HB47953   4.467   0.121   8.014
  112PPPE    C247954   4.631   0.119   8.155
  112PPPE    HS47955   4.714   0.153   8.089
  112PPPE   O2147956   4.678   0.028   8.257
  112PPPE   C2147957   4.795   0.064   8.310
  112PPPE   O2247958   4.869   0.148   8.262
  112PPPE   C2247959   4.824   8.125   8.435
  112PPPE   H2R47960   4.920   0.017   8.478
  112PPPE   H2S47961   4.839   8.020   8.401
  112PPPE    C347962   4.569   0.246   8.220
  112PPPE    HX47963   4.652   0.313   8.252
  112PPPE    HY47964   4.516   0.302   8.140
  112PPPE   O3147965   4.475   0.216   8.326
  112PPPE   C3147966   4.522   0.234   8.450
  112PPPE   O3247967   4.634   0.274   8.476
  112PPPE   C3247968   4.416   0.208   8.558
  112PPPE   H2X47969   4.361   0.303   8.573
  112PPPE   H2Y47970   4.470   0.187   8.652
  112PPPE   C2347971   4.712   8.132   8.543
  112PPPE   H3R47972   4.612   8.140   8.495
  112PPPE   H3S47973   4.728   0.078   8.606
  112PPPE   C2447974   4.703   8.008   8.633
  112PPPE   H4R47975   4.805   7.976   8.664
  112PPPE   H4S47976   4.657   7.926   8.574
  112PPPE   C2547977   4.615   8.026   8.756
  112PPPE   H5R47978   4.522   8.079   8.725
  112PPPE   H5S47979   4.666   8.088   8.832
  112PPPE   C2647980   4.573   7.891   8.817
  112PPPE   H6R47981   4.663   7.829   8.840
  112PPPE   H6S47982   4.513   7.836   8.742
  112PPPE   C2747983   4.489   7.906   8.945
  112PPPE   H7R47984   4.418   7.821   8.953
  112PPPE   H7S47985   4.428   7.998   8.933
  112PPPE   C2847986   4.576   7.912   9.072
  112PPPE   H8R47987   4.672   7.959   9.043
  112PPPE   H8S47988   4.600   7.810   9.108
  112PPPE   C2947989   4.513   7.998   9.179
  112PPPE   H9147990   4.470   8.090   9.138
  112PPPE  C21047991   4.509   7.981   9.312
  112PPPE  H10147992   4.458   8.057   9.374
  112PPPE  C21147993   4.567   7.869   9.394
  112PPPE  H11R47994   4.615   7.793   9.329
  112PPPE  H11S47995   4.484   7.820   9.449
  112PPPE  C21247996   4.673   7.913   9.498
  112PPPE  H12R47997   4.747   7.975   9.444
  112PPPE  H12S47998   4.726   7.823   9.535
  112PPPE  C21347999   4.624   7.993   9.620
  112PPPE  H13R48000   4.559   8.079   9.590
  112PPPE  H13S48001   4.715   8.035   9.668
  112PPPE  C21448002   4.554   7.909   9.729
  112PPPE  H14R48003   4.599   7.808   9.728
  112PPPE  H14S48004   4.446   7.899   9.706
  112PPPE  C21548005   4.574   7.963   9.871
  112PPPE  H15R48006   4.682   7.979   9.891
  112PPPE  H15S48007   4.540   7.884   9.943
  112PPPE  C21648008   4.497   8.091   9.901
  112PPPE  H16R48009   4.507   8.119  10.008
  112PPPE  H16S48010   4.533   0.031   9.839
  112PPPE  H16T48011   4.389   8.075   9.881
  112PPPE   C3348012   4.314   0.095   8.529
  112PPPE   H3X48013   4.357   8.142   8.560
  112PPPE   H3Y48014   4.291   0.088   8.420
  112PPPE   C3448015   4.180   0.118   8.601
  112PPPE   H4X48016   4.118   0.026   8.594
  112PPPE   H4Y48017   4.124   0.199   8.549
  112PPPE   C3548018   4.191   0.159   8.750
  112PPPE   H5X48019   4.088   0.169   8.791
  112PPPE   H5Y48020   4.238   0.259   8.757
  112PPPE   C3648021   4.268   0.059   8.837
  112PPPE   H6X48022   4.374   0.054   8.803
  112PPPE   H6Y48023   4.223   8.103   8.824
  112PPPE   C3748024   4.267   0.097   8.986
  112PPPE   H7X48025   4.299   0.009   9.046
  112PPPE   H7Y48026   4.162   0.119   9.014
  112PPPE   C3848027   4.356   0.217   9.020
  112PPPE   H8X48028   4.328   0.301   8.953
  112PPPE   H8Y48029   4.462   0.193   9.000
  112PPPE   C3948030   4.339   0.265   9.165
  112PPPE   H9X48031   4.230   0.268   9.190
  112PPPE   H9Y48032   4.377   0.369   9.173
  112PPPE  C31048033   4.412   0.179   9.270
  112PPPE  H10X48034   4.375   0.075   9.264
  112PPPE  H10Y48035   4.381   0.216   9.371
  112PPPE  C31148036   4.566   0.188   9.261
  112PPPE  H11X48037   4.589   0.295   9.243
  112PPPE  H11Y48038   4.604   0.132   9.172
  112PPPE  C31248039   4.641   0.144   9.388
  112PPPE  H12X48040   4.663   0.035   9.385
  112PPPE  H12Y48041   4.575   0.161   9.476
  112PPPE  C31348042   4.774   0.219   9.413
  112PPPE  H13X48043   4.784   0.301   9.338
  112PPPE  H13Y48044   4.860   0.151   9.397
  112PPPE  C31448045   4.784   0.282   9.553
  112PPPE  H14X48046   4.694   0.344   9.573
  112PPPE  H14Y48047   4.872   0.350   9.557
  112PPPE  C31548048   4.799   0.178   9.665
  112PPPE  H15X48049   4.894   0.123   9.649
  112PPPE  H15Y48050   4.715   0.105   9.656
  112PPPE  C31648051   4.797   0.237   9.806
  112PPPE  H16X48052   4.871   0.318   9.816
  112PPPE  H16Y48053   4.696   0.278   9.830
  112PPPE  H16Z48054   4.821   0.158   9.880
  113PPPE     N48055   2.775   7.615   7.893
  113PPPE   HN148056   2.706   7.549   7.853
  113PPPE   HN248057   2.840   7.644   7.817
  113PPPE   HN348058   2.825   7.570   7.972
  113PPPE   C1248059   2.693   7.733   7.938
  113PPPE  H12A48060   2.762   7.811   7.979
  113PPPE  H12B48061   2.626   7.698   8.019
  113PPPE   C1148062   2.610   7.787   7.821
  113PPPE  H11A48063   2.676   7.834   7.746
  113PPPE  H11B48064   2.542   7.866   7.859
  113PPPE     P48065   2.413   7.710   7.669
  113PPPE   O1348066   2.433   7.841   7.602
  113PPPE   O1448067   2.400   7.595   7.577
  113PPPE   O1148068   2.287   7.718   7.763
  113PPPE   O1248069   2.537   7.679   7.763
  113PPPE    C148070   2.269   7.640   7.881
  113PPPE    HA48071   2.351   7.567   7.900
  113PPPE    HB48072   2.176   7.581   7.869
  113PPPE    C248073   2.252   7.730   8.007
  113PPPE    HS48074   2.183   7.812   7.977
  113PPPE   O2148075   2.381   7.786   8.039
  113PPPE   C2148076   2.385   7.865   8.145
  113PPPE   O2248077   2.293   7.890   8.220
  113PPPE   C2248078   2.520   7.933   8.155
  113PPPE   H2R48079   2.489   8.034   8.189
  113PPPE   H2S48080   2.567   7.945   8.054
  113PPPE    C348081   2.183   7.654   8.125
  113PPPE    HX48082   2.128   7.729   8.187
  113PPPE    HY48083   2.106   7.585   8.086
  113PPPE   O3148084   2.284   7.583   8.199
  113PPPE   C3148085   2.280   7.600   8.331
  113PPPE   O3248086   2.181   7.622   8.397
  113PPPE   C3248087   2.426   7.606   8.379
  113PPPE   H2X48088   2.451   7.714   8.378
  113PPPE   H2Y48089   2.491   7.552   8.306
  113PPPE   C2348090   2.622   7.892   8.263
  113PPPE   H3R48091   2.672   7.795   8.240
  113PPPE   H3S48092   2.567   7.882   8.359
  113PPPE   C2448093   2.724   8.006   8.278
  113PPPE   H4R48094   2.669   8.102   8.289
  113PPPE   H4S48095   2.786   8.015   8.186
  113PPPE   C2548096   2.816   7.997   8.401
  113PPPE   H5R48097   2.874   8.092   8.410
  113PPPE   H5S48098   2.889   7.915   8.385
  113PPPE   C2648099   2.742   7.972   8.533
  113PPPE   H6R48100   2.817   7.970   8.615
  113PPPE   H6S48101   2.695   7.871   8.526
  113PPPE   C2748102   2.629   8.069   8.574
  113PPPE   H7R48103   2.548   8.066   8.498
  113PPPE   H7S48104   2.668   0.029   8.576
  113PPPE   C2848105   2.570   8.027   8.711
  113PPPE   H8R48106   2.627   7.939   8.745
  113PPPE   H8S48107   2.465   7.993   8.696
  113PPPE   C2948108   2.579   8.132   8.819
  113PPPE   H9148109   2.655   0.065   8.800
  113PPPE  C21048110   2.508   8.139   8.933
  113PPPE  H10148111   2.530   0.076   9.004
  113PPPE  C21148112   2.400   8.047   8.982
  113PPPE  H11R48113   2.440   7.983   9.064
  113PPPE  H11S48114   2.364   7.979   8.901
  113PPPE  C21248115   2.279   8.123   9.040
  113PPPE  H12R48116   2.188   8.059   9.031
  113PPPE  H12S48117   2.262   0.068   8.977
  113PPPE  C21348118   2.292   0.023   9.187
  113PPPE  H13R48119   2.218   0.103   9.206
  113PPPE  H13S48120   2.393   0.067   9.206
  113PPPE  C21448121   2.265   8.054   9.288
  113PPPE  H14R48122   2.356   7.991   9.296
  113PPPE  H14S48123   2.182   7.990   9.252
  113PPPE  C21548124   2.229   8.102   9.430
  113PPPE  H15R48125   2.133   0.013   9.426
  113PPPE  H15S48126   2.305   0.030   9.465
  113PPPE  C21648127   2.220   7.989   9.533
  113PPPE  H16R48128   2.141   7.916   9.506
  113PPPE  H16S48129   2.317   7.935   9.540
  113PPPE  H16T48130   2.198   8.029   9.634
  113PPPE   C3348131   2.450   7.554   8.521
  113PPPE   H3X48132   2.364   7.578   8.587
  113PPPE   H3Y48133   2.537   7.608   8.563
  113PPPE   C3448134   2.483   7.404   8.521
  113PPPE   H4X48135   2.583   7.391   8.476
  113PPPE   H4Y48136   2.410   7.350   8.457
  113PPPE   C3548137   2.483   7.339   8.660
  113PPPE   H5X48138   2.540   7.243   8.656
  113PPPE   H5Y48139   2.379   7.314   8.690
  113PPPE   C3648140   2.548   7.427   8.767
  113PPPE   H6X48141   2.491   7.522   8.777
  113PPPE   H6Y48142   2.649   7.455   8.730
  113PPPE   C3748143   2.560   7.364   8.906
  113PPPE   H7X48144   2.509   7.266   8.908
  113PPPE   H7Y48145   2.502   7.429   8.976
  113PPPE   C3848146   2.705   7.352   8.958
  113PPPE   H8X48147   2.778   7.392   8.884
  113PPPE   H8Y48148   2.729   7.245   8.972
  113PPPE   C3948149   2.726   7.424   9.092
  113PPPE   H9X48150   2.628   7.429   9.143
  113PPPE   H9Y48151   2.765   7.526   9.073
  113PPPE  C31048152   2.821   7.359   9.192
  113PPPE  H10X48153   2.921   7.345   9.146
  113PPPE  H10Y48154   2.777   7.260   9.216
  113PPPE  C31148155   2.836   7.439   9.323
  113PPPE  H11X48156   2.880   7.539   9.300
  113PPPE  H11Y48157   2.905   7.385   9.391
  113PPPE  C31248158   2.704   7.463   9.398
  113PPPE  H12X48159   2.656   7.366   9.420
  113PPPE  H12Y48160   2.635   7.519   9.330
  113PPPE  C31348161   2.717   7.544   9.528
  113PPPE  H13X48162   2.808   7.607   9.525
  113PPPE  H13Y48163   2.728   7.474   9.613
  113PPPE  C31448164   2.595   7.636   9.549
  113PPPE  H14X48165   2.509   7.595   9.492
  113PPPE  H14Y48166   2.619   7.736   9.508
  113PPPE  C31548167   2.547   7.652   9.693
  113PPPE  H15X48168   2.475   7.737   9.696
  113PPPE  H15Y48169   2.633   7.679   9.758
  113PPPE  C31648170   2.476   7.529   9.748
  113PPPE  H16X48171   2.399   7.493   9.676
  113PPPE  H16Y48172   2.549   7.446   9.763
  113PPPE  H16Z48173   2.428   7.551   9.845
  114PPPE     N48174   0.008   3.633   7.597
  114PPPE   HN148175   8.086   3.633   7.516
  114PPPE   HN248176   0.008   3.728   7.638
  114PPPE   HN348177   0.105   3.610   7.567
  114PPPE   C1248178   8.096   3.541   7.702
  114PPPE  H12A48179   0.015   3.553   7.793
  114PPPE  H12B48180   8.106   3.436   7.665
  114PPPE   C1148181   7.948   3.575   7.731
  114PPPE  H11A48182   7.916   3.527   7.826
  114PPPE  H11B48183   7.886   3.527   7.652
  114PPPE     P48184   7.992   3.819   7.827
  114PPPE   O1348185   8.102   3.873   7.743
  114PPPE   O1448186   7.891   3.914   7.876
  114PPPE   O1148187   8.055   3.728   7.939
  114PPPE   O1248188   7.919   3.715   7.731
  114PPPE    C148189   7.984   3.676   8.052
  114PPPE    HA48190   7.907   3.603   8.020
  114PPPE    HB48191   7.932   3.757   8.107
  114PPPE    C248192   8.081   3.601   8.149
  114PPPE    HS48193   8.020   3.549   8.226
  114PPPE   O2148194   0.029   3.692   8.210
  114PPPE   C2148195   8.119   3.771   8.302
  114PPPE   O2248196   8.004   3.765   8.341
  114PPPE   C2248197   0.077   3.875   8.345
  114PPPE   H2R48198   0.024   3.953   8.404
  114PPPE   H2S48199   0.117   3.922   8.253
  114PPPE    C348200   0.019   3.491   8.075
  114PPPE    HX48201   8.091   3.427   8.019
  114PPPE    HY48202   0.083   3.542   8.000
  114PPPE   O3148203   0.093   3.407   8.166
  114PPPE   C3148204   0.226   3.418   8.165
  114PPPE   O3248205   0.290   3.492   8.093
  114PPPE   C3248206   0.287   3.318   8.262
  114PPPE   H2X48207   0.389   3.294   8.223
  114PPPE   H2Y48208   0.227   3.225   8.261
  114PPPE   C2348209   0.193   3.815   8.427
  114PPPE   H3R48210   0.278   3.886   8.420
  114PPPE   H3S48211   0.228   3.718   8.384
  114PPPE   C2448212   0.158   3.798   8.575
  114PPPE   H4R48213   0.094   3.709   8.589
  114PPPE   H4S48214   0.101   3.886   8.610
  114PPPE   C2548215   0.284   3.787   8.663
  114PPPE   H5R48216   0.344   3.880   8.652
  114PPPE   H5S48217   0.346   3.702   8.628
  114PPPE   C2648218   0.249   3.768   8.811
  114PPPE   H6R48219   0.182   3.679   8.819
  114PPPE   H6S48220   0.192   3.855   8.849
  114PPPE   C2748221   0.373   3.743   8.899
  114PPPE   H7R48222   0.430   3.838   8.912
  114PPPE   H7S48223   0.439   3.671   8.847
  114PPPE   C2848224   0.339   3.683   9.037
  114PPPE   H8R48225   0.436   3.653   9.083
  114PPPE   H8S48226   0.282   3.589   9.021
  114PPPE   C2948227   0.261   3.774   9.129
  114PPPE   H9148228   0.185   3.836   9.079
  114PPPE  C21048229   0.275   3.784   9.262
  114PPPE  H10148230   0.210   3.854   9.318
  114PPPE  C21148231   0.372   3.707   9.348
  114PPPE  H11R48232   0.424   3.772   9.422
  114PPPE  H11S48233   0.455   3.666   9.287
  114PPPE  C21248234   0.311   3.591   9.427
  114PPPE  H12R48235   0.399   3.534   9.464
  114PPPE  H12S48236   0.254   3.526   9.357
  114PPPE  C21348237   0.221   3.622   9.547
  114PPPE  H13R48238   0.174   3.528   9.583
  114PPPE  H13S48239   0.139   3.688   9.510
  114PPPE  C21448240   0.288   3.691   9.667
  114PPPE  H14R48241   0.208   3.720   9.738
  114PPPE  H14S48242   0.336   3.783   9.629
  114PPPE  C21548243   0.392   3.614   9.749
  114PPPE  H15R48244   0.453   3.689   9.803
  114PPPE  H15S48245   0.461   3.558   9.684
  114PPPE  C21648246   0.330   3.523   9.856
  114PPPE  H16R48247   0.265   3.582   9.924
  114PPPE  H16S48248   0.268   3.443   9.810
  114PPPE  H16T48249   0.409   3.475   9.917
  114PPPE   C3348250   0.300   3.373   8.406
  114PPPE   H3X48251   0.347   3.474   8.407
  114PPPE   H3Y48252   0.367   3.305   8.463
  114PPPE   C3448253   0.166   3.377   8.481
  114PPPE   H4X48254   0.117   3.278   8.473
  114PPPE   H4Y48255   0.098   3.452   8.435
  114PPPE   C3548256   0.185   3.410   8.630
  114PPPE   H5X48257   0.224   3.513   8.642
  114PPPE   H5Y48258   0.263   3.341   8.671
  114PPPE   C3648259   0.057   3.393   8.713
  114PPPE   H6X48260   0.012   3.294   8.689
  114PPPE   H6Y48261   8.127   3.470   8.685
  114PPPE   C3748262   0.086   3.399   8.863
  114PPPE   H7X48263   0.111   3.503   8.892
  114PPPE   H7Y48264   0.175   3.337   8.887
  114PPPE   C3848265   8.114   3.353   8.951
  114PPPE   H8X48266   8.085   3.249   8.926
  114PPPE   H8Y48267   8.026   3.418   8.932
  114PPPE   C3948268   0.008   3.361   9.100
  114PPPE   H9X48269   0.101   3.420   9.110
  114PPPE   H9Y48270   0.028   3.260   9.140
  114PPPE  C31048271   8.044   3.430   9.185
  114PPPE  H10X48272   7.953   3.367   9.187
  114PPPE  H10Y48273   8.017   3.528   9.140
  114PPPE  C31148274   8.092   3.452   9.328
  114PPPE  H11X48275   0.029   3.528   9.329
  114PPPE  H11Y48276   8.135   3.357   9.367
  114PPPE  C31248277   7.979   3.497   9.421
  114PPPE  H12X48278   7.900   3.419   9.420
  114PPPE  H12Y48279   7.934   3.592   9.384
  114PPPE  C31348280   8.031   3.515   9.563
  114PPPE  H13X48281   8.097   3.603   9.569
  114PPPE  H13Y48282   8.091   3.425   9.589
  114PPPE  C31448283   7.920   3.531   9.667
  114PPPE  H14X48284   7.854   3.442   9.663
  114PPPE  H14Y48285   7.857   3.619   9.641
  114PPPE  C31548286   7.974   3.548   9.809
  114PPPE  H15X48287   7.888   3.539   9.878
  114PPPE  H15Y48288   8.015   3.651   9.820
  114PPPE  C31648289   8.083   3.448   9.850
  114PPPE  H16X48290   0.035   3.471   9.800
  114PPPE  H16Y48291   8.100   3.450   9.960
  114PPPE  H16Z48292   8.053   3.344   9.822
  115PPPE     N48293   5.643   7.893   7.721
  115PPPE   HN148294   5.541   7.908   7.706
  115PPPE   HN248295   5.655   7.831   7.803
  115PPPE   HN348296   5.691   7.984   7.736
  115PPPE   C1248297   5.708   7.818   7.608
  115PPPE  H12A48298   5.700   7.879   7.516
  115PPPE  H12B48299   5.650   7.724   7.595
  115PPPE   C1148300   5.856   7.784   7.641
  115PPPE  H11A48301   5.917   7.875   7.622
  115PPPE  H11B48302   5.892   7.705   7.572
  115PPPE     P48303   5.806   7.616   7.836
  115PPPE   O1348304   5.662   7.649   7.839
  115PPPE   O1448305   5.843   7.501   7.750
  115PPPE   O1148306   5.860   7.604   7.982
  115PPPE   O1248307   5.877   7.745   7.778
  115PPPE    C148308   5.994   7.588   8.026
  115PPPE    HA48309   6.036   7.686   8.060
  115PPPE    HB48310   6.060   7.548   7.946
  115PPPE    C248311   5.997   7.490   8.147
  115PPPE    HS48312   5.948   7.398   8.111
  115PPPE   O2148313   5.924   7.549   8.257
  115PPPE   C2148314   5.873   7.462   8.343
  115PPPE   O2248315   5.882   7.341   8.335
  115PPPE   C2248316   5.795   7.536   8.454
  115PPPE   H2R48317   5.770   7.460   8.531
  115PPPE   H2S48318   5.700   7.572   8.408
  115PPPE    C348319   6.142   7.451   8.190
  115PPPE    HX48320   6.137   7.358   8.250
  115PPPE    HY48321   6.199   7.425   8.098
  115PPPE   O3148322   6.207   7.562   8.256
  115PPPE   C3148323   6.201   7.555   8.389
  115PPPE   O3248324   6.178   7.455   8.454
  115PPPE   C3248325   6.220   7.694   8.450
  115PPPE   H2X48326   6.126   7.750   8.433
  115PPPE   H2Y48327   6.302   7.746   8.396
  115PPPE   C2348328   5.869   7.655   8.520
  115PPPE   H3R48329   5.895   7.730   8.443
  115PPPE   H3S48330   5.963   7.619   8.567
  115PPPE   C2448331   5.784   7.724   8.629
  115PPPE   H4R48332   5.766   7.653   8.712
  115PPPE   H4S48333   5.685   7.749   8.585
  115PPPE   C2548334   5.846   7.853   8.685
  115PPPE   H5R48335   5.865   7.923   8.601
  115PPPE   H5S48336   5.942   7.831   8.735
  115PPPE   C2648337   5.752   7.923   8.785
  115PPPE   H6R48338   5.749   7.865   8.880
  115PPPE   H6S48339   5.649   7.921   8.742
  115PPPE   C2748340   5.785   8.070   8.815
  115PPPE   H7R48341   5.700   8.112   8.873
  115PPPE   H7S48342   5.791   8.126   8.719
  115PPPE   C2848343   5.914   8.092   8.897
  115PPPE   H8R48344   6.001   8.057   8.838
  115PPPE   H8S48345   5.909   8.027   8.987
  115PPPE   C2948346   5.931   0.094   8.935
  115PPPE   H9148347   5.960   0.161   8.852
  115PPPE  C21048348   5.913   0.146   9.058
  115PPPE  H10148349   5.930   0.253   9.075
  115PPPE  C21148350   5.873   0.065   9.179
  115PPPE  H11R48351   5.956   8.141   9.206
  115PPPE  H11S48352   5.785   0.001   9.156
  115PPPE  C21248353   5.839   0.149   9.304
  115PPPE  H12R48354   5.745   0.206   9.286
  115PPPE  H12S48355   5.920   0.220   9.327
  115PPPE  C21348356   5.820   0.056   9.425
  115PPPE  H13R48357   5.920   0.024   9.462
  115PPPE  H13S48358   5.766   8.109   9.389
  115PPPE  C21448359   5.738   0.112   9.541
  115PPPE  H14R48360   5.638   0.143   9.504
  115PPPE  H14S48361   5.788   0.202   9.584
  115PPPE  C21548362   5.720   0.006   9.651
  115PPPE  H15R48363   5.816   8.138   9.706
  115PPPE  H15S48364   5.698   8.052   9.603
  115PPPE  C21648365   5.607   0.037   9.749
  115PPPE  H16R48366   5.603   8.104   9.829
  115PPPE  H16S48367   5.623   0.136   9.797
  115PPPE  H16T48368   5.509   0.039   9.697
  115PPPE   C3348369   6.249   7.681   8.601
  115PPPE   H3X48370   6.344   7.626   8.616
  115PPPE   H3Y48371   6.169   7.621   8.650
  115PPPE   C3448372   6.258   7.816   8.672
  115PPPE   H4X48373   6.159   7.866   8.674
  115PPPE   H4Y48374   6.328   7.882   8.616
  115PPPE   C3548375   6.312   7.800   8.815
  115PPPE   H5X48376   6.335   7.900   8.858
  115PPPE   H5Y48377   6.410   7.748   8.807
  115PPPE   C3648378   6.222   7.724   8.913
  115PPPE   H6X48379   6.187   7.628   8.868
  115PPPE   H6Y48380   6.132   7.786   8.934
  115PPPE   C3748381   6.293   7.692   9.045
  115PPPE   H7X48382   6.348   7.782   9.079
  115PPPE   H7Y48383   6.369   7.612   9.028
  115PPPE   C3848384   6.198   7.649   9.159
  115PPPE   H8X48385   6.116   7.724   9.167
  115PPPE   H8Y48386   6.254   7.651   9.254
  115PPPE   C3948387   6.140   7.509   9.140
  115PPPE   H9X48388   6.223   7.435   9.141
  115PPPE   H9Y48389   6.089   7.502   9.041
  115PPPE  C31048390   6.039   7.471   9.249
  115PPPE  H10X48391   5.951   7.540   9.243
  115PPPE  H10Y48392   6.085   7.486   9.349
  115PPPE  C31148393   5.990   7.326   9.237
  115PPPE  H11X48394   6.076   7.258   9.258
  115PPPE  H11Y48395   5.959   7.308   9.132
  115PPPE  C31248396   5.873   7.289   9.329
  115PPPE  H12X48397   5.847   7.182   9.310
  115PPPE  H12Y48398   5.783   7.349   9.303
  115PPPE  C31348399   5.904   7.305   9.479
  115PPPE  H13X48400   6.014   7.299   9.493
  115PPPE  H13Y48401   5.859   7.221   9.537
  115PPPE  C31448402   5.852   7.438   9.536
  115PPPE  H14X48403   5.828   7.506   9.452
  115PPPE  H14Y48404   5.933   7.485   9.596
  115PPPE  C31548405   5.728   7.424   9.626
  115PPPE  H15X48406   5.762   7.385   9.724
  115PPPE  H15Y48407   5.659   7.348   9.583
  115PPPE  C31648408   5.652   7.555   9.646
  115PPPE  H16X48409   5.611   7.561   9.750
  115PPPE  H16Y48410   5.717   7.644   9.634
  115PPPE  H16Z48411   5.568   7.564   9.574
  116PPPE     N48412   4.971   0.097   7.751
  116PPPE   HN148413   5.006   0.066   7.658
  116PPPE   HN248414   4.867   0.087   7.754
  116PPPE   HN348415   5.000   0.196   7.765
  116PPPE   C1248416   5.036   0.014   7.858
  116PPPE  H12A48417   4.979   8.064   7.868
  116PPPE  H12B48418   5.030   0.071   7.953
  116PPPE   C1148419   5.184   8.125   7.824
  116PPPE  H11A48420   5.185   8.036   7.758
  116PPPE  H11B48421   5.236   8.095   7.918
  116PPPE     P48422   5.287   0.225   7.823
  116PPPE   O1348423   5.401   0.284   7.750
  116PPPE   O1448424   5.159   0.300   7.821
  116PPPE   O1148425   5.329   0.186   7.970
  116PPPE   O1248426   5.255   0.085   7.756
  116PPPE    C148427   5.456   0.122   7.989
  116PPPE    HA48428   5.537   0.178   7.938
  116PPPE    HB48429   5.453   0.018   7.948
  116PPPE    C248430   5.500   0.111   8.139
  116PPPE    HS48431   5.604   0.073   8.135
  116PPPE   O2148432   5.415   0.016   8.207
  116PPPE   C2148433   5.465   8.124   8.325
  116PPPE   O2248434   5.578   0.004   8.363
  116PPPE   C2248435   5.361   8.043   8.403
  116PPPE   H2R48436   5.347   7.946   8.351
  116PPPE   H2S48437   5.266   8.100   8.402
  116PPPE    C348438   5.505   0.250   8.210
  116PPPE    HX48439   5.581   0.245   8.291
  116PPPE    HY48440   5.542   0.324   8.136
  116PPPE   O3148441   5.380   0.287   8.271
  116PPPE   C3148442   5.322   0.399   8.231
  116PPPE   O3248443   5.355   0.469   8.138
  116PPPE   C3248444   5.214   0.436   8.333
  116PPPE   H2X48445   5.157   0.523   8.294
  116PPPE   H2Y48446   5.267   0.467   8.425
  116PPPE   C2348447   5.407   8.019   8.549
  116PPPE   H3R48448   5.423   8.118   8.598
  116PPPE   H3S48449   5.505   7.966   8.550
  116PPPE   C2448450   5.306   7.939   8.631
  116PPPE   H4R48451   5.294   7.838   8.586
  116PPPE   H4S48452   5.207   7.990   8.627
  116PPPE   C2548453   5.346   7.922   8.779
  116PPPE   H5R48454   5.440   7.864   8.787
  116PPPE   H5S48455   5.266   7.862   8.829
  116PPPE   C2648456   5.361   8.055   8.854
  116PPPE   H6R48457   5.272   8.118   8.830
  116PPPE   H6S48458   5.451   8.111   8.818
  116PPPE   C2748459   5.368   8.039   9.006
  116PPPE   H7R48460   5.468   8.000   9.036
  116PPPE   H7S48461   5.294   7.962   9.035
  116PPPE   C2848462   5.333   0.024   9.084
  116PPPE   H8R48463   5.315   8.139   9.190
  116PPPE   H8S48464   5.237   0.062   9.044
  116PPPE   C2948465   5.439   0.131   9.080
  116PPPE   H9148466   5.542   0.093   9.077
  116PPPE  C21048467   5.418   0.264   9.081
  116PPPE  H10148468   5.506   0.330   9.079
  116PPPE  C21148469   5.286   0.338   9.088
  116PPPE  H11R48470   5.232   0.323   8.992
  116PPPE  H11S48471   5.307   0.446   9.095
  116PPPE  C21248472   5.189   0.304   9.203
  116PPPE  H12R48473   5.144   0.204   9.188
  116PPPE  H12S48474   5.105   0.378   9.201
  116PPPE  C21348475   5.254   0.308   9.342
  116PPPE  H13R48476   5.312   0.402   9.350
  116PPPE  H13S48477   5.324   0.223   9.353
  116PPPE  C21448478   5.154   0.306   9.459
  116PPPE  H14R48479   5.096   0.211   9.459
  116PPPE  H14S48480   5.082   0.389   9.448
  116PPPE  C21548481   5.227   0.321   9.593
  116PPPE  H15R48482   5.281   0.418   9.592
  116PPPE  H15S48483   5.303   0.241   9.603
  116PPPE  C21648484   5.136   0.319   9.716
  116PPPE  H16R48485   5.087   0.220   9.727
  116PPPE  H16S48486   5.195   0.339   9.809
  116PPPE  H16T48487   5.058   0.397   9.708
  116PPPE   C3348488   5.118   0.319   8.364
  116PPPE   H3X48489   5.174   0.225   8.380
  116PPPE   H3Y48490   5.051   0.304   8.276
  116PPPE   C3448491   5.033   0.342   8.489
  116PPPE   H4X48492   4.963   0.257   8.500
  116PPPE   H4Y48493   4.970   0.433   8.474
  116PPPE   C3548494   5.116   0.357   8.618
  116PPPE   H5X48495   5.149   0.463   8.627
  116PPPE   H5Y48496   5.208   0.295   8.609
  116PPPE   C3648497   5.042   0.315   8.745
  116PPPE   H6X48498   4.942   0.363   8.748
  116PPPE   H6Y48499   5.098   0.354   8.833
  116PPPE   C3748500   5.029   0.163   8.760
  116PPPE   H7X48501   5.129   0.118   8.748
  116PPPE   H7Y48502   4.964   0.124   8.678
  116PPPE   C3848503   4.971   0.119   8.895
  116PPPE   H8X48504   4.868   0.159   8.906
  116PPPE   H8Y48505   5.033   0.160   8.977
  116PPPE   C3948506   4.966   8.110   8.906
  116PPPE   H9X48507   5.067   8.067   8.889
  116PPPE   H9Y48508   4.900   8.072   8.826
  116PPPE  C31048509   4.912   8.058   9.041
  116PPPE  H10X48510   4.884   7.951   9.029
  116PPPE  H10Y48511   4.821   8.116   9.068
  116PPPE  C31148512   5.015   8.067   9.154
  116PPPE  H11X48513   5.048   0.029   9.164
  116PPPE  H11Y48514   5.103   8.005   9.130
  116PPPE  C31248515   4.958   8.024   9.289
  116PPPE  H12X48516   4.924   7.918   9.285
  116PPPE  H12Y48517   4.870   8.087   9.311
  116PPPE  C31348518   5.060   8.040   9.403
  116PPPE  H13X48519   5.098   0.000   9.404
  116PPPE  H13Y48520   5.147   7.972   9.386
  116PPPE  C31448521   4.998   8.010   9.540
  116PPPE  H14X48522   4.964   7.904   9.543
  116PPPE  H14Y48523   4.908   8.074   9.552
  116PPPE  C31548524   5.090   8.036   9.659
  116PPPE  H15X48525   5.126   8.141   9.656
  116PPPE  H15Y48526   5.179   7.969   9.651
  116PPPE  C31648527   5.020   8.010   9.793
  116PPPE  H16X48528   5.090   8.024   9.878
  116PPPE  H16Y48529   4.935   8.080   9.806
  116PPPE  H16Z48530   4.980   7.907   9.796
  117PPPE     N48531   8.000   4.796   7.884
  117PPPE   HN148532   7.956   4.822   7.975
  117PPPE   HN248533   7.945   4.829   7.803
  117PPPE   HN348534   8.009   4.693   7.880
  117PPPE   C1248535   8.143   4.842   7.875
  117PPPE  H12A48536   0.009   4.940   7.928
  117PPPE  H12B48537   0.022   4.856   7.767
  117PPPE   C1148538   0.089   4.733   7.935
  117PPPE  H11A48539   0.087   4.743   8.046
  117PPPE  H11B48540   0.195   4.748   7.905
  117PPPE     P48541   0.065   4.539   7.759
  117PPPE   O1348542   8.128   4.617   7.662
  117PPPE   O1448543   0.209   4.531   7.726
  117PPPE   O1148544   0.000   4.396   7.770
  117PPPE   O1248545   0.042   4.602   7.902
  117PPPE    C148546   8.001   4.382   7.762
  117PPPE    HA48547   7.978   4.308   7.682
  117PPPE    HB48548   7.947   4.475   7.734
  117PPPE    C248549   7.934   4.329   7.892
  117PPPE    HS48550   7.833   4.298   7.859
  117PPPE   O2148551   7.927   4.438   7.988
  117PPPE   C2148552   7.832   4.421   8.078
  117PPPE   O2248553   7.741   4.338   8.070
  117PPPE   C2248554   7.841   4.528   8.187
  117PPPE   H2R48555   7.787   4.485   8.275
  117PPPE   H2S48556   7.784   4.616   8.152
  117PPPE    C348557   8.004   4.202   7.952
  117PPPE    HX48558   7.930   4.144   8.011
  117PPPE    HY48559   8.031   4.136   7.867
  117PPPE   O3148560   8.125   4.232   8.026
  117PPPE   C3148561   8.108   4.239   8.158
  117PPPE   O3248562   8.002   4.220   8.216
  117PPPE   C3248563   0.093   4.284   8.226
  117PPPE   H2X48564   0.115   4.387   8.191
  117PPPE   H2Y48565   0.176   4.216   8.195
  117PPPE   C2348566   7.980   4.572   8.238
  117PPPE   H3R48567   8.044   4.612   8.157
  117PPPE   H3S48568   8.031   4.484   8.282
  117PPPE   C2448569   7.961   4.676   8.350
  117PPPE   H4R48570   7.879   4.639   8.415
  117PPPE   H4S48571   7.928   4.773   8.308
  117PPPE   C2548572   8.084   4.697   8.439
  117PPPE   H5R48573   0.019   4.749   8.381
  117PPPE   H5S48574   8.125   4.598   8.471
  117PPPE   C2648575   8.054   4.778   8.567
  117PPPE   H6R48576   7.999   4.871   8.541
  117PPPE   H6S48577   0.006   4.808   8.613
  117PPPE   C2748578   7.973   4.698   8.672
  117PPPE   H7R48579   8.028   4.606   8.698
  117PPPE   H7S48580   7.876   4.667   8.627
  117PPPE   C2848581   7.941   4.778   8.800
  117PPPE   H8R48582   7.871   4.717   8.860
  117PPPE   H8S48583   7.887   4.871   8.771
  117PPPE   C2948584   8.062   4.810   8.884
  117PPPE   H9148585   0.012   4.762   8.853
  117PPPE  C21048586   8.062   4.889   8.994
  117PPPE  H10148587   0.011   4.902   9.050
  117PPPE  C21148588   7.942   4.960   9.052
  117PPPE  H11R48589   7.864   4.976   8.975
  117PPPE  H11S48590   7.970   5.060   9.090
  117PPPE  C21248591   7.877   4.880   9.166
  117PPPE  H12R48592   7.860   4.775   9.132
  117PPPE  H12S48593   7.777   4.923   9.189
  117PPPE  C21348594   7.957   4.876   9.298
  117PPPE  H13R48595   8.066   4.882   9.278
  117PPPE  H13S48596   7.936   4.779   9.347
  117PPPE  C21448597   7.916   4.986   9.398
  117PPPE  H14R48598   7.806   4.985   9.410
  117PPPE  H14S48599   7.945   5.086   9.358
  117PPPE  C21548600   7.980   4.965   9.536
  117PPPE  H15R48601   8.090   4.977   9.527
  117PPPE  H15S48602   7.960   4.860   9.568
  117PPPE  C21648603   7.927   5.060   9.643
  117PPPE  H16R48604   7.948   5.165   9.617
  117PPPE  H16S48605   7.817   5.048   9.655
  117PPPE  H16T48606   7.974   5.038   9.741
  117PPPE   C3348607   0.079   4.283   8.380
  117PPPE   H3X48608   0.094   4.180   8.419
  117PPPE   H3Y48609   8.121   4.315   8.411
  117PPPE   C3448610   0.176   4.378   8.451
  117PPPE   H4X48611   0.159   4.483   8.417
  117PPPE   H4Y48612   0.281   4.351   8.425
  117PPPE   C3548613   0.159   4.370   8.604
  117PPPE   H5X48614   0.183   4.266   8.636
  117PPPE   H5Y48615   0.053   4.390   8.630
  117PPPE   C3648616   0.249   4.468   8.681
  117PPPE   H6X48617   0.214   4.572   8.663
  117PPPE   H6Y48618   0.352   4.460   8.641
  117PPPE   C3748619   0.252   4.439   8.832
  117PPPE   H7X48620   0.323   4.510   8.880
  117PPPE   H7Y48621   0.291   4.337   8.848
  117PPPE   C3848622   0.116   4.450   8.901
  117PPPE   H8X48623   0.049   4.369   8.864
  117PPPE   H8Y48624   0.069   4.547   8.876
  117PPPE   C3948625   0.128   4.439   9.054
  117PPPE   H9X48626   0.191   4.523   9.091
  117PPPE   H9Y48627   0.180   4.344   9.080
  117PPPE  C31048628   8.135   4.441   9.125
  117PPPE  H10X48629   8.082   4.346   9.102
  117PPPE  H10Y48630   8.074   4.525   9.083
  117PPPE  C31148631   0.001   4.459   9.277
  117PPPE  H11X48632   0.067   4.382   9.322
  117PPPE  H11Y48633   8.043   4.443   9.319
  117PPPE  C31248634   0.047   4.600   9.319
  117PPPE  H12X48635   8.140   4.673   9.253
  117PPPE  H12Y48636   0.157   4.611   9.302
  117PPPE  C31348637   0.013   4.635   9.465
  117PPPE  H13X48638   8.051   4.608   9.483
  117PPPE  H13Y48639   0.022   4.745   9.479
  117PPPE  C31448640   0.103   4.566   9.569
  117PPPE  H14X48641   0.183   4.635   9.603
  117PPPE  H14Y48642   0.153   4.479   9.520
  117PPPE  C31548643   0.026   4.512   9.690
  117PPPE  H15X48644   0.097   4.457   9.756
  117PPPE  H15Y48645   8.097   4.438   9.654
  117PPPE  C31648646   8.097   4.618   9.773
  117PPPE  H16X48647   8.043   4.570   9.858
  117PPPE  H16Y48648   0.026   4.691   9.816
  117PPPE  H16Z48649   8.023   4.673   9.712
  118PPPE     N48650   7.368   6.192   7.721
  118PPPE   HN148651   7.440   6.261   7.750
  118PPPE   HN248652   7.283   6.245   7.690
  118PPPE   HN348653   7.342   6.140   7.808
  118PPPE   C1248654   7.421   6.100   7.616
  118PPPE  H12A48655   7.470   6.162   7.537
  118PPPE  H12B48656   7.335   6.044   7.572
  118PPPE   C1148657   7.523   6.005   7.678
  118PPPE  H11A48658   7.554   5.933   7.600
  118PPPE  H11B48659   7.476   5.949   7.761
  118PPPE     P48660   7.754   6.003   7.791
  118PPPE   O1348661   7.768   5.876   7.716
  118PPPE   O1448662   7.871   6.093   7.790
  118PPPE   O1148663   7.701   5.977   7.938
  118PPPE   O1248664   7.634   6.082   7.725
  118PPPE    C148665   7.645   6.082   8.019
  118PPPE    HA48666   7.587   6.038   8.102
  118PPPE    HB48667   7.575   6.145   7.961
  118PPPE    C248668   7.754   6.175   8.082
  118PPPE    HS48669   7.836   6.184   8.007
  118PPPE   O2148670   7.803   6.116   8.204
  118PPPE   C2148671   7.917   6.173   8.246
  118PPPE   O2248672   7.985   6.249   8.180
  118PPPE   C2248673   7.942   6.128   8.390
  118PPPE   H2R48674   7.967   6.020   8.388
  118PPPE   H2S48675   7.849   6.141   8.449
  118PPPE    C348676   7.699   6.319   8.107
  118PPPE    HX48677   7.787   6.387   8.120
  118PPPE    HY48678   7.647   6.352   8.015
  118PPPE   O3148679   7.606   6.323   8.217
  118PPPE   C3148680   7.652   6.381   8.328
  118PPPE   O3248681   7.754   6.447   8.335
  118PPPE   C3248682   7.564   6.346   8.447
  118PPPE   H2X48683   7.466   6.398   8.438
  118PPPE   H2Y48684   7.616   6.384   8.538
  118PPPE   C2348685   8.056   6.205   8.459
  118PPPE   H3R48686   8.022   6.307   8.489
  118PPPE   H3S48687   8.142   6.217   8.389
  118PPPE   C2448688   8.110   6.130   8.582
  118PPPE   H4R48689   0.053   6.186   8.621
  118PPPE   H4S48690   0.003   6.031   8.548
  118PPPE   C2548691   8.010   6.108   8.697
  118PPPE   H5R48692   8.048   6.025   8.760
  118PPPE   H5S48693   7.910   6.079   8.659
  118PPPE   C2648694   7.999   6.232   8.787
  118PPPE   H6R48695   7.968   6.319   8.725
  118PPPE   H6S48696   8.100   6.254   8.828
  118PPPE   C2748697   7.902   6.220   8.906
  118PPPE   H7R48698   7.800   6.208   8.863
  118PPPE   H7S48699   7.903   6.314   8.963
  118PPPE   C2848700   7.928   6.102   9.002
  118PPPE   H8R48701   7.917   6.006   8.948
  118PPPE   H8S48702   7.848   6.104   9.079
  118PPPE   C2948703   8.063   6.109   9.068
  118PPPE   H9148704   8.140   6.046   9.022
  118PPPE  C21048705   8.095   6.181   9.177
  118PPPE  H10148706   0.053   6.172   9.216
  118PPPE  C21148707   8.004   6.271   9.258
  118PPPE  H11R48708   7.898   6.262   9.227
  118PPPE  H11S48709   8.034   6.377   9.246
  118PPPE  C21248710   8.015   6.234   9.407
  118PPPE  H12R48711   8.118   6.252   9.444
  118PPPE  H12S48712   7.994   6.126   9.419
  118PPPE  C21348713   7.918   6.311   9.498
  118PPPE  H13R48714   7.814   6.305   9.458
  118PPPE  H13S48715   7.947   6.418   9.500
  118PPPE  C21448716   7.919   6.255   9.641
  118PPPE  H14R48717   8.025   6.246   9.673
  118PPPE  H14S48718   7.877   6.152   9.642
  118PPPE  C21548719   7.843   6.340   9.744
  118PPPE  H15R48720   7.860   6.448   9.725
  118PPPE  H15S48721   7.886   6.317   9.844
  118PPPE  C21648722   7.694   6.309   9.751
  118PPPE  H16R48723   7.677   6.202   9.779
  118PPPE  H16S48724   7.646   6.372   9.829
  118PPPE  H16T48725   7.644   6.328   9.653
  118PPPE   C3348726   7.548   6.194   8.453
  118PPPE   H3X48727   7.644   6.143   8.434
  118PPPE   H3Y48728   7.478   6.161   8.373
  118PPPE   C3448729   7.496   6.142   8.587
  118PPPE   H4X48730   7.492   6.032   8.574
  118PPPE   H4Y48731   7.393   6.180   8.604
  118PPPE   C3548732   7.584   6.169   8.711
  118PPPE   H5X48733   7.682   6.211   8.681
  118PPPE   H5Y48734   7.604   6.070   8.758
  118PPPE   C3648735   7.515   6.257   8.816
  118PPPE   H6X48736   7.405   6.242   8.810
  118PPPE   H6Y48737   7.535   6.364   8.795
  118PPPE   C3748738   7.556   6.224   8.961
  118PPPE   H7X48739   7.613   6.309   9.004
  118PPPE   H7Y48740   7.623   6.135   8.962
  118PPPE   C3848741   7.436   6.192   9.052
  118PPPE   H8X48742   7.385   6.101   9.015
  118PPPE   H8Y48743   7.364   6.276   9.045
  118PPPE   C3948744   7.474   6.174   9.200
  118PPPE   H9X48745   7.379   6.159   9.257
  118PPPE   H9Y48746   7.522   6.266   9.238
  118PPPE  C31048747   7.564   6.053   9.230
  118PPPE  H10X48748   7.656   6.056   9.169
  118PPPE  H10Y48749   7.509   5.960   9.202
  118PPPE  C31148750   7.604   6.044   9.379
  118PPPE  H11X48751   7.517   6.071   9.442
  118PPPE  H11Y48752   7.685   6.118   9.400
  118PPPE  C31248753   7.651   5.903   9.417
  118PPPE  H12X48754   7.730   5.872   9.346
  118PPPE  H12Y48755   7.564   5.834   9.405
  118PPPE  C31348756   7.704   5.889   9.560
  118PPPE  H13X48757   7.670   5.792   9.603
  118PPPE  H13Y48758   7.664   5.970   9.624
  118PPPE  C31448759   7.857   5.888   9.565
  118PPPE  H14X48760   7.894   5.981   9.515
  118PPPE  H14Y48761   7.897   5.802   9.507
  118PPPE  C31548762   7.912   5.883   9.708
  118PPPE  H15X48763   7.885   5.785   9.753
  118PPPE  H15Y48764   7.863   5.962   9.768
  118PPPE  C31648765   8.063   5.901   9.715
  118PPPE  H16X48766   8.114   5.823   9.655
  118PPPE  H16Y48767   8.093   6.001   9.676
  118PPPE  H16Z48768   8.098   5.893   9.820
  119PPPE     N48769   6.219   0.426   7.608
  119PPPE   HN148770   6.246   0.492   7.531
  119PPPE   HN248771   6.207   0.486   7.692
  119PPPE   HN348772   6.294   0.357   7.625
  119PPPE   C1248773   6.086   0.362   7.582
  119PPPE  H12A48774   6.096   0.253   7.604
  119PPPE  H12B48775   6.059   0.377   7.476
  119PPPE   C1148776   5.979   0.422   7.675
  119PPPE  H11A48777   5.884   0.367   7.662
  119PPPE  H11B48778   5.958   0.527   7.645
  119PPPE     P48779   6.070   0.538   7.891
  119PPPE   O1348780   6.108   0.499   8.028
  119PPPE   O1448781   6.173   0.599   7.804
  119PPPE   O1148782   5.936   0.624   7.890
  119PPPE   O1248783   6.021   0.410   7.811
  119PPPE    C148784   5.819   0.569   7.951
  119PPPE    HA48785   5.835   0.472   8.003
  119PPPE    HB48786   5.743   0.550   7.872
  119PPPE    C248787   5.757   0.665   8.056
  119PPPE    HS48788   5.739   0.764   8.007
  119PPPE   O2148789   5.843   0.678   8.170
  119PPPE   C2148790   5.935   0.772   8.162
  119PPPE   O2248791   5.953   0.848   8.067
  119PPPE   C2248792   5.997   0.791   8.300
  119PPPE   H2R48793   5.914   0.825   8.365
  119PPPE   H2S48794   6.074   0.871   8.295
  119PPPE    C348795   5.621   0.611   8.105
  119PPPE    HX48796   5.554   0.597   8.017
  119PPPE    HY48797   5.640   0.510   8.146
  119PPPE   O3148798   5.556   0.702   8.197
  119PPPE   C3148799   5.546   0.655   8.323
  119PPPE   O3248800   5.602   0.557   8.366
  119PPPE   C3248801   5.441   0.738   8.397
  119PPPE   H2X48802   5.346   0.726   8.341
  119PPPE   H2Y48803   5.470   0.845   8.395
  119PPPE   C2348804   6.056   0.663   8.365
  119PPPE   H3R48805   6.162   0.652   8.335
  119PPPE   H3S48806   6.001   0.573   8.331
  119PPPE   C2448807   6.042   0.671   8.518
  119PPPE   H4R48808   5.934   0.671   8.544
  119PPPE   H4S48809   6.085   0.768   8.553
  119PPPE   C2548810   6.111   0.556   8.592
  119PPPE   H5R48811   6.221   0.568   8.581
  119PPPE   H5S48812   6.083   0.460   8.544
  119PPPE   C2648813   6.075   0.550   8.741
  119PPPE   H6R48814   6.139   0.472   8.788
  119PPPE   H6S48815   5.970   0.518   8.753
  119PPPE   C2748816   6.093   0.684   8.814
  119PPPE   H7R48817   6.017   0.756   8.777
  119PPPE   H7S48818   6.192   0.727   8.788
  119PPPE   C2848819   6.079   0.677   8.967
  119PPPE   H8R48820   5.971   0.659   8.987
  119PPPE   H8S48821   6.104   0.777   9.008
  119PPPE   C2948822   6.162   0.574   9.041
  119PPPE   H9148823   6.256   0.543   8.992
  119PPPE  C21048824   6.129   0.523   9.161
  119PPPE  H10148825   6.194   0.449   9.209
  119PPPE  C21148826   6.005   0.562   9.238
  119PPPE  H11R48827   5.926   0.485   9.225
  119PPPE  H11S48828   5.962   0.657   9.201
  119PPPE  C21248829   6.027   0.582   9.390
  119PPPE  H12R48830   5.948   0.651   9.425
  119PPPE  H12S48831   6.125   0.631   9.410
  119PPPE  C21348832   6.015   0.451   9.470
  119PPPE  H13R48833   6.094   0.379   9.438
  119PPPE  H13S48834   5.916   0.406   9.447
  119PPPE  C21448835   6.023   0.470   9.623
  119PPPE  H14R48836   6.125   0.500   9.653
  119PPPE  H14S48837   6.000   0.373   9.671
  119PPPE  C21548838   5.923   0.575   9.674
  119PPPE  H15R48839   5.827   0.559   9.621
  119PPPE  H15S48840   5.960   0.677   9.647
  119PPPE  C21648841   5.896   0.571   9.825
  119PPPE  H16R48842   5.849   0.474   9.852
  119PPPE  H16S48843   5.991   0.583   9.882
  119PPPE  H16T48844   5.827   0.652   9.855
  119PPPE   C3348845   5.418   0.689   8.542
  119PPPE   H3X48846   5.427   0.579   8.553
  119PPPE   H3Y48847   5.312   0.714   8.568
  119PPPE   C3448848   5.508   0.759   8.645
  119PPPE   H4X48849   5.513   0.867   8.620
  119PPPE   H4Y48850   5.612   0.720   8.639
  119PPPE   C3548851   5.453   0.747   8.788
  119PPPE   H5X48852   5.342   0.738   8.784
  119PPPE   H5Y48853   5.474   0.841   8.844
  119PPPE   C3648854   5.508   0.628   8.868
  119PPPE   H6X48855   5.498   0.535   8.807
  119PPPE   H6Y48856   5.446   0.614   8.959
  119PPPE   C3748857   5.654   0.643   8.913
  119PPPE   H7X48858   5.720   0.638   8.823
  119PPPE   H7Y48859   5.681   0.556   8.977
  119PPPE   C3848860   5.687   0.774   8.987
  119PPPE   H8X48861   5.678   0.857   8.914
  119PPPE   H8Y48862   5.793   0.771   9.020
  119PPPE   C3948863   5.601   0.811   9.109
  119PPPE   H9X48864   5.497   0.772   9.100
  119PPPE   H9Y48865   5.593   0.922   9.112
  119PPPE  C31048866   5.663   0.770   9.244
  119PPPE  H10X48867   5.608   0.820   9.326
  119PPPE  H10Y48868   5.768   0.808   9.248
  119PPPE  C31148869   5.664   0.619   9.270
  119PPPE  H11X48870   5.732   0.598   9.356
  119PPPE  H11Y48871   5.707   0.566   9.182
  119PPPE  C31248872   5.526   0.561   9.303
  119PPPE  H12X48873   5.526   0.451   9.285
  119PPPE  H12Y48874   5.450   0.606   9.235
  119PPPE  C31348875   5.485   0.585   9.449
  119PPPE  H13X48876   5.375   0.576   9.459
  119PPPE  H13Y48877   5.512   0.690   9.476
  119PPPE  C31448878   5.552   0.485   9.545
  119PPPE  H14X48879   5.661   0.480   9.521
  119PPPE  H14Y48880   5.511   0.384   9.526
  119PPPE  C31548881   5.538   0.518   9.694
  119PPPE  H15X48882   5.603   0.447   9.751
  119PPPE  H15Y48883   5.434   0.498   9.727
  119PPPE  C31648884   5.576   0.661   9.733
  119PPPE  H16X48885   5.500   0.734   9.696
  119PPPE  H16Y48886   5.582   0.671   9.843
  119PPPE  H16Z48887   5.674   0.690   9.688
  120PPPE     N48888   7.447   2.087   7.646
  120PPPE   HN148889   7.413   2.096   7.548
  120PPPE   HN248890   7.438   1.987   7.671
  120PPPE   HN348891   7.388   2.144   7.710
  120PPPE   C1248892   7.593   2.122   7.657
  120PPPE  H12A48893   7.609   2.226   7.622
  120PPPE  H12B48894   7.648   2.053   7.589
  120PPPE   C1148895   7.643   2.103   7.801
  120PPPE  H11A48896   7.583   2.027   7.856
  120PPPE  H11B48897   7.632   2.198   7.857
  120PPPE     P48898   7.830   1.921   7.818
  120PPPE   O1348899   7.762   1.837   7.716
  120PPPE   O1448900   7.979   1.924   7.809
  120PPPE   O1148901   7.779   1.886   7.963
  120PPPE   O1248902   7.782   2.069   7.797
  120PPPE    C148903   7.873   1.887   8.071
  120PPPE    HA48904   7.925   1.985   8.078
  120PPPE    HB48905   7.949   1.808   8.054
  120PPPE    C248906   7.813   1.859   8.214
  120PPPE    HS48907   7.744   1.772   8.205
  120PPPE   O2148908   7.743   1.976   8.265
  120PPPE   C2148909   7.657   1.947   8.364
  120PPPE   O2248910   7.633   1.835   8.405
  120PPPE   C2248911   7.583   2.071   8.415
  120PPPE   H2R48912   7.520   2.038   8.500
  120PPPE   H2S48913   7.516   2.105   8.333
  120PPPE    C348914   7.934   1.817   8.304
  120PPPE    HX48915   7.968   1.715   8.273
  120PPPE    HY48916   8.018   1.885   8.278
  120PPPE   O3148917   7.915   1.829   8.447
  120PPPE   C3148918   7.886   1.716   8.510
  120PPPE   O3248919   7.861   1.609   8.456
  120PPPE   C3248920   7.908   1.736   8.660
  120PPPE   H2X48921   7.950   1.837   8.679
  120PPPE   H2Y48922   7.984   1.660   8.689
  120PPPE   C2348923   7.671   2.189   8.461
  120PPPE   H3R48924   7.606   2.276   8.486
  120PPPE   H3S48925   7.735   2.220   8.375
  120PPPE   C2448926   7.762   2.162   8.582
  120PPPE   H4R48927   7.843   2.238   8.577
  120PPPE   H4S48928   7.810   2.062   8.574
  120PPPE   C2548929   7.701   2.180   8.722
  120PPPE   H5R48930   7.633   2.096   8.746
  120PPPE   H5S48931   7.643   2.275   8.728
  120PPPE   C2648932   7.815   2.187   8.825
  120PPPE   H6R48933   7.882   2.272   8.799
  120PPPE   H6S48934   7.872   2.092   8.817
  120PPPE   C2748935   7.778   2.205   8.972
  120PPPE   H7R48936   7.695   2.135   8.996
  120PPPE   H7S48937   7.743   2.308   8.992
  120PPPE   C2848938   7.895   2.169   9.066
  120PPPE   H8R48939   7.970   2.251   9.065
  120PPPE   H8S48940   7.946   2.079   9.027
  120PPPE   C2948941   7.845   2.146   9.206
  120PPPE   H9148942   7.812   2.238   9.259
  120PPPE  C21048943   7.835   2.029   9.271
  120PPPE  H10148944   7.802   2.031   9.376
  120PPPE  C21148945   7.870   1.892   9.220
  120PPPE  H11R48946   7.935   1.897   9.129
  120PPPE  H11S48947   7.777   1.840   9.191
  120PPPE  C21248948   7.940   1.801   9.322
  120PPPE  H12R48949   8.041   1.843   9.342
  120PPPE  H12S48950   7.953   1.701   9.274
  120PPPE  C21348951   7.867   1.780   9.456
  120PPPE  H13R48952   7.873   1.875   9.513
  120PPPE  H13S48953   7.922   1.704   9.516
  120PPPE  C21448954   7.720   1.737   9.445
  120PPPE  H14R48955   7.663   1.812   9.385
  120PPPE  H14S48956   7.678   1.740   9.548
  120PPPE  C21548957   7.696   1.596   9.388
  120PPPE  H15R48958   7.794   1.552   9.360
  120PPPE  H15S48959   7.636   1.604   9.294
  120PPPE  C21648960   7.624   1.501   9.484
  120PPPE  H16R48961   7.636   1.395   9.453
  120PPPE  H16S48962   7.665   1.512   9.587
  120PPPE  H16T48963   7.515   1.521   9.490
  120PPPE   C3348964   7.782   1.713   8.746
  120PPPE   H3X48965   7.735   1.616   8.719
  120PPPE   H3Y48966   7.709   1.794   8.727
  120PPPE   C3448967   7.818   1.709   8.895
  120PPPE   H4X48968   7.854   1.809   8.927
  120PPPE   H4Y48969   7.901   1.638   8.911
  120PPPE   C3548970   7.701   1.666   8.985
  120PPPE   H5X48971   7.734   1.665   9.091
  120PPPE   H5Y48972   7.674   1.562   8.959
  120PPPE   C3648973   7.574   1.752   8.970
  120PPPE   H6X48974   7.495   1.711   9.037
  120PPPE   H6Y48975   7.538   1.742   8.866
  120PPPE   C3748976   7.587   1.903   8.998
  120PPPE   H7X48977   7.671   1.943   8.938
  120PPPE   H7Y48978   7.609   1.919   9.106
  120PPPE   C3848979   7.457   1.976   8.963
  120PPPE   H8X48980   7.378   1.919   9.016
  120PPPE   H8Y48981   7.438   1.966   8.854
  120PPPE   C3948982   7.440   2.125   9.004
  120PPPE   H9X48983   7.337   2.156   8.978
  120PPPE   H9Y48984   7.507   2.190   8.943
  120PPPE  C31048985   7.458   2.154   9.153
  120PPPE  H10X48986   7.553   2.209   9.172
  120PPPE  H10Y48987   7.467   2.057   9.206
  120PPPE  C31148988   7.341   2.232   9.216
  120PPPE  H11X48989   7.247   2.183   9.183
  120PPPE  H11Y48990   7.338   2.337   9.178
  120PPPE  C31248991   7.347   2.230   9.369
  120PPPE  H12X48992   7.408   2.316   9.405
  120PPPE  H12Y48993   7.404   2.138   9.394
  120PPPE  C31348994   7.214   2.221   9.447
  120PPPE  H13X48995   7.133   2.198   9.375
  120PPPE  H13Y48996   7.195   2.320   9.494
  120PPPE  C31448997   7.208   2.111   9.555
  120PPPE  H14X48998   7.311   2.082   9.586
  120PPPE  H14Y48999   7.162   2.021   9.509
  120PPPE  C31549000   7.128   2.140   9.682
  120PPPE  H15X49001   7.058   2.055   9.697
  120PPPE  H15Y49002   7.066   2.231   9.671
  120PPPE  C31649003   7.213   2.151   9.808
  120PPPE  H16X49004   7.257   2.253   9.817
  120PPPE  H16Y49005   7.151   2.133   9.899
  120PPPE  H16Z49006   7.296   2.077   9.808
  121PPPE     N49007   0.193   2.251   7.621
  121PPPE   HN149008   0.253   2.336   7.623
  121PPPE   HN249009   0.237   2.184   7.555
  121PPPE   HN349010   0.098   2.280   7.589
  121PPPE   C1249011   0.189   2.202   7.763
  121PPPE  H12A49012   0.113   2.121   7.772
  121PPPE  H12B49013   0.157   2.288   7.825
  121PPPE   C1149014   0.326   2.150   7.815
  121PPPE  H11A49015   0.339   2.045   7.782
  121PPPE  H11B49016   0.324   2.149   7.927
  121PPPE     P49017   0.451   2.381   7.798
  121PPPE   O1349018   0.593   2.418   7.806
  121PPPE   O1449019   0.370   2.442   7.690
  121PPPE   O1149020   0.376   2.395   7.936
  121PPPE   O1249021   0.439   2.225   7.769
  121PPPE    C149022   0.281   2.501   7.953
  121PPPE    HA49023   0.203   2.499   7.873
  121PPPE    HB49024   0.330   2.600   7.942
  121PPPE    C249025   0.205   2.505   8.091
  121PPPE    HS49026   0.229   2.604   8.135
  121PPPE   O2149027   0.252   2.399   8.179
  121PPPE   C2149028   0.229   2.434   8.308
  121PPPE   O2249029   0.150   2.520   8.343
  121PPPE   C2249030   0.317   2.353   8.404
  121PPPE   H2R49031   0.413   2.333   8.353
  121PPPE   H2S49032   0.266   2.257   8.427
  121PPPE    C349033   0.051   2.498   8.065
  121PPPE    HX49034   8.139   2.493   8.161
  121PPPE    HY49035   0.023   2.596   8.020
  121PPPE   O3149036   0.015   2.394   7.972
  121PPPE   C3149037   8.061   2.310   8.005
  121PPPE   O3249038   7.963   2.291   7.934
  121PPPE   C3249039   8.102   2.218   8.120
  121PPPE   H2X49040   0.055   2.249   8.164
  121PPPE   H2Y49041   8.116   2.118   8.074
  121PPPE   C2349042   0.344   2.432   8.535
  121PPPE   H3R49043   0.250   2.448   8.593
  121PPPE   H3S49044   0.381   2.533   8.508
  121PPPE   C2449045   0.449   2.367   8.626
  121PPPE   H4R49046   0.534   2.335   8.563
  121PPPE   H4S49047   0.407   2.277   8.676
  121PPPE   C2549048   0.504   2.465   8.731
  121PPPE   H5R49049   0.543   2.554   8.676
  121PPPE   H5S49050   0.590   2.420   8.785
  121PPPE   C2649051   0.403   2.514   8.837
  121PPPE   H6R49052   0.312   2.555   8.789
  121PPPE   H6S49053   0.451   2.597   8.894
  121PPPE   C2749054   0.364   2.404   8.937
  121PPPE   H7R49055   0.455   2.359   8.982
  121PPPE   H7S49056   0.312   2.323   8.881
  121PPPE   C2849057   0.269   2.452   9.048
  121PPPE   H8R49058   0.221   2.363   9.095
  121PPPE   H8S49059   0.187   2.510   9.002
  121PPPE   C2949060   0.339   2.536   9.152
  121PPPE   H9149061   0.381   2.630   9.114
  121PPPE  C21049062   0.361   2.505   9.280
  121PPPE  H10149063   0.411   2.579   9.345
  121PPPE  C21149064   0.323   2.377   9.349
  121PPPE  H11R49065   0.406   2.350   9.419
  121PPPE  H11S49066   0.320   2.294   9.275
  121PPPE  C21249067   0.191   2.375   9.430
  121PPPE  H12R49068   0.175   2.474   9.477
  121PPPE  H12S49069   0.204   2.302   9.513
  121PPPE  C21349070   0.070   2.331   9.346
  121PPPE  H13R49071   0.105   2.248   9.281
  121PPPE  H13S49072   0.040   2.412   9.276
  121PPPE  C21449073   8.091   2.277   9.422
  121PPPE  H14R49074   8.116   2.180   9.471
  121PPPE  H14S49075   8.015   2.254   9.344
  121PPPE  C21549076   8.022   2.369   9.523
  121PPPE  H15R49077   7.988   2.462   9.472
  121PPPE  H15S49078   8.096   2.397   9.602
  121PPPE  C21649079   7.900   2.313   9.594
  121PPPE  H16R49080   7.818   2.296   9.521
  121PPPE  H16S49081   7.926   2.217   9.645
  121PPPE  H16T49082   7.864   2.384   9.671
  121PPPE   C3349083   7.994   2.205   8.230
  121PPPE   H3X49084   7.989   2.100   8.265
  121PPPE   H3Y49085   7.893   2.228   8.190
  121PPPE   C3449086   8.023   2.291   8.353
  121PPPE   H4X49087   7.926   2.325   8.395
  121PPPE   H4Y49088   8.080   2.383   8.326
  121PPPE   C3549089   8.098   2.216   8.464
  121PPPE   H5X49090   0.052   2.178   8.428
  121PPPE   H5Y49091   8.037   2.128   8.494
  121PPPE   C3649092   8.118   2.306   8.587
  121PPPE   H6X49093   8.029   2.371   8.595
  121PPPE   H6Y49094   0.061   2.373   8.573
  121PPPE   C3749095   8.127   2.230   8.720
  121PPPE   H7X49096   8.046   2.153   8.722
  121PPPE   H7Y49097   8.108   2.303   8.801
  121PPPE   C3849098   0.113   2.158   8.753
  121PPPE   H8X49099   0.199   2.225   8.732
  121PPPE   H8Y49100   0.124   2.067   8.690
  121PPPE   C3949101   0.115   2.119   8.902
  121PPPE   H9X49102   0.025   2.058   8.927
  121PPPE   H9Y49103   0.107   2.212   8.962
  121PPPE  C31049104   0.240   2.043   8.946
  121PPPE  H10X49105   0.328   2.086   8.893
  121PPPE  H10Y49106   0.231   1.936   8.916
  121PPPE  C31149107   0.270   2.052   9.097
  121PPPE  H11X49108   0.288   2.158   9.124
  121PPPE  H11Y49109   0.364   1.997   9.117
  121PPPE  C31249110   0.160   1.995   9.188
  121PPPE  H12X49111   0.119   1.905   9.137
  121PPPE  H12Y49112   0.074   2.065   9.200
  121PPPE  C31349113   0.212   1.946   9.325
  121PPPE  H13X49114   0.299   1.880   9.302
  121PPPE  H13Y49115   0.132   1.885   9.372
  121PPPE  C31449116   0.265   2.044   9.430
  121PPPE  H14X49117   0.181   2.093   9.483
  121PPPE  H14Y49118   0.326   2.121   9.377
  121PPPE  C31549119   0.360   1.977   9.532
  121PPPE  H15X49120   0.457   2.031   9.529
  121PPPE  H15Y49121   0.382   1.873   9.497
  121PPPE  C31649122   0.314   1.970   9.678
  121PPPE  H16X49123   0.204   1.961   9.685
  121PPPE  H16Y49124   0.360   1.883   9.730
  121PPPE  H16Z49125   0.344   2.061   9.735
  122PPPE     N49126   6.561   0.939   7.862
  122PPPE   HN149127   6.555   0.978   7.766
  122PPPE   HN249128   6.534   1.012   7.931
  122PPPE   HN349129   6.660   0.909   7.879
  122PPPE   C1249130   6.479   0.813   7.874
  122PPPE  H12A49131   6.371   0.840   7.867
  122PPPE  H12B49132   6.497   0.773   7.976
  122PPPE   C1149133   6.516   0.704   7.770
  122PPPE  H11A49134   6.445   0.715   7.685
  122PPPE  H11B49135   6.495   0.604   7.814
  122PPPE     P49136   6.778   0.682   7.806
  122PPPE   O1349137   6.886   0.643   7.714
  122PPPE   O1449138   6.793   0.803   7.890
  122PPPE   O1149139   6.734   0.557   7.892
  122PPPE   O1249140   6.649   0.711   7.719
  122PPPE    C149141   6.776   0.537   8.028
  122PPPE    HA49142   6.870   0.591   8.054
  122PPPE    HB49143   6.798   0.429   8.043
  122PPPE    C249144   6.663   0.577   8.126
  122PPPE    HS49145   6.572   0.586   8.063
  122PPPE   O2149146   6.699   0.703   8.186
  122PPPE   C2149147   6.595   0.773   8.228
  122PPPE   O2249148   6.478   0.741   8.214
  122PPPE   C2249149   6.641   0.910   8.277
  122PPPE   H2R49150   6.595   0.984   8.207
  122PPPE   H2S49151   6.751   0.918   8.268
  122PPPE    C349152   6.628   0.468   8.232
  122PPPE    HX49153   6.526   0.493   8.269
  122PPPE    HY49154   6.618   0.372   8.177
  122PPPE   O3149155   6.727   0.451   8.337
  122PPPE   C3149156   6.676   0.450   8.462
  122PPPE   O3249157   6.561   0.473   8.490
  122PPPE   C3249158   6.786   0.410   8.562
  122PPPE   H2X49159   6.849   0.499   8.582
  122PPPE   H2Y49160   6.848   0.334   8.510
  122PPPE   C2349161   6.591   0.940   8.419
  122PPPE   H3R49162   6.483   0.917   8.430
  122PPPE   H3S49163   6.603   1.049   8.438
  122PPPE   C2449164   6.670   0.867   8.529
  122PPPE   H4R49165   6.648   0.758   8.528
  122PPPE   H4S49166   6.636   0.908   8.626
  122PPPE   C2549167   6.821   0.890   8.519
  122PPPE   H5R49168   6.837   0.994   8.485
  122PPPE   H5S49169   6.866   0.822   8.443
  122PPPE   C2649170   6.894   0.874   8.653
  122PPPE   H6R49171   6.841   0.932   8.732
  122PPPE   H6S49172   6.995   0.917   8.640
  122PPPE   C2749173   6.916   0.730   8.698
  122PPPE   H7R49174   6.966   0.676   8.615
  122PPPE   H7S49175   6.817   0.682   8.716
  122PPPE   C2849176   7.006   0.718   8.822
  122PPPE   H8R49177   7.096   0.782   8.806
  122PPPE   H8S49178   7.044   0.614   8.827
  122PPPE   C2949179   6.942   0.754   8.953
  122PPPE   H9149180   6.892   0.852   8.955
  122PPPE  C21049181   6.943   0.680   9.065
  122PPPE  H10149182   6.896   0.721   9.156
  122PPPE  C21149183   7.009   0.545   9.084
  122PPPE  H11R49184   7.116   0.558   9.109
  122PPPE  H11S49185   7.004   0.485   8.991
  122PPPE  C21249186   6.942   0.463   9.196
  122PPPE  H12R49187   6.978   0.358   9.187
  122PPPE  H12S49188   6.832   0.461   9.183
  122PPPE  C21349189   6.978   0.510   9.338
  122PPPE  H13R49190   6.946   0.615   9.353
  122PPPE  H13S49191   7.088   0.506   9.350
  122PPPE  C21449192   6.913   0.423   9.447
  122PPPE  H14R49193   6.933   0.316   9.424
  122PPPE  H14S49194   6.803   0.437   9.446
  122PPPE  C21549195   6.967   0.453   9.587
  122PPPE  H15R49196   6.953   0.560   9.610
  122PPPE  H15S49197   7.077   0.433   9.588
  122PPPE  C21649198   6.901   0.369   9.697
  122PPPE  H16R49199   6.793   0.392   9.704
  122PPPE  H16S49200   6.913   0.260   9.675
  122PPPE  H16T49201   6.948   0.389   9.796
  122PPPE   C3349202   6.741   0.347   8.697
  122PPPE   H3X49203   6.824   0.281   8.733
  122PPPE   H3Y49204   6.652   0.281   8.683
  122PPPE   C3449205   6.713   0.445   8.813
  122PPPE   H4X49206   6.804   0.503   8.835
  122PPPE   H4Y49207   6.689   0.387   8.905
  122PPPE   C3549208   6.595   0.539   8.785
  122PPPE   H5X49209   6.502   0.480   8.771
  122PPPE   H5Y49210   6.615   0.594   8.690
  122PPPE   C3649211   6.572   0.647   8.892
  122PPPE   H6X49212   6.669   0.699   8.910
  122PPPE   H6Y49213   6.538   0.601   8.986
  122PPPE   C3749214   6.469   0.749   8.840
  122PPPE   H7X49215   6.386   0.688   8.800
  122PPPE   H7Y49216   6.512   0.803   8.753
  122PPPE   C3849217   6.412   0.851   8.939
  122PPPE   H8X49218   6.360   0.799   9.022
  122PPPE   H8Y49219   6.333   0.907   8.885
  122PPPE   C3949220   6.511   0.957   8.994
  122PPPE   H9X49221   6.450   1.038   9.040
  122PPPE   H9Y49222   6.567   1.002   8.909
  122PPPE  C31049223   6.610   0.909   9.101
  122PPPE  H10X49224   6.667   0.996   9.140
  122PPPE  H10Y49225   6.685   0.841   9.054
  122PPPE  C31149226   6.546   0.834   9.219
  122PPPE  H11X49227   6.479   0.754   9.182
  122PPPE  H11Y49228   6.484   0.906   9.278
  122PPPE  C31249229   6.649   0.766   9.308
  122PPPE  H12X49230   6.716   0.842   9.354
  122PPPE  H12Y49231   6.712   0.699   9.245
  122PPPE  C31349232   6.586   0.677   9.417
  122PPPE  H13X49233   6.668   0.629   9.476
  122PPPE  H13Y49234   6.529   0.596   9.368
  122PPPE  C31449235   6.493   0.752   9.513
  122PPPE  H14X49236   6.458   0.681   9.591
  122PPPE  H14Y49237   6.402   0.787   9.458
  122PPPE  C31549238   6.557   0.873   9.583
  122PPPE  H15X49239   6.482   0.912   9.655
  122PPPE  H15Y49240   6.576   0.953   9.509
  122PPPE  C31649241   6.687   0.841   9.656
  122PPPE  H16X49242   6.719   0.928   9.719
  122PPPE  H16Y49243   6.675   0.753   9.723
  122PPPE  H16Z49244   6.768   0.819   9.584
  123PPPE     N49245   0.538   6.812   7.561
  123PPPE   HN149246   0.460   6.808   7.630
  123PPPE   HN249247   0.595   6.897   7.583
  123PPPE   HN349248   0.499   6.820   7.465
  123PPPE   C1249249   0.608   6.681   7.585
  123PPPE  H12A49250   0.698   6.702   7.648
  123PPPE  H12B49251   0.641   6.642   7.487
  123PPPE   C1149252   0.512   6.584   7.657
  123PPPE  H11A49253   0.572   6.524   7.730
  123PPPE  H11B49254   0.471   6.512   7.583
  123PPPE     P49255   0.349   6.619   7.865
  123PPPE   O1349256   0.229   6.704   7.878
  123PPPE   O1449257   0.330   6.473   7.867
  123PPPE   O1149258   0.466   6.670   7.960
  123PPPE   O1249259   0.404   6.654   7.719
  123PPPE    C149260   0.552   6.775   7.913
  123PPPE    HA49261   0.494   6.856   7.864
  123PPPE    HB49262   0.624   6.734   7.839
  123PPPE    C249263   0.644   6.845   8.018
  123PPPE    HS49264   0.720   6.904   7.963
  123PPPE   O2149265   0.710   6.752   8.106
  123PPPE   C2149266   0.783   6.654   8.061
  123PPPE   O2249267   0.800   6.622   7.945
  123PPPE   C2249268   0.856   6.592   8.182
  123PPPE   H2R49269   0.934   6.665   8.212
  123PPPE   H2S49270   0.906   6.499   8.147
  123PPPE    C349271   0.563   6.945   8.105
  123PPPE    HX49272   0.624   7.036   8.122
  123PPPE    HY49273   0.473   6.975   8.047
  123PPPE   O3149274   0.532   6.886   8.233
  123PPPE   C3149275   0.414   6.912   8.283
  123PPPE   O3249276   0.340   7.003   8.247
  123PPPE   C3249277   0.384   6.804   8.385
  123PPPE   H2X49278   0.302   6.840   8.450
  123PPPE   H2Y49279   0.474   6.788   8.449
  123PPPE   C2349280   0.767   6.563   8.305
  123PPPE   H3R49281   0.696   6.481   8.282
  123PPPE   H3S49282   0.707   6.653   8.332
  123PPPE   C2449283   0.851   6.526   8.429
  123PPPE   H4R49284   0.915   6.612   8.457
  123PPPE   H4S49285   0.919   6.442   8.401
  123PPPE   C2549286   0.770   6.484   8.552
  123PPPE   H5R49287   0.835   6.425   8.620
  123PPPE   H5S49288   0.684   6.420   8.522
  123PPPE   C2649289   0.720   6.604   8.633
  123PPPE   H6R49290   0.655   6.667   8.569
  123PPPE   H6S49291   0.807   6.666   8.663
  123PPPE   C2749292   0.642   6.567   8.761
  123PPPE   H7R49293   0.703   6.500   8.826
  123PPPE   H7S49294   0.550   6.512   8.731
  123PPPE   C2849295   0.607   6.695   8.838
  123PPPE   H8R49296   0.578   6.765   8.756
  123PPPE   H8S49297   0.700   6.733   8.884
  123PPPE   C2949298   0.492   6.701   8.935
  123PPPE   H9149299   0.395   6.715   8.885
  123PPPE  C21049300   0.492   6.702   9.069
  123PPPE  H10149301   0.394   6.714   9.119
  123PPPE  C21149302   0.604   6.697   9.169
  123PPPE  H11R49303   0.702   6.727   9.126
  123PPPE  H11S49304   0.614   6.593   9.208
  123PPPE  C21249305   0.568   6.789   9.288
  123PPPE  H12R49306   0.459   6.789   9.310
  123PPPE  H12S49307   0.593   6.893   9.257
  123PPPE  C21349308   0.640   6.754   9.418
  123PPPE  H13R49309   0.738   6.709   9.392
  123PPPE  H13S49310   0.582   6.678   9.474
  123PPPE  C21449311   0.670   6.875   9.508
  123PPPE  H14R49312   0.703   6.956   9.440
  123PPPE  H14S49313   0.756   6.851   9.574
  123PPPE  C21549314   0.556   6.928   9.595
  123PPPE  H15R49315   0.458   6.912   9.545
  123PPPE  H15S49316   0.569   7.038   9.606
  123PPPE  C21649317   0.552   6.870   9.737
  123PPPE  H16R49318   0.649   6.887   9.788
  123PPPE  H16S49319   0.474   6.919   9.798
  123PPPE  H16T49320   0.533   6.761   9.733
  123PPPE   C3349321   0.346   6.670   8.316
  123PPPE   H3X49322   0.438   6.615   8.288
  123PPPE   H3Y49323   0.291   6.691   8.221
  123PPPE   C3449324   0.255   6.583   8.403
  123PPPE   H4X49325   0.224   6.492   8.347
  123PPPE   H4Y49326   0.163   6.642   8.425
  123PPPE   C3549327   0.318   6.541   8.536
  123PPPE   H5X49328   0.364   6.630   8.585
  123PPPE   H5Y49329   0.400   6.468   8.518
  123PPPE   C3649330   0.215   6.482   8.633
  123PPPE   H6X49331   0.178   6.385   8.594
  123PPPE   H6Y49332   0.129   6.552   8.638
  123PPPE   C3749333   0.270   6.467   8.776
  123PPPE   H7X49334   0.284   6.569   8.818
  123PPPE   H7Y49335   0.368   6.416   8.772
  123PPPE   C3849336   0.179   6.388   8.871
  123PPPE   H8X49337   0.167   6.286   8.828
  123PPPE   H8Y49338   0.078   6.433   8.875
  123PPPE   C3949339   0.237   6.372   9.012
  123PPPE   H9X49340   0.346   6.350   9.004
  123PPPE   H9Y49341   0.188   6.287   9.063
  123PPPE  C31049342   0.217   6.492   9.106
  123PPPE  H10X49343   0.109   6.506   9.126
  123PPPE  H10Y49344   0.253   6.583   9.054
  123PPPE  C31149345   0.289   6.474   9.240
  123PPPE  H11X49346   0.316   6.574   9.280
  123PPPE  H11Y49347   0.383   6.417   9.227
  123PPPE  C31249348   0.198   6.405   9.343
  123PPPE  H12X49349   0.183   6.299   9.312
  123PPPE  H12Y49350   0.099   6.455   9.343
  123PPPE  C31349351   0.250   6.405   9.488
  123PPPE  H13X49352   0.173   6.355   9.551
  123PPPE  H13Y49353   0.261   6.508   9.526
  123PPPE  C31449354   0.383   6.333   9.508
  123PPPE  H14X49355   0.460   6.380   9.444
  123PPPE  H14Y49356   0.369   6.228   9.474
  123PPPE  C31549357   0.431   6.335   9.654
  123PPPE  H15X49358   0.409   6.435   9.698
  123PPPE  H15Y49359   0.541   6.322   9.653
  123PPPE  C31649360   0.377   6.224   9.744
  123PPPE  H16X49361   0.270   6.201   9.722
  123PPPE  H16Y49362   0.435   6.131   9.731
  123PPPE  H16Z49363   0.386   6.255   9.851
  124PPPE     N49364   7.464   1.043   8.027
  124PPPE   HN149365   7.475   1.139   8.068
  124PPPE   HN249366   7.395   1.048   7.950
  124PPPE   HN349367   7.435   0.974   8.098
  124PPPE   C1249368   7.591   1.005   7.957
  124PPPE  H12A49369   7.645   0.930   8.019
  124PPPE  H12B49370   7.653   1.096   7.947
  124PPPE   C1149371   7.555   0.949   7.818
  124PPPE  H11A49372   7.512   0.847   7.830
  124PPPE  H11B49373   7.649   0.936   7.759
  124PPPE     P49374   7.504   1.159   7.669
  124PPPE   O1349375   7.626   1.129   7.592
  124PPPE   O1449376   7.387   1.208   7.591
  124PPPE   O1149377   7.532   1.258   7.789
  124PPPE   O1249378   7.459   1.031   7.751
  124PPPE    C149379   7.418   1.314   7.857
  124PPPE    HA49380   7.346   1.235   7.888
  124PPPE    HB49381   7.363   1.383   7.789
  124PPPE    C249382   7.457   1.397   7.983
  124PPPE    HS49383   7.503   1.489   7.943
  124PPPE   O2149384   7.548   1.324   8.070
  124PPPE   C2149385   7.611   1.410   8.154
  124PPPE   O2249386   7.606   1.531   8.144
  124PPPE   C2249387   7.686   1.336   8.264
  124PPPE   H2R49388   7.728   1.414   8.332
  124PPPE   H2S49389   7.771   1.282   8.217
  124PPPE    C349390   7.329   1.434   8.063
  124PPPE    HX49391   7.358   1.510   8.140
  124PPPE    HY49392   7.256   1.484   7.996
  124PPPE   O3149393   7.276   1.318   8.132
  124PPPE   C3149394   7.157   1.273   8.095
  124PPPE   O3249395   7.092   1.315   8.000
  124PPPE   C3249396   7.115   1.154   8.182
  124PPPE   H2X49397   7.104   1.067   8.113
  124PPPE   H2Y49398   7.014   1.176   8.223
  124PPPE   C2349399   7.599   1.239   8.347
  124PPPE   H3R49400   7.555   1.163   8.279
  124PPPE   H3S49401   7.516   1.293   8.397
  124PPPE   C2449402   7.681   1.164   8.454
  124PPPE   H4R49403   7.780   1.138   8.410
  124PPPE   H4S49404   7.631   1.068   8.480
  124PPPE   C2549405   7.703   1.243   8.584
  124PPPE   H5R49406   7.698   1.353   8.566
  124PPPE   H5S49407   7.806   1.221   8.620
  124PPPE   C2649408   7.609   1.202   8.698
  124PPPE   H6R49409   7.616   1.091   8.710
  124PPPE   H6S49410   7.504   1.227   8.674
  124PPPE   C2749411   7.648   1.265   8.833
  124PPPE   H7R49412   7.611   1.370   8.835
  124PPPE   H7S49413   7.759   1.269   8.841
  124PPPE   C2849414   7.593   1.185   8.952
  124PPPE   H8R49415   7.643   1.085   8.953
  124PPPE   H8S49416   7.485   1.167   8.935
  124PPPE   C2949417   7.613   1.253   9.085
  124PPPE   H9149418   7.680   1.340   9.085
  124PPPE  C21049419   7.555   1.214   9.200
  124PPPE  H10149420   7.575   1.270   9.292
  124PPPE  C21149421   7.462   1.096   9.215
  124PPPE  H11R49422   7.491   1.013   9.147
  124PPPE  H11S49423   7.359   1.126   9.189
  124PPPE  C21249424   7.459   1.039   9.359
  124PPPE  H12R49425   7.563   1.024   9.396
  124PPPE  H12S49426   7.410   0.940   9.357
  124PPPE  C21349427   7.381   1.129   9.455
  124PPPE  H13R49428   7.276   1.134   9.421
  124PPPE  H13S49429   7.424   1.232   9.451
  124PPPE  C21449430   7.381   1.080   9.600
  124PPPE  H14R49431   7.486   1.058   9.630
  124PPPE  H14S49432   7.326   0.983   9.606
  124PPPE  C21549433   7.321   1.179   9.701
  124PPPE  H15R49434   7.331   1.136   9.803
  124PPPE  H15S49435   7.212   1.190   9.680
  124PPPE  C21649436   7.383   1.320   9.700
  124PPPE  H16R49437   7.494   1.314   9.694
  124PPPE  H16S49438   7.346   1.378   9.613
  124PPPE  H16T49439   7.356   1.374   9.793
  124PPPE   C3349440   7.213   1.115   8.296
  124PPPE   H3X49441   7.319   1.120   8.262
  124PPPE   H3Y49442   7.193   1.009   8.325
  124PPPE   C3449443   7.197   1.198   8.424
  124PPPE   H4X49444   7.201   1.307   8.401
  124PPPE   H4Y49445   7.283   1.176   8.492
  124PPPE   C3549446   7.067   1.165   8.499
  124PPPE   H5X49447   7.063   1.055   8.511
  124PPPE   H5Y49448   6.981   1.196   8.437
  124PPPE   C3649449   7.050   1.231   8.637
  124PPPE   H6X49450   6.948   1.208   8.675
  124PPPE   H6Y49451   7.053   1.342   8.624
  124PPPE   C3749452   7.152   1.194   8.746
  124PPPE   H7X49453   7.139   1.271   8.826
  124PPPE   H7Y49454   7.256   1.202   8.710
  124PPPE   C3849455   7.127   1.058   8.811
  124PPPE   H8X49456   7.169   0.980   8.744
  124PPPE   H8Y49457   7.017   1.042   8.820
  124PPPE   C3949458   7.186   1.039   8.952
  124PPPE   H9X49459   7.290   1.078   8.956
  124PPPE   H9Y49460   7.192   0.929   8.971
  124PPPE  C31049461   7.102   1.100   9.065
  124PPPE  H10X49462   7.002   1.131   9.026
  124PPPE  H10Y49463   7.153   1.191   9.101
  124PPPE  C31149464   7.082   1.004   9.183
  124PPPE  H11X49465   7.181   0.965   9.215
  124PPPE  H11Y49466   7.020   0.917   9.150
  124PPPE  C31249467   7.012   1.068   9.303
  124PPPE  H12X49468   6.908   1.097   9.278
  124PPPE  H12Y49469   7.068   1.160   9.329
  124PPPE  C31349470   7.012   0.977   9.428
  124PPPE  H13X49471   7.116   0.943   9.446
  124PPPE  H13Y49472   6.949   0.888   9.411
  124PPPE  C31449473   6.965   1.055   9.551
  124PPPE  H14X49474   6.854   1.069   9.548
  124PPPE  H14Y49475   7.012   1.155   9.547
  124PPPE  C31549476   7.007   0.995   9.685
  124PPPE  H15X49477   7.117   0.976   9.682
  124PPPE  H15Y49478   6.958   0.896   9.702
  124PPPE  C31649479   6.976   1.089   9.801
  124PPPE  H16X49480   6.867   1.090   9.824
  124PPPE  H16Y49481   7.032   1.057   9.892
  124PPPE  H16Z49482   7.007   1.193   9.777
  125PPPE     N49483   0.883   0.770   7.677
  125PPPE   HN149484   0.943   0.780   7.593
  125PPPE   HN249485   0.851   0.672   7.688
  125PPPE   HN349486   0.797   0.829   7.668
  125PPPE   C1249487   0.955   0.818   7.801
  125PPPE  H12A49488   1.027   0.897   7.770
  125PPPE  H12B49489   1.010   0.732   7.845
  125PPPE   C1149490   0.854   0.877   7.899
  125PPPE  H11A49491   0.907   0.908   7.992
  125PPPE  H11B49492   0.783   0.798   7.932
  125PPPE     P49493   0.636   0.987   7.809
  125PPPE   O1349494   0.587   1.121   7.766
  125PPPE   O1449495   0.626   0.878   7.709
  125PPPE   O1149496   0.571   0.947   7.948
  125PPPE   O1249497   0.790   0.994   7.844
  125PPPE    C149498   0.613   1.017   8.067
  125PPPE    HA49499   0.585   1.124   8.059
  125PPPE    HB49500   0.723   1.013   8.081
  125PPPE    C249501   0.551   0.961   8.199
  125PPPE    HS49502   0.572   1.036   8.279
  125PPPE   O2149503   0.608   0.833   8.231
  125PPPE   C2149504   0.720   0.838   8.301
  125PPPE   O2249505   0.780   0.940   8.331
  125PPPE   C2249506   0.765   0.696   8.336
  125PPPE   H2R49507   0.845   0.703   8.414
  125PPPE   H2S49508   0.810   0.653   8.244
  125PPPE    C349509   0.397   0.947   8.195
  125PPPE    HX49510   0.358   1.017   8.118
  125PPPE    HY49511   0.369   0.845   8.160
  125PPPE   O3149512   0.339   0.983   8.323
  125PPPE   C3149513   0.320   0.883   8.408
  125PPPE   O3249514   0.337   0.765   8.383
  125PPPE   C3249515   0.265   0.935   8.542
  125PPPE   H2X49516   0.192   0.858   8.575
  125PPPE   H2Y49517   0.211   1.031   8.525
  125PPPE   C2349518   0.651   0.603   8.385
  125PPPE   H3R49519   0.686   0.498   8.378
  125PPPE   H3S49520   0.562   0.612   8.319
  125PPPE   C2449521   0.609   0.629   8.531
  125PPPE   H4R49522   0.582   0.736   8.543
  125PPPE   H4S49523   0.696   0.609   8.598
  125PPPE   C2549524   0.489   0.542   8.575
  125PPPE   H5R49525   0.512   0.435   8.559
  125PPPE   H5S49526   0.403   0.568   8.510
  125PPPE   C2649527   0.449   0.564   8.722
  125PPPE   H6R49528   0.344   0.532   8.737
  125PPPE   H6S49529   0.453   0.673   8.743
  125PPPE   C2749530   0.539   0.486   8.819
  125PPPE   H7R49531   0.645   0.496   8.787
  125PPPE   H7S49532   0.512   0.378   8.810
  125PPPE   C2849533   0.530   0.528   8.967
  125PPPE   H8R49534   0.594   0.460   9.026
  125PPPE   H8S49535   0.426   0.515   9.004
  125PPPE   C2949536   0.575   0.670   8.981
  125PPPE   H9149537   0.497   0.745   8.959
  125PPPE  C21049538   0.697   0.714   9.017
  125PPPE  H10149539   0.715   0.823   9.013
  125PPPE  C21149540   0.821   0.636   9.052
  125PPPE  H11R49541   0.910   0.694   9.020
  125PPPE  H11S49542   0.824   0.540   8.998
  125PPPE  C21249543   0.835   0.606   9.203
  125PPPE  H12R49544   0.937   0.567   9.220
  125PPPE  H12S49545   0.761   0.527   9.230
  125PPPE  C21349546   0.813   0.724   9.299
  125PPPE  H13R49547   0.709   0.760   9.283
  125PPPE  H13S49548   0.882   0.807   9.275
  125PPPE  C21449549   0.825   0.685   9.447
  125PPPE  H14R49550   0.771   0.591   9.467
  125PPPE  H14S49551   0.778   0.765   9.509
  125PPPE  C21549552   0.970   0.674   9.496
  125PPPE  H15R49553   1.021   0.770   9.476
  125PPPE  H15S49554   1.022   0.595   9.439
  125PPPE  C21649555   0.980   0.645   9.646
  125PPPE  H16R49556   0.933   0.548   9.672
  125PPPE  H16S49557   1.087   0.641   9.677
  125PPPE  H16T49558   0.930   0.725   9.705
  125PPPE   C3349559   0.369   0.952   8.656
  125PPPE   H3X49560   0.449   0.875   8.649
  125PPPE   H3Y49561   0.317   0.936   8.753
  125PPPE   C3449562   0.432   1.093   8.661
  125PPPE   H4X49563   0.350   1.168   8.654
  125PPPE   H4Y49564   0.497   1.106   8.572
  125PPPE   C3549565   0.513   1.122   8.788
  125PPPE   H5X49566   0.446   1.120   8.877
  125PPPE   H5Y49567   0.555   1.224   8.780
  125PPPE   C3649568   0.628   1.023   8.812
  125PPPE   H6X49569   0.677   1.000   8.714
  125PPPE   H6Y49570   0.587   0.928   8.851
  125PPPE   C3749571   0.738   1.074   8.907
  125PPPE   H7X49572   0.792   1.157   8.855
  125PPPE   H7Y49573   0.812   0.993   8.924
  125PPPE   C3849574   0.692   1.128   9.044
  125PPPE   H8X49575   0.611   1.203   9.030
  125PPPE   H8Y49576   0.779   1.179   9.090
  125PPPE   C3949577   0.647   1.022   9.145
  125PPPE   H9X49578   0.734   0.955   9.165
  125PPPE   H9Y49579   0.564   0.962   9.103
  125PPPE  C31049580   0.604   1.082   9.279
  125PPPE  H10X49581   0.515   1.146   9.260
  125PPPE  H10Y49582   0.685   1.149   9.316
  125PPPE  C31149583   0.574   0.978   9.388
  125PPPE  H11X49584   0.541   1.033   9.478
  125PPPE  H11Y49585   0.667   0.925   9.416
  125PPPE  C31249586   0.465   0.875   9.351
  125PPPE  H12X49587   0.505   0.794   9.286
  125PPPE  H12Y49588   0.386   0.926   9.291
  125PPPE  C31349589   0.397   0.814   9.475
  125PPPE  H13X49590   0.298   0.774   9.446
  125PPPE  H13Y49591   0.380   0.893   9.551
  125PPPE  C31449592   0.477   0.698   9.536
  125PPPE  H14X49593   0.577   0.736   9.565
  125PPPE  H14Y49594   0.491   0.619   9.459
  125PPPE  C31549595   0.413   0.634   9.661
  125PPPE  H15X49596   0.479   0.551   9.694
  125PPPE  H15Y49597   0.315   0.590   9.634
  125PPPE  C31649598   0.395   0.731   9.779
  125PPPE  H16X49599   0.360   0.676   9.869
  125PPPE  H16Y49600   0.492   0.780   9.803
  125PPPE  H16Z49601   0.321   0.809   9.755
  126PPPE     N49602   0.463   7.332   7.966
  126PPPE   HN149603   0.546   7.331   8.029
  126PPPE   HN249604   0.377   7.347   8.023
  126PPPE   HN349605   0.458   7.239   7.920
  126PPPE   C1249606   0.481   7.435   7.857
  126PPPE  H12A49607   0.570   7.497   7.882
  126PPPE  H12B49608   0.391   7.501   7.857
  126PPPE   C1149609   0.497   7.371   7.716
  126PPPE  H11A49610   0.503   7.455   7.644
  126PPPE  H11B49611   0.405   7.315   7.689
  126PPPE     P49612   0.613   7.136   7.737
  126PPPE   O1349613   0.491   7.112   7.817
  126PPPE   O1449614   0.632   7.055   7.614
  126PPPE   O1149615   0.737   7.118   7.831
  126PPPE   O1249616   0.616   7.291   7.702
  126PPPE    C149617   0.800   7.235   7.882
  126PPPE    HA49618   0.725   7.308   7.921
  126PPPE    HB49619   0.859   7.286   7.802
  126PPPE    C249620   0.897   7.209   8.001
  126PPPE    HS49621   0.988   7.162   7.957
  126PPPE   O2149622   0.837   7.125   8.102
  126PPPE   C2149623   0.928   7.062   8.178
  126PPPE   O2249624   1.048   7.060   8.153
  126PPPE   C2249625   0.865   6.990   8.298
  126PPPE   H2R49626   0.951   6.952   8.358
  126PPPE   H2S49627   0.808   6.902   8.261
  126PPPE    C349628   0.933   7.347   8.061
  126PPPE    HX49629   1.004   7.328   8.145
  126PPPE    HY49630   0.985   7.408   7.984
  126PPPE   O3149631   0.812   7.414   8.105
  126PPPE   C3149632   0.834   7.500   8.205
  126PPPE   O3249633   0.942   7.534   8.246
  126PPPE   C3249634   0.700   7.548   8.257
  126PPPE   H2X49635   0.635   7.571   8.170
  126PPPE   H2Y49636   0.715   7.643   8.314
  126PPPE   C2349637   0.776   7.076   8.390
  126PPPE   H3R49638   0.680   7.102   8.339
  126PPPE   H3S49639   0.827   7.171   8.414
  126PPPE   C2449640   0.746   7.004   8.522
  126PPPE   H4R49641   0.842   6.964   8.562
  126PPPE   H4S49642   0.678   6.918   8.505
  126PPPE   C2549643   0.686   7.099   8.628
  126PPPE   H5R49644   0.583   7.124   8.598
  126PPPE   H5S49645   0.747   7.192   8.630
  126PPPE   C2649646   0.688   7.044   8.771
  126PPPE   H6R49647   0.652   6.940   8.771
  126PPPE   H6S49648   0.619   7.104   8.834
  126PPPE   C2749649   0.827   7.053   8.833
  126PPPE   H7R49650   0.848   7.161   8.847
  126PPPE   H7S49651   0.902   7.011   8.762
  126PPPE   C2849652   0.847   6.981   8.968
  126PPPE   H8R49653   0.954   6.990   8.996
  126PPPE   H8S49654   0.828   6.872   8.955
  126PPPE   C2949655   0.758   7.037   9.074
  126PPPE   H9149656   0.656   7.063   9.041
  126PPPE  C21049657   0.789   7.058   9.203
  126PPPE  H10149658   0.714   7.105   9.268
  126PPPE  C21149659   0.920   7.031   9.271
  126PPPE  H11R49660   1.003   7.023   9.198
  126PPPE  H11S49661   0.916   6.934   9.327
  126PPPE  C21249662   0.952   7.146   9.368
  126PPPE  H12R49663   0.899   7.237   9.334
  126PPPE  H12S49664   1.061   7.165   9.363
  126PPPE  C21349665   0.916   7.127   9.516
  126PPPE  H13R49666   0.808   7.105   9.525
  126PPPE  H13S49667   0.933   7.223   9.569
  126PPPE  C21449668   1.002   7.020   9.586
  126PPPE  H14R49669   1.105   7.059   9.595
  126PPPE  H14S49670   1.008   6.929   9.523
  126PPPE  C21549671   0.952   6.978   9.725
  126PPPE  H15R49672   1.042   6.970   9.791
  126PPPE  H15S49673   0.910   6.875   9.718
  126PPPE  C21649674   0.850   7.068   9.794
  126PPPE  H16R49675   0.892   7.168   9.818
  126PPPE  H16S49676   0.759   7.082   9.732
  126PPPE  H16T49677   0.817   7.021   9.890
  126PPPE   C3349678   0.638   7.442   8.350
  126PPPE   H3X49679   0.647   7.341   8.304
  126PPPE   H3Y49680   0.529   7.461   8.364
  126PPPE   C3449681   0.703   7.439   8.488
  126PPPE   H4X49682   0.814   7.431   8.480
  126PPPE   H4Y49683   0.667   7.348   8.539
  126PPPE   C3549684   0.666   7.556   8.581
  126PPPE   H5X49685   0.556   7.563   8.589
  126PPPE   H5Y49686   0.703   7.653   8.540
  126PPPE   C3649687   0.724   7.535   8.722
  126PPPE   H6X49688   0.835   7.536   8.716
  126PPPE   H6Y49689   0.692   7.436   8.760
  126PPPE   C3749690   0.679   7.643   8.821
  126PPPE   H7X49691   0.568   7.644   8.825
  126PPPE   H7Y49692   0.713   7.742   8.784
  126PPPE   C3849693   0.731   7.623   8.964
  126PPPE   H8X49694   0.724   7.719   9.019
  126PPPE   H8Y49695   0.839   7.596   8.958
  126PPPE   C3949696   0.653   7.517   9.045
  126PPPE   H9X49697   0.654   7.420   8.991
  126PPPE   H9Y49698   0.547   7.550   9.051
  126PPPE  C31049699   0.710   7.496   9.187
  126PPPE  H10X49700   0.781   7.578   9.209
  126PPPE  H10Y49701   0.766   7.400   9.189
  126PPPE  C31149702   0.606   7.497   9.300
  126PPPE  H11X49703   0.507   7.467   9.260
  126PPPE  H11Y49704   0.596   7.602   9.336
  126PPPE  C31249705   0.638   7.408   9.422
  126PPPE  H12X49706   0.729   7.347   9.405
  126PPPE  H12Y49707   0.553   7.337   9.434
  126PPPE  C31349708   0.651   7.485   9.554
  126PPPE  H13X49709   0.579   7.570   9.556
  126PPPE  H13Y49710   0.753   7.528   9.560
  126PPPE  C31449711   0.624   7.398   9.679
  126PPPE  H14X49712   0.654   7.456   9.769
  126PPPE  H14Y49713   0.686   7.306   9.675
  126PPPE  C31549714   0.475   7.361   9.695
  126PPPE  H15X49715   0.444   7.296   9.610
  126PPPE  H15Y49716   0.414   7.453   9.691
  126PPPE  C31649717   0.444   7.287   9.826
  126PPPE  H16X49718   0.505   7.194   9.834
  126PPPE  H16Y49719   0.467   7.352   9.913
  126PPPE  H16Z49720   0.337   7.259   9.831
  127PPPE     N49721   7.193   7.310   7.546
  127PPPE   HN149722   7.269   7.266   7.491
  127PPPE   HN249723   7.118   7.345   7.483
  127PPPE   HN349724   7.234   7.391   7.596
  127PPPE   C1249725   7.141   7.219   7.655
  127PPPE  H12A49726   7.231   7.180   7.708
  127PPPE  H12B49727   7.088   7.133   7.608
  127PPPE   C1149728   7.050   7.291   7.759
  127PPPE  H11A49729   7.045   7.228   7.851
  127PPPE  H11B49730   6.946   7.295   7.718
  127PPPE     P49731   7.241   7.446   7.841
  127PPPE   O1349732   7.292   7.318   7.890
  127PPPE   O1449733   7.304   7.497   7.716
  127PPPE   O1149734   7.239   7.555   7.953
  127PPPE   O1249735   7.090   7.424   7.793
  127PPPE    C149736   7.153   7.669   7.956
  127PPPE    HA49737   7.097   7.682   7.861
  127PPPE    HB49738   7.216   7.760   7.971
  127PPPE    C249739   7.052   7.664   8.074
  127PPPE    HS49740   6.987   7.753   8.060
  127PPPE   O2149741   7.121   7.666   8.200
  127PPPE   C2149742   7.121   7.780   8.268
  127PPPE   O2249743   7.064   7.883   8.233
  127PPPE   C2249744   7.213   7.764   8.390
  127PPPE   H2R49745   7.313   7.798   8.356
  127PPPE   H2S49746   7.220   7.656   8.415
  127PPPE    C349747   6.959   7.538   8.069
  127PPPE    HX49748   6.874   7.559   8.137
  127PPPE    HY49749   6.919   7.528   7.966
  127PPPE   O3149750   7.032   7.419   8.104
  127PPPE   C3149751   6.987   7.351   8.208
  127PPPE   O3249752   6.873   7.357   8.253
  127PPPE   C3249753   7.097   7.261   8.262
  127PPPE   H2X49754   7.191   7.279   8.205
  127PPPE   H2Y49755   7.066   7.155   8.247
  127PPPE   C2349756   7.177   7.848   8.515
  127PPPE   H3R49757   7.163   7.955   8.488
  127PPPE   H3S49758   7.265   7.844   8.583
  127PPPE   C2449759   7.057   7.798   8.597
  127PPPE   H4R49760   6.963   7.819   8.543
  127PPPE   H4S49761   7.055   7.856   8.692
  127PPPE   C2549762   7.062   7.648   8.633
  127PPPE   H5R49763   7.165   7.609   8.622
  127PPPE   H5S49764   6.997   7.593   8.562
  127PPPE   C2649765   7.017   7.618   8.777
  127PPPE   H6R49766   6.931   7.684   8.802
  127PPPE   H6S49767   7.100   7.642   8.847
  127PPPE   C2749768   6.973   7.472   8.795
  127PPPE   H7R49769   7.050   7.405   8.753
  127PPPE   H7S49770   6.881   7.458   8.734
  127PPPE   C2849771   6.948   7.432   8.943
  127PPPE   H8R49772   6.950   7.523   9.006
  127PPPE   H8S49773   7.034   7.369   8.977
  127PPPE   C2949774   6.819   7.357   8.962
  127PPPE   H9149775   6.790   7.294   8.876
  127PPPE  C21049776   6.737   7.358   9.069
  127PPPE  H10149777   6.647   7.295   9.069
  127PPPE  C21149778   6.759   7.435   9.197
  127PPPE  H11R49779   6.664   7.441   9.255
  127PPPE  H11S49780   6.793   7.539   9.177
  127PPPE  C21249781   6.865   7.362   9.280
  127PPPE  H12R49782   6.963   7.370   9.228
  127PPPE  H12S49783   6.840   7.254   9.287
  127PPPE  C21349784   6.881   7.415   9.422
  127PPPE  H13R49785   6.789   7.395   9.481
  127PPPE  H13S49786   6.895   7.525   9.419
  127PPPE  C21449787   7.003   7.351   9.490
  127PPPE  H14R49788   7.070   7.432   9.525
  127PPPE  H14S49789   7.060   7.290   9.416
  127PPPE  C21549790   6.977   7.269   9.615
  127PPPE  H15R49791   7.074   7.223   9.644
  127PPPE  H15S49792   6.909   7.184   9.595
  127PPPE  C21649793   6.927   7.353   9.732
  127PPPE  H16R49794   6.825   7.393   9.712
  127PPPE  H16S49795   6.921   7.290   9.824
  127PPPE  H16T49796   6.995   7.438   9.753
  127PPPE   C3349797   7.123   7.286   8.413
  127PPPE   H3X49798   7.029   7.272   8.470
  127PPPE   H3Y49799   7.156   7.391   8.428
  127PPPE   C3449800   7.229   7.189   8.468
  127PPPE   H4X49801   7.325   7.205   8.413
  127PPPE   H4Y49802   7.195   7.086   8.448
  127PPPE   C3549803   7.253   7.204   8.618
  127PPPE   H5X49804   7.313   7.117   8.655
  127PPPE   H5Y49805   7.155   7.200   8.671
  127PPPE   C3649806   7.326   7.333   8.656
  127PPPE   H6X49807   7.269   7.419   8.616
  127PPPE   H6Y49808   7.427   7.335   8.611
  127PPPE   C3749809   7.338   7.349   8.808
  127PPPE   H7X49810   7.409   7.275   8.849
  127PPPE   H7Y49811   7.238   7.328   8.853
  127PPPE   C3849812   7.378   7.492   8.850
  127PPPE   H8X49813   7.321   7.564   8.788
  127PPPE   H8Y49814   7.486   7.508   8.831
  127PPPE   C3949815   7.345   7.521   8.997
  127PPPE   H9X49816   7.238   7.497   9.014
  127PPPE   H9Y49817   7.358   7.629   9.017
  127PPPE  C31049818   7.430   7.441   9.096
  127PPPE  H10X49819   7.533   7.484   9.100
  127PPPE  H10Y49820   7.440   7.336   9.060
  127PPPE  C31149821   7.369   7.436   9.236
  127PPPE  H11X49822   7.430   7.371   9.302
  127PPPE  H11Y49823   7.268   7.389   9.228
  127PPPE  C31249824   7.353   7.573   9.303
  127PPPE  H12X49825   7.311   7.646   9.231
  127PPPE  H12Y49826   7.452   7.610   9.338
  127PPPE  C31349827   7.256   7.562   9.419
  127PPPE  H13X49828   7.287   7.478   9.485
  127PPPE  H13Y49829   7.157   7.537   9.375
  127PPPE  C31449830   7.238   7.687   9.506
  127PPPE  H14X49831   7.197   7.770   9.445
  127PPPE  H14Y49832   7.337   7.718   9.547
  127PPPE  C31549833   7.143   7.658   9.623
  127PPPE  H15X49834   7.180   7.569   9.678
  127PPPE  H15Y49835   7.042   7.633   9.582
  127PPPE  C31649836   7.127   7.773   9.721
  127PPPE  H16X49837   7.062   7.741   9.806
  127PPPE  H16Y49838   7.225   7.806   9.761
  127PPPE  H16Z49839   7.077   7.859   9.671
  128PPPE     N49840   6.888   8.114   7.940
  128PPPE   HN149841   6.865   8.013   7.933
  128PPPE   HN249842   6.991   8.128   7.944
  128PPPE   HN349843   6.846   0.004   8.029
  128PPPE   C1249844   6.814   0.036   7.828
  128PPPE  H12A49845   6.874   0.122   7.790
  128PPPE  H12B49846   6.719   0.076   7.870
  128PPPE   C1149847   6.782   8.078   7.717
  128PPPE  H11A49848   6.875   8.056   7.660
  128PPPE  H11B49849   6.710   8.121   7.645
  128PPPE     P49850   6.586   7.947   7.832
  128PPPE   O1349851   6.522   8.078   7.810
  128PPPE   O1449852   6.520   7.827   7.777
  128PPPE   O1149853   6.623   7.931   7.985
  128PPPE   O1249854   6.733   7.955   7.771
  128PPPE    C149855   6.705   7.821   8.028
  128PPPE    HA49856   6.803   7.825   7.976
  128PPPE    HB49857   6.657   7.724   8.001
  128PPPE    C249858   6.735   7.816   8.182
  128PPPE    HS49859   6.837   7.771   8.190
  128PPPE   O2149860   6.638   7.729   8.243
  128PPPE   C2149861   6.685   7.669   8.353
  128PPPE   O2249862   6.800   7.678   8.393
  128PPPE   C2249863   6.573   7.589   8.417
  128PPPE   H2R49864   6.542   7.510   8.345
  128PPPE   H2S49865   6.488   7.658   8.433
  128PPPE    C349866   6.745   7.953   8.257
  128PPPE    HX49867   6.768   7.931   8.364
  128PPPE    HY49868   6.834   8.006   8.218
  128PPPE   O3149869   6.623   8.029   8.251
  128PPPE   C3149870   6.628   8.144   8.187
  128PPPE   O3249871   6.728   0.050   8.137
  128PPPE   C3249872   6.490   0.063   8.180
  128PPPE   H2X49873   6.413   8.127   8.177
  128PPPE   H2Y49874   6.485   0.119   8.084
  128PPPE   C2349875   6.612   7.525   8.552
  128PPPE   H3R49876   6.700   7.459   8.542
  128PPPE   H3S49877   6.527   7.461   8.584
  128PPPE   C2449878   6.637   7.629   8.662
  128PPPE   H4R49879   6.576   7.720   8.644
  128PPPE   H4S49880   6.744   7.659   8.660
  128PPPE   C2549881   6.602   7.574   8.801
  128PPPE   H5R49882   6.640   7.470   8.806
  128PPPE   H5S49883   6.492   7.565   8.812
  128PPPE   C2649884   6.662   7.652   8.919
  128PPPE   H6R49885   6.769   7.625   8.925
  128PPPE   H6S49886   6.615   7.617   9.014
  128PPPE   C2749887   6.658   7.806   8.917
  128PPPE   H7R49888   6.557   7.841   8.946
  128PPPE   H7S49889   6.681   7.845   8.815
  128PPPE   C2849890   6.763   7.862   9.016
  128PPPE   H8R49891   6.864   7.837   8.977
  128PPPE   H8S49892   6.752   7.804   9.110
  128PPPE   C2949893   6.753   8.010   9.039
  128PPPE   H9149894   6.765   8.072   8.949
  128PPPE  C21049895   6.728   8.072   9.156
  128PPPE  H10149896   6.723   0.038   9.159
  128PPPE  C21149897   6.707   8.006   9.290
  128PPPE  H11R49898   6.725   7.896   9.287
  128PPPE  H11S49899   6.601   8.019   9.321
  128PPPE  C21249900   6.794   8.065   9.402
  128PPPE  H12R49901   6.779   0.031   9.407
  128PPPE  H12S49902   6.902   8.047   9.381
  128PPPE  C21349903   6.760   8.007   9.541
  128PPPE  H13R49904   6.651   8.021   9.560
  128PPPE  H13S49905   6.815   8.066   9.617
  128PPPE  C21449906   6.796   7.859   9.557
  128PPPE  H14R49907   6.906   7.848   9.546
  128PPPE  H14S49908   6.748   7.799   9.477
  128PPPE  C21549909   6.752   7.798   9.692
  128PPPE  H15R49910   6.801   7.699   9.703
  128PPPE  H15S49911   6.643   7.781   9.690
  128PPPE  C21649912   6.785   7.884   9.814
  128PPPE  H16R49913   6.892   7.914   9.815
  128PPPE  H16S49914   6.722   7.976   9.817
  128PPPE  H16T49915   6.764   7.826   9.907
  128PPPE   C3349916   6.466   0.159   8.298
  128PPPE   H3X49917   6.386   0.230   8.271
  128PPPE   H3Y49918   6.558   0.219   8.319
  128PPPE   C3449919   6.424   0.088   8.427
  128PPPE   H4X49920   6.503   0.017   8.459
  128PPPE   H4Y49921   6.331   0.030   8.410
  128PPPE   C3549922   6.400   0.192   8.537
  128PPPE   H5X49923   6.324   0.265   8.502
  128PPPE   H5Y49924   6.494   0.249   8.553
  128PPPE   C3649925   6.356   0.136   8.672
  128PPPE   H6X49926   6.260   0.083   8.660
  128PPPE   H6Y49927   6.338   0.222   8.740
  128PPPE   C3749928   6.459   0.043   8.738
  128PPPE   H7X49929   6.562   0.083   8.725
  128PPPE   H7Y49930   6.455   8.088   8.689
  128PPPE   C3849931   6.433   0.025   8.889
  128PPPE   H8X49932   6.469   0.114   8.945
  128PPPE   H8Y49933   6.492   8.082   8.924
  128PPPE   C3949934   6.284   0.004   8.920
  128PPPE   H9X49935   6.240   8.086   8.839
  128PPPE   H9Y49936   6.230   0.101   8.921
  128PPPE  C31049937   6.261   8.074   9.052
  128PPPE  H10X49938   6.337   7.994   9.064
  128PPPE  H10Y49939   6.161   8.025   9.047
  128PPPE  C31149940   6.262   0.021   9.175
  128PPPE  H11X49941   6.190   0.103   9.158
  128PPPE  H11Y49942   6.362   0.065   9.190
  128PPPE  C31249943   6.219   8.088   9.300
  128PPPE  H12X49944   6.132   8.023   9.275
  128PPPE  H12Y49945   6.185   0.015   9.378
  128PPPE  C31349946   6.329   8.000   9.359
  128PPPE  H13X49947   6.408   8.066   9.400
  128PPPE  H13Y49948   6.375   7.935   9.281
  128PPPE  C31449949   6.275   7.912   9.471
  128PPPE  H14X49950   6.213   7.830   9.428
  128PPPE  H14Y49951   6.208   7.974   9.534
  128PPPE  C31549952   6.381   7.853   9.563
  128PPPE  H15X49953   6.457   7.931   9.586
  128PPPE  H15Y49954   6.434   7.769   9.512
  128PPPE  C31649955   6.321   7.804   9.694
  128PPPE  H16X49956   6.262   7.886   9.743
  128PPPE  H16Y49957   6.251   7.719   9.677
  128PPPE  H16Z49958   6.400   7.772   9.765
  129PPPE     N49959   7.891   6.530   7.905
  129PPPE   HN149960   7.949   6.568   7.827
  129PPPE   HN249961   7.943   6.550   7.993
  129PPPE   HN349962   7.882   6.427   7.895
  129PPPE   C1249963   7.759   6.603   7.899
  129PPPE  H12A49964   7.712   6.600   7.999
  129PPPE  H12B49965   7.695   6.550   7.825
  129PPPE   C1149966   7.782   6.747   7.851
  129PPPE  H11A49967   7.822   6.804   7.937
  129PPPE  H11B49968   7.686   6.796   7.826
  129PPPE     P49969   7.962   6.872   7.708
  129PPPE   O1349970   8.085   6.818   7.645
  129PPPE   O1449971   7.883   6.965   7.625
  129PPPE   O1149972   7.987   6.931   7.851
  129PPPE   O1249973   7.869   6.746   7.736
  129PPPE    C149974   8.107   6.935   7.927
  129PPPE    HA49975   8.121   7.039   7.963
  129PPPE    HB49976   0.053   6.910   7.866
  129PPPE    C249977   8.110   6.843   8.055
  129PPPE    HS49978   0.021   6.752   8.024
  129PPPE   O2149979   7.977   6.813   8.104
  129PPPE   C2149980   7.976   6.699   8.173
  129PPPE   O2249981   8.020   6.594   8.129
  129PPPE   C2249982   7.906   6.716   8.306
  129PPPE   H2R49983   7.803   6.674   8.298
  129PPPE   H2S49984   7.896   6.825   8.327
  129PPPE    C349985   0.044   6.908   8.175
  129PPPE    HX49986   0.100   6.824   8.222
  129PPPE    HY49987   0.120   6.978   8.134
  129PPPE   O3149988   8.100   6.977   8.268
  129PPPE   C3149989   8.128   6.959   8.398
  129PPPE   O3249990   0.077   6.893   8.441
  129PPPE   C3249991   8.028   7.028   8.493
  129PPPE   H2X49992   8.074   7.126   8.519
  129PPPE   H2Y49993   8.027   6.968   8.586
  129PPPE   C2349994   7.985   6.646   8.419
  129PPPE   H3R49995   8.088   6.688   8.424
  129PPPE   H3S49996   7.996   6.538   8.397
  129PPPE   C2449997   7.921   6.661   8.558
  129PPPE   H4R49998   7.830   6.598   8.562
  129PPPE   H4S49999   7.892   6.766   8.577
  129PPPE   C2550000   8.019   6.616   8.668
  129PPPE   H5R50001   8.105   6.686   8.672
  129PPPE   H5S50002   8.058   6.516   8.640
  129PPPE   C2650003   7.957   6.605   8.808
  129PPPE   H6R50004   7.991   6.511   8.856
  129PPPE   H6S50005   7.846   6.596   8.796
  129PPPE   C2750006   7.990   6.722   8.901
  129PPPE   H7R50007   7.915   6.721   8.983
  129PPPE   H7S50008   7.980   6.820   8.849
  129PPPE   C2850009   8.122   6.709   8.979
  129PPPE   H8R50010   0.016   6.605   8.965
  129PPPE   H8S50011   8.100   6.717   9.087
  129PPPE   C2950012   0.084   6.809   8.941
  129PPPE   H9150013   0.156   6.775   8.865
  129PPPE  C21050014   0.095   6.931   8.994
  129PPPE  H10150015   0.177   6.997   8.960
  129PPPE  C21150016   0.005   6.991   9.099
  129PPPE  H11R50017   8.048   6.943   9.097
  129PPPE  H11S50018   8.131   7.098   9.075
  129PPPE  C21250019   0.057   6.983   9.245
  129PPPE  H12R50020   0.156   6.932   9.249
  129PPPE  H12S50021   8.132   6.920   9.305
  129PPPE  C21350022   0.069   7.121   9.311
  129PPPE  H13R50023   8.115   7.173   9.305
  129PPPE  H13S50024   0.142   7.179   9.252
  129PPPE  C21450025   0.116   7.125   9.457
  129PPPE  H14R50026   0.160   7.225   9.478
  129PPPE  H14S50027   0.197   7.051   9.474
  129PPPE  C21550028   0.006   7.102   9.560
  129PPPE  H15R50029   8.114   6.998   9.548
  129PPPE  H15S50030   8.065   7.170   9.539
  129PPPE  C21650031   0.054   7.122   9.704
  129PPPE  H16R50032   0.155   7.077   9.718
  129PPPE  H16S50033   0.059   7.230   9.729
  129PPPE  H16T50034   8.129   7.073   9.776
  129PPPE   C3350035   7.883   7.055   8.446
  129PPPE   H3X50036   7.821   6.966   8.469
  129PPPE   H3Y50037   7.880   7.071   8.336
  129PPPE   C3450038   7.818   7.178   8.513
  129PPPE   H4X50039   7.708   7.173   8.499
  129PPPE   H4Y50040   7.853   7.270   8.461
  129PPPE   C3550041   7.848   7.197   8.664
  129PPPE   H5X50042   7.795   7.288   8.700
  129PPPE   H5Y50043   7.956   7.215   8.679
  129PPPE   C3650044   7.805   7.078   8.751
  129PPPE   H6X50045   7.846   6.985   8.708
  129PPPE   H6Y50046   7.694   7.068   8.750
  129PPPE   C3750047   7.856   7.086   8.896
  129PPPE   H7X50048   7.962   7.118   8.899
  129PPPE   H7Y50049   7.852   6.983   8.937
  129PPPE   C3850050   7.771   7.174   8.990
  129PPPE   H8X50051   7.669   7.184   8.950
  129PPPE   H8Y50052   7.815   7.276   8.997
  129PPPE   C3950053   7.762   7.110   9.130
  129PPPE   H9X50054   7.864   7.097   9.173
  129PPPE   H9Y50055   7.719   7.008   9.116
  129PPPE  C31050056   7.674   7.186   9.230
  129PPPE  H10X50057   7.632   7.276   9.181
  129PPPE  H10Y50058   7.736   7.220   9.315
  129PPPE  C31150059   7.557   7.101   9.285
  129PPPE  H11X50060   7.491   7.072   9.201
  129PPPE  H11Y50061   7.498   7.163   9.355
  129PPPE  C31250062   7.602   6.974   9.360
  129PPPE  H12X50063   7.666   7.005   9.445
  129PPPE  H12Y50064   7.665   6.912   9.293
  129PPPE  C31350065   7.485   6.888   9.406
  129PPPE  H13X50066   7.451   6.823   9.322
  129PPPE  H13Y50067   7.402   6.957   9.430
  129PPPE  C31450068   7.506   6.800   9.532
  129PPPE  H14X50069   7.408   6.757   9.561
  129PPPE  H14Y50070   7.533   6.867   9.617
  129PPPE  C31550071   7.602   6.680   9.526
  129PPPE  H15X50072   7.640   6.662   9.629
  129PPPE  H15Y50073   7.688   6.713   9.464
  129PPPE  C31650074   7.551   6.546   9.474
  129PPPE  H16X50075   7.493   6.557   9.380
  129PPPE  H16Y50076   7.637   6.478   9.454
  129PPPE  H16Z50077   7.488   6.496   9.551
  130PPPE     N50078   0.058   1.800   7.723
  130PPPE   HN150079   0.113   1.831   7.640
  130PPPE   HN250080   8.102   1.788   7.697
  130PPPE   HN350081   0.056   1.870   7.799
  130PPPE   C1250082   0.112   1.669   7.771
  130PPPE  H12A50083   0.049   1.637   7.858
  130PPPE  H12B50084   0.217   1.683   7.805
  130PPPE   C1150085   0.106   1.567   7.657
  130PPPE  H11A50086   0.166   1.603   7.570
  130PPPE  H11B50087   0.002   1.557   7.620
  130PPPE     P50088   0.075   1.345   7.789
  130PPPE   O1350089   8.079   1.359   7.744
  130PPPE   O1450090   0.142   1.214   7.779
  130PPPE   O1150091   0.096   1.413   7.930
  130PPPE   O1250092   0.160   1.443   7.698
  130PPPE    C150093   0.227   1.428   7.988
  130PPPE    HA50094   0.227   1.518   8.054
  130PPPE    HB50095   0.306   1.443   7.911
  130PPPE    C250096   0.265   1.308   8.077
  130PPPE    HS50097   0.264   1.217   8.012
  130PPPE   O2150098   0.175   1.300   8.188
  130PPPE   C2150099   0.110   1.186   8.203
  130PPPE   O2250100   0.102   1.096   8.122
  130PPPE   C2250101   0.049   1.185   8.343
  130PPPE   H2R50102   0.131   1.209   8.414
  130PPPE   H2S50103   0.013   1.082   8.364
  130PPPE    C350104   0.410   1.321   8.133
  130PPPE    HX50105   0.440   1.223   8.175
  130PPPE    HY50106   0.478   1.342   8.048
  130PPPE   O3150107   0.422   1.429   8.230
  130PPPE   C3150108   0.406   1.388   8.357
  130PPPE   O3250109   0.389   1.274   8.393
  130PPPE   C3250110   0.412   1.509   8.449
  130PPPE   H2X50111   0.321   1.570   8.430
  130PPPE   H2Y50112   0.502   1.568   8.424
  130PPPE   C2350113   8.078   1.288   8.359
  130PPPE   H3R50114   7.988   1.248   8.306
  130PPPE   H3S50115   8.104   1.385   8.313
  130PPPE   C2450116   8.042   1.313   8.506
  130PPPE   H4R50117   8.040   1.216   8.560
  130PPPE   H4S50118   7.941   1.358   8.511
  130PPPE   C2550119   8.138   1.409   8.577
  130PPPE   H5R50120   8.118   1.512   8.542
  130PPPE   H5S50121   0.099   1.384   8.551
  130PPPE   C2650122   8.125   1.403   8.730
  130PPPE   H6R50123   0.020   1.305   8.764
  130PPPE   H6S50124   8.019   1.409   8.761
  130PPPE   C2750125   0.061   1.515   8.800
  130PPPE   H7R50126   8.144   1.607   8.808
  130PPPE   H7S50127   0.148   1.538   8.735
  130PPPE   C2850128   0.117   1.477   8.938
  130PPPE   H8R50129   0.177   1.564   8.970
  130PPPE   H8S50130   0.187   1.392   8.925
  130PPPE   C2950131   0.014   1.450   9.045
  130PPPE   H9150132   8.095   1.536   9.071
  130PPPE  C21050133   8.141   1.334   9.112
  130PPPE  H10150134   8.065   1.331   9.191
  130PPPE  C21150135   0.075   1.206   9.096
  130PPPE  H11R50136   0.109   1.195   8.991
  130PPPE  H11S50137   0.008   1.119   9.116
  130PPPE  C21250138   0.199   1.192   9.186
  130PPPE  H12R50139   0.273   1.270   9.156
  130PPPE  H12S50140   0.247   1.094   9.166
  130PPPE  C21350141   0.174   1.202   9.338
  130PPPE  H13R50142   0.106   1.121   9.371
  130PPPE  H13S50143   0.125   1.299   9.361
  130PPPE  C21450144   0.306   1.196   9.416
  130PPPE  H14R50145   0.376   1.273   9.379
  130PPPE  H14S50146   0.349   1.097   9.390
  130PPPE  C21550147   0.302   1.200   9.569
  130PPPE  H15R50148   0.406   1.187   9.606
  130PPPE  H15S50149   0.245   1.112   9.606
  130PPPE  C21650150   0.246   1.328   9.631
  130PPPE  H16R50151   0.300   1.418   9.594
  130PPPE  H16S50152   0.138   1.338   9.607
  130PPPE  H16T50153   0.258   1.329   9.741
  130PPPE   C3350154   0.417   1.470   8.599
  130PPPE   H3X50155   0.509   1.412   8.620
  130PPPE   H3Y50156   0.331   1.407   8.628
  130PPPE   C3450157   0.418   1.598   8.683
  130PPPE   H4X50158   0.320   1.650   8.679
  130PPPE   H4Y50159   0.493   1.666   8.638
  130PPPE   C3550160   0.462   1.580   8.829
  130PPPE   H5X50161   0.557   1.523   8.833
  130PPPE   H5Y50162   0.386   1.521   8.884
  130PPPE   C3650163   0.485   1.718   8.893
  130PPPE   H6X50164   0.391   1.778   8.888
  130PPPE   H6Y50165   0.562   1.772   8.835
  130PPPE   C3750166   0.531   1.709   9.038
  130PPPE   H7X50167   0.575   1.805   9.073
  130PPPE   H7Y50168   0.610   1.631   9.046
  130PPPE   C3850169   0.414   1.671   9.127
  130PPPE   H8X50170   0.346   1.604   9.071
  130PPPE   H8Y50171   0.357   1.764   9.149
  130PPPE   C3950172   0.449   1.594   9.254
  130PPPE   H9X50173   0.502   1.660   9.326
  130PPPE   H9Y50174   0.517   1.511   9.227
  130PPPE  C31050175   0.324   1.533   9.319
  130PPPE  H10X50176   0.354   1.481   9.413
  130PPPE  H10Y50177   0.280   1.459   9.250
  130PPPE  C31150178   0.218   1.638   9.351
  130PPPE  H11X50179   0.198   1.695   9.257
  130PPPE  H11Y50180   0.261   1.707   9.426
  130PPPE  C31250181   0.079   1.591   9.394
  130PPPE  H12X50182   0.064   1.485   9.362
  130PPPE  H12Y50183   0.005   1.650   9.336
  130PPPE  C31350184   0.047   1.609   9.542
  130PPPE  H13X50185   0.117   1.549   9.604
  130PPPE  H13Y50186   8.088   1.572   9.560
  130PPPE  C31450187   0.053   1.753   9.593
  130PPPE  H14X50188   8.143   1.822   9.525
  130PPPE  H14Y50189   0.160   1.783   9.594
  130PPPE  C31550190   8.138   1.770   9.734
  130PPPE  H15X50191   8.032   1.740   9.731
  130PPPE  H15Y50192   8.140   1.878   9.761
  130PPPE  C31650193   0.068   1.691   9.842
  130PPPE  H16X50194   0.172   1.727   9.852
  130PPPE  H16Y50195   0.016   1.706   9.939
  130PPPE  H16Z50196   0.069   1.583   9.819
  131PPPE     N50197   1.174   8.087   7.891
  131PPPE   HN150198   1.077   8.110   7.923
  131PPPE   HN250199   1.187   7.984   7.896
  131PPPE   HN350200   1.241   8.132   7.957
  131PPPE   C1250201   1.189   8.144   7.752
  131PPPE  H12A50202   1.175   8.061   7.680
  131PPPE  H12B50203   1.293   0.039   7.742
  131PPPE   C1150204   1.089   0.112   7.722
  131PPPE  H11A50205   1.123   0.166   7.632
  131PPPE  H11B50206   1.086   0.187   7.804
  131PPPE     P50207   0.838   0.071   7.789
  131PPPE   O1350208   0.790   0.211   7.774
  131PPPE   O1450209   0.745   8.104   7.761
  131PPPE   O1150210   0.913   0.048   7.928
  131PPPE   O1250211   0.962   0.053   7.692
  131PPPE    C150212   0.890   8.073   8.004
  131PPPE    HA50213   0.979   8.050   8.068
  131PPPE    HB50214   0.874   7.984   7.939
  131PPPE    C250215   0.771   8.084   8.103
  131PPPE    HS50216   0.689   8.138   8.051
  131PPPE   O2150217   0.817   0.010   8.221
  131PPPE   C2150218   0.716   0.056   8.296
  131PPPE   O2250219   0.601   0.067   8.257
  131PPPE   C2250220   0.763   0.088   8.438
  131PPPE   H2R50221   0.864   0.045   8.455
  131PPPE   H2S50222   0.692   0.037   8.506
  131PPPE    C350223   0.723   7.941   8.141
  131PPPE    HX50224   0.638   7.944   8.213
  131PPPE    HY50225   0.682   7.894   8.048
  131PPPE   O3150226   0.834   7.862   8.186
  131PPPE   C3150227   0.858   7.870   8.318
  131PPPE   O3250228   0.780   7.916   8.400
  131PPPE   C3250229   0.997   7.819   8.346
  131PPPE   H2X50230   1.068   7.905   8.341
  131PPPE   H2Y50231   1.028   7.749   8.265
  131PPPE   C2350232   0.760   0.240   8.467
  131PPPE   H3R50233   0.671   0.284   8.417
  131PPPE   H3S50234   0.851   0.289   8.425
  131PPPE   C2450235   0.747   0.272   8.617
  131PPPE   H4R50236   0.658   0.220   8.657
  131PPPE   H4S50237   0.730   0.382   8.626
  131PPPE   C2550238   0.870   0.238   8.701
  131PPPE   H5R50239   0.957   0.294   8.659
  131PPPE   H5S50240   0.893   0.130   8.694
  131PPPE   C2650241   0.857   0.279   8.849
  131PPPE   H6R50242   0.838   0.388   8.854
  131PPPE   H6S50243   0.954   0.260   8.900
  131PPPE   C2750244   0.746   0.204   8.924
  131PPPE   H7R50245   0.751   0.096   8.901
  131PPPE   H7S50246   0.648   0.240   8.887
  131PPPE   C2850247   0.751   0.227   9.077
  131PPPE   H8R50248   0.651   0.202   9.119
  131PPPE   H8S50249   0.770   0.334   9.097
  131PPPE   C2950250   0.855   0.138   9.139
  131PPPE   H9150251   0.847   0.033   9.106
  131PPPE  C21050252   0.953   0.171   9.224
  131PPPE  H10150253   1.023   0.093   9.258
  131PPPE  C21150254   0.986   0.306   9.280
  131PPPE  H11R50255   0.895   0.370   9.280
  131PPPE  H11S50256   1.064   0.356   9.218
  131PPPE  C21250257   1.036   0.297   9.425
  131PPPE  H12R50258   1.085   0.392   9.452
  131PPPE  H12S50259   1.112   0.217   9.436
  131PPPE  C21350260   0.921   0.273   9.523
  131PPPE  H13R50261   0.863   0.184   9.491
  131PPPE  H13S50262   0.852   0.360   9.520
  131PPPE  C21450263   0.969   0.250   9.667
  131PPPE  H14R50264   1.022   0.340   9.704
  131PPPE  H14S50265   1.042   0.167   9.667
  131PPPE  C21550266   0.854   0.215   9.761
  131PPPE  H15R50267   0.897   0.181   9.858
  131PPPE  H15S50268   0.798   0.129   9.719
  131PPPE  C21650269   0.757   0.331   9.788
  131PPPE  H16R50270   0.677   0.299   9.859
  131PPPE  H16S50271   0.811   0.417   9.833
  131PPPE  H16T50272   0.709   0.365   9.694
  131PPPE   C3350273   1.009   7.748   8.483
  131PPPE   H3X50274   1.087   7.670   8.474
  131PPPE   H3Y50275   0.916   7.693   8.511
  131PPPE   C3450276   1.050   7.845   8.594
  131PPPE   H4X50277   0.966   7.864   8.664
  131PPPE   H4Y50278   1.074   7.943   8.547
  131PPPE   C3550279   1.176   7.800   8.670
  131PPPE   H5X50280   1.234   7.888   8.703
  131PPPE   H5Y50281   1.242   7.744   8.600
  131PPPE   C3650282   1.146   7.714   8.793
  131PPPE   H6X50283   1.215   7.627   8.790
  131PPPE   H6Y50284   1.042   7.674   8.790
  131PPPE   C3750285   1.172   7.788   8.924
  131PPPE   H7X50286   1.266   7.847   8.918
  131PPPE   H7Y50287   1.190   7.710   9.001
  131PPPE   C3850288   1.057   7.878   8.974
  131PPPE   H8X50289   0.964   7.859   8.915
  131PPPE   H8Y50290   1.084   7.985   8.959
  131PPPE   C3950291   1.029   7.849   9.122
  131PPPE   H9X50292   1.124   7.815   9.167
  131PPPE   H9Y50293   0.955   7.767   9.127
  131PPPE  C31050294   0.983   7.966   9.209
  131PPPE  H10X50295   0.878   7.993   9.184
  131PPPE  H10Y50296   1.050   8.052   9.188
  131PPPE  C31150297   0.991   7.931   9.359
  131PPPE  H11X50298   1.093   7.893   9.381
  131PPPE  H11Y50299   0.919   7.849   9.379
  131PPPE  C31250300   0.964   8.047   9.456
  131PPPE  H12X50301   0.864   8.091   9.435
  131PPPE  H12Y50302   1.039   8.126   9.439
  131PPPE  C31350303   0.972   8.007   9.605
  131PPPE  H13X50304   0.962   8.099   9.667
  131PPPE  H13Y50305   1.072   7.965   9.625
  131PPPE  C31450306   0.865   7.908   9.653
  131PPPE  H14X50307   0.872   7.813   9.595
  131PPPE  H14Y50308   0.763   7.949   9.634
  131PPPE  C31550309   0.877   7.875   9.802
  131PPPE  H15X50310   0.843   7.963   9.861
  131PPPE  H15Y50311   0.985   7.859   9.827
  131PPPE  C31650312   0.799   7.750   9.844
  131PPPE  H16X50313   0.807   7.735   9.954
  131PPPE  H16Y50314   0.691   7.760   9.818
  131PPPE  H16Z50315   0.839   7.660   9.793
  132PVCL2   C350316   5.540   2.725   7.581
  132PVCL2 HG3150317   5.576   2.780   7.491
  132PVCL2 HG3250318   5.464   2.653   7.545
  132PVCL2   P350319   5.391   2.780   7.790
  132PVCL2 OP3350320   5.443   2.657   7.853
  132PVCL2 OP3450321   5.251   2.776   7.741
  132PVCL2 OP3150322   5.484   2.821   7.670
  132PVCL2 OP3250323   5.408   2.906   7.885
  132PVCL2  C3150324   5.412   3.039   7.829
  132PVCL2 H31J50325   5.517   3.075   7.829
  132PVCL2 H31K50326   5.377   3.041   7.724
  132PVCL2   C250327   5.663   2.653   7.642
  132PVCL2 HG2250328   5.700   2.711   7.728
  132PVCL2 OG1250329   5.621   2.524   7.688
  132PVCL2 HO1250330   5.552   2.548   7.750
  132PVCL2   C150331   5.779   2.637   7.540
  132PVCL2 HG1150332   5.735   2.601   7.444
  132PVCL2 HG1250333   5.848   2.558   7.576
  132PVCL2   P150334   5.994   2.792   7.560
  132PVCL2 OP1350335   6.076   2.764   7.439
  132PVCL2 OP1450336   6.006   2.929   7.612
  132PVCL2 OP1150337   5.844   2.763   7.519
  132PVCL2 OP1250338   6.033   2.686   7.672
  132PVCL2  C1150339   5.997   2.706   7.809
  132PVCL2 H11J50340   5.914   2.778   7.822
  132PVCL2 H11K50341   6.084   2.748   7.865
  132PVCL2  C1250342   5.954   2.572   7.874
  132PVCL2 H12J50343   5.949   2.497   7.792
  132PVCL2  O1250344   5.825   2.588   7.935
  132PVCL2  CA150345   5.767   2.474   7.969
  132PVCL2  OA150346   5.801   2.364   7.929
  132PVCL2  CA250347   5.656   2.501   8.069
  132PVCL2  H2A50348   5.586   2.414   8.067
  132PVCL2  H2B50349   5.601   2.591   8.035
  132PVCL2  C1350350   6.056   2.522   7.981
  132PVCL2 H13J50351   6.155   2.524   7.932
  132PVCL2 H13K50352   6.033   2.417   8.010
  132PVCL2  O1350353   6.052   2.606   8.098
  132PVCL2  CB150354   6.166   2.623   8.163
  132PVCL2  OB150355   6.273   2.573   8.130
  132PVCL2  CB250356   6.141   2.720   8.278
  132PVCL2  H2D50357   6.238   2.757   8.316
  132PVCL2  H2E50358   6.089   2.665   8.360
  132PVCL2  C3250359   5.320   3.139   7.906
  132PVCL2 H32J50360   5.266   3.200   7.830
  132PVCL2  O3250361   5.395   3.226   7.994
  132PVCL2  CC150362   5.471   3.315   7.932
  132PVCL2  OC150363   5.463   3.343   7.813
  132PVCL2  CC250364   5.566   3.385   8.030
  132PVCL2  H2R50365   5.523   3.485   8.051
  132PVCL2  H2S50366   5.663   3.401   7.979
  132PVCL2  C3350367   5.210   3.065   7.988
  132PVCL2 H33J50368   5.126   3.135   8.008
  132PVCL2 H33K50369   5.169   2.984   7.923
  132PVCL2  O3350370   5.261   3.004   8.108
  132PVCL2  CD150371   5.245   3.070   8.221
  132PVCL2  OD150372   5.187   3.177   8.234
  132PVCL2  CD250373   5.297   2.979   8.333
  132PVCL2  H2X50374   5.406   2.965   8.319
  132PVCL2  H2Y50375   5.255   2.877   8.316
  132PVCL2  CA350376   5.710   2.524   8.212
  132PVCL2  H3A50377   5.784   2.607   8.210
  132PVCL2  H3B50378   5.762   2.434   8.250
  132PVCL2  CA450379   5.597   2.562   8.309
  132PVCL2  H4A50380   5.522   2.480   8.312
  132PVCL2  H4B50381   5.545   2.652   8.269
  132PVCL2  CA550382   5.643   2.592   8.453
  132PVCL2  H5A50383   5.689   2.502   8.498
  132PVCL2  H5B50384   5.553   2.618   8.513
  132PVCL2  CA650385   5.742   2.709   8.461
  132PVCL2  H6A50386   5.707   2.789   8.391
  132PVCL2  H6B50387   5.842   2.675   8.425
  132PVCL2  CA750388   5.756   2.772   8.600
  132PVCL2  H7A50389   5.658   2.814   8.631
  132PVCL2  H7B50390   5.826   2.857   8.594
  132PVCL2  CA850391   5.806   2.678   8.710
  132PVCL2  H8A50392   5.730   2.600   8.733
  132PVCL2  H8B50393   5.819   2.739   8.802
  132PVCL2  CA950394   5.940   2.610   8.677
  132PVCL2  H9A50395   6.002   2.682   8.621
  132PVCL2  H9B50396   5.921   2.522   8.610
  132PVCL2 CA1050397   6.020   2.566   8.801
  132PVCL2 H10A50398   6.051   2.659   8.854
  132PVCL2 H10B50399   6.114   2.518   8.768
  132PVCL2 CA1150400   5.946   2.474   8.895
  132PVCL2 H11A50401   5.929   2.372   8.857
  132PVCL2 CA1250402   5.900   2.506   9.017
  132PVCL2 H12A50403   5.852   2.429   9.079
  132PVCL2 CA1350404   5.913   2.641   9.082
  132PVCL2 H13A50405   5.884   2.719   9.008
  132PVCL2 H13B50406   6.019   2.661   9.109
  132PVCL2 CA1450407   5.826   2.665   9.207
  132PVCL2 H14A50408   5.727   2.615   9.197
  132PVCL2 H14B50409   5.806   2.774   9.212
  132PVCL2 CA1550410   5.894   2.624   9.338
  132PVCL2 H15A50411   5.993   2.674   9.343
  132PVCL2 H15B50412   5.911   2.515   9.340
  132PVCL2 CA1650413   5.815   2.666   9.464
  132PVCL2 H16A50414   5.873   2.635   9.554
  132PVCL2 H16B50415   5.718   2.613   9.467
  132PVCL2 CA1750416   5.790   2.817   9.472
  132PVCL2 H17A50417   5.717   2.847   9.394
  132PVCL2 H17B50418   5.885   2.871   9.451
  132PVCL2 CA1850419   5.737   2.862   9.608
  132PVCL2 H18A50420   5.815   2.849   9.687
  132PVCL2 H18B50421   5.649   2.801   9.637
  132PVCL2 H18C50422   5.707   2.969   9.606
  132PVCL2  CB350423   6.053   2.841   8.234
  132PVCL2  H3D50424   5.959   2.805   8.187
  132PVCL2  H3E50425   6.108   2.900   8.158
  132PVCL2  CB450426   6.012   2.935   8.348
  132PVCL2  H4D50427   5.929   2.888   8.406
  132PVCL2  H4E50428   5.971   3.028   8.304
  132PVCL2  CB550429   6.123   2.972   8.447
  132PVCL2  H5D50430   6.211   3.008   8.391
  132PVCL2  H5E50431   6.153   2.883   8.507
  132PVCL2  CB650432   6.080   3.085   8.540
  132PVCL2  H6D50433   5.991   3.052   8.599
  132PVCL2  H6E50434   6.046   3.170   8.477
  132PVCL2  CB750435   6.191   3.135   8.634
  132PVCL2  H7D50436   6.154   3.226   8.686
  132PVCL2  H7E50437   6.279   3.165   8.574
  132PVCL2  CB850438   6.233   3.033   8.741
  132PVCL2  H8D50439   6.303   3.083   8.812
  132PVCL2  H8E50440   6.287   2.949   8.694
  132PVCL2  CB950441   6.112   2.980   8.819
  132PVCL2  H9D50442   6.051   2.917   8.752
  132PVCL2  H9E50443   6.050   3.067   8.849
  132PVCL2 CB1050444   6.147   2.896   8.942
  132PVCL2 H10D50445   6.217   2.814   8.913
  132PVCL2 H10E50446   6.052   2.849   8.976
  132PVCL2 CB1150447   6.203   2.975   9.061
  132PVCL2 H11D50448   6.141   3.066   9.076
  132PVCL2 H11E50449   6.306   3.008   9.039
  132PVCL2 CB1250450   6.201   2.892   9.191
  132PVCL2 H12D50451   6.100   2.848   9.205
  132PVCL2 H12E50452   6.218   2.961   9.277
  132PVCL2 CB1350453   6.306   2.781   9.191
  132PVCL2 H13D50454   6.406   2.831   9.193
  132PVCL2 H13E50455   6.297   2.723   9.097
  132PVCL2 CB1450456   6.302   2.683   9.309
  132PVCL2 H14D50457   6.381   2.606   9.295
  132PVCL2 H14E50458   6.204   2.631   9.306
  132PVCL2 CB1550459   6.321   2.747   9.447
  132PVCL2 H15D50460   6.287   2.674   9.523
  132PVCL2 H15E50461   6.256   2.837   9.456
  132PVCL2 CB1650462   6.466   2.785   9.481
  132PVCL2 H16D50463   6.471   2.828   9.583
  132PVCL2 H16E50464   6.506   2.860   9.409
  132PVCL2 H16F50465   6.532   2.695   9.477
  132PVCL2  CC350466   5.589   3.309   8.164
  132PVCL2  H3R50467   5.493   3.268   8.201
  132PVCL2  H3S50468   5.624   3.381   8.241
  132PVCL2  CC450469   5.694   3.197   8.153
  132PVCL2  H4R50470   5.792   3.236   8.187
  132PVCL2  H4S50471   5.705   3.168   8.047
  132PVCL2  CC550472   5.659   3.069   8.231
  132PVCL2  H5R50473   5.746   3.000   8.229
  132PVCL2  H5S50474   5.577   3.019   8.176
  132PVCL2  CC650475   5.613   3.089   8.377
  132PVCL2  H6R50476   5.582   2.989   8.416
  132PVCL2  H6S50477   5.524   3.155   8.381
  132PVCL2  CC750478   5.718   3.140   8.475
  132PVCL2  H7R50479   5.760   3.237   8.442
  132PVCL2  H7S50480   5.800   3.066   8.479
  132PVCL2  CC850481   5.659   3.155   8.616
  132PVCL2  H8R50482   5.583   3.076   8.636
  132PVCL2  H8S50483   5.607   3.253   8.623
  132PVCL2  CC950484   5.768   3.145   8.723
  132PVCL2  H9R50485   5.859   3.192   8.679
  132PVCL2  H9S50486   5.793   3.039   8.745
  132PVCL2 CC1050487   5.740   3.223   8.852
  132PVCL2 H10R50488   5.697   3.322   8.827
  132PVCL2 H10S50489   5.841   3.243   8.894
  132PVCL2 CC1150490   5.658   3.154   8.957
  132PVCL2 H11R50491   5.550   3.174   8.954
  132PVCL2 CC1250492   5.708   3.077   9.055
  132PVCL2 H12R50493   5.641   3.043   9.136
  132PVCL2 CC1350494   5.852   3.042   9.082
  132PVCL2 H13R50495   5.921   3.085   9.006
  132PVCL2 H13S50496   5.863   2.931   9.076
  132PVCL2 CC1450497   5.897   3.089   9.221
  132PVCL2 H14R50498   5.982   3.028   9.257
  132PVCL2 H14S50499   5.815   3.074   9.294
  132PVCL2 CC1550500   5.941   3.236   9.220
  132PVCL2 H15R50501   5.873   3.292   9.152
  132PVCL2 H15S50502   6.044   3.247   9.181
  132PVCL2 CC1650503   5.929   3.298   9.359
  132PVCL2 H16R50504   5.825   3.274   9.392
  132PVCL2 H16S50505   5.938   3.409   9.353
  132PVCL2 CC1750506   6.022   3.243   9.466
  132PVCL2 H17R50507   6.076   3.329   9.511
  132PVCL2 H17S50508   6.097   3.176   9.419
  132PVCL2 CC1850509   5.949   3.168   9.578
  132PVCL2 H18R50510   6.021   3.131   9.654
  132PVCL2 H18S50511   5.894   3.081   9.536
  132PVCL2 H18T50512   5.876   3.235   9.629
  132PVCL2  CD350513   5.261   3.019   8.479
  132PVCL2  H3X50514   5.184   3.099   8.479
  132PVCL2  H3Y50515   5.351   3.060   8.530
  132PVCL2  CD450516   5.204   2.901   8.559
  132PVCL2  H4X50517   5.120   2.857   8.501
  132PVCL2  H4Y50518   5.163   2.937   8.656
  132PVCL2  CD550519   5.303   2.786   8.586
  132PVCL2  H5X50520   5.365   2.768   8.496
  132PVCL2  H5Y50521   5.244   2.693   8.603
  132PVCL2  CD650522   5.392   2.807   8.709
  132PVCL2  H6X50523   5.448   2.902   8.697
  132PVCL2  H6Y50524   5.467   2.725   8.712
  132PVCL2  CD750525   5.317   2.806   8.843
  132PVCL2  H7X50526   5.359   2.725   8.906
  132PVCL2  H7Y50527   5.209   2.784   8.828
  132PVCL2  CD850528   5.331   2.939   8.920
  132PVCL2  H8X50529   5.274   3.019   8.869
  132PVCL2  H8Y50530   5.439   2.968   8.916
  132PVCL2  CD950531   5.290   2.929   9.068
  132PVCL2  H9X50532   5.257   2.825   9.089
  132PVCL2  H9Y50533   5.205   2.997   9.089
  132PVCL2 CD1050534   5.407   2.962   9.161
  132PVCL2 H10X50535   5.430   3.071   9.157
  132PVCL2 H10Y50536   5.494   2.905   9.122
  132PVCL2 CD1150537   5.391   2.918   9.307
  132PVCL2 H11X50538   5.492   2.906   9.352
  132PVCL2 H11Y50539   5.342   2.819   9.309
  132PVCL2 CD1250540   5.313   3.017   9.396
  132PVCL2 H12X50541   5.227   3.057   9.339
  132PVCL2 H12Y50542   5.378   3.102   9.425
  132PVCL2 CD1350543   5.258   2.947   9.522
  132PVCL2 H13X50544   5.197   2.862   9.485
  132PVCL2 H13Y50545   5.191   3.017   9.577
  132PVCL2 CD1450546   5.363   2.888   9.617
  132PVCL2 H14X50547   5.444   2.840   9.559
  132PVCL2 H14Y50548   5.315   2.808   9.678
  132PVCL2 CD1550549   5.422   2.990   9.716
  132PVCL2 H15X50550   5.457   3.079   9.660
  132PVCL2 H15Y50551   5.511   2.944   9.764
  132PVCL2 CD1650552   5.326   3.031   9.827
  132PVCL2 H16X50553   5.285   2.942   9.879
  132PVCL2 H16Y50554   5.240   3.089   9.786
  132PVCL2 H16Z50555   5.378   3.094   9.903
  133PVCL2   C350556   3.099   7.111   7.659
  133PVCL2 HG3150557   3.066   7.076   7.759
  133PVCL2 HG3250558   3.013   7.161   7.611
  133PVCL2   P350559   3.041   6.916   7.496
  133PVCL2 OP3350560   3.089   6.777   7.475
  133PVCL2 OP3450561   3.015   6.996   7.374
  133PVCL2 OP3150562   3.146   7.000   7.580
  133PVCL2 OP3250563   2.910   6.918   7.584
  133PVCL2  C3150564   2.901   6.857   7.714
  133PVCL2 H31J50565   2.886   6.748   7.703
  133PVCL2 H31K50566   2.993   6.873   7.774
  133PVCL2   C250567   3.209   7.218   7.681
  133PVCL2 HG2250568   3.263   7.235   7.585
  133PVCL2 OG1250569   3.146   7.339   7.721
  133PVCL2 HO1250570   3.122   7.319   7.812
  133PVCL2   C150571   3.312   7.179   7.790
  133PVCL2 HG1150572   3.254   7.154   7.881
  133PVCL2 HG1250573   3.375   7.268   7.814
  133PVCL2   P150574   3.444   6.965   7.855
  133PVCL2 OP1350575   3.328   6.885   7.897
  133PVCL2 OP1450576   3.563   6.895   7.801
  133PVCL2 OP1150577   3.398   7.073   7.746
  133PVCL2 OP1250578   3.489   7.059   7.975
  133PVCL2  C1150579   3.628   7.075   8.002
  133PVCL2 H11J50580   3.682   7.110   7.911
  133PVCL2 H11K50581   3.671   6.977   8.032
  133PVCL2  C1250582   3.657   7.177   8.117
  133PVCL2 H12J50583   3.766   7.175   8.138
  133PVCL2  O1250584   3.582   7.144   8.236
  133PVCL2  CA150585   3.632   7.040   8.302
  133PVCL2  OA150586   3.741   6.990   8.279
  133PVCL2  CA250587   3.537   7.002   8.416
  133PVCL2  H2A50588   3.437   6.979   8.373
  133PVCL2  H2B50589   3.527   7.090   8.483
  133PVCL2  C1350590   3.626   7.323   8.073
  133PVCL2 H13J50591   3.688   7.343   7.983
  133PVCL2 H13K50592   3.664   7.392   8.152
  133PVCL2  O1350593   3.488   7.346   8.038
  133PVCL2  CB150594   3.413   7.398   8.135
  133PVCL2  OB150595   3.455   7.442   8.241
  133PVCL2  CB250596   3.267   7.401   8.089
  133PVCL2  H2D50597   3.233   7.295   8.085
  133PVCL2  H2E50598   3.264   7.443   7.986
  133PVCL2  C3250599   2.780   6.915   7.794
  133PVCL2 H32J50600   2.688   6.885   7.740
  133PVCL2  O3250601   2.793   7.057   7.808
  133PVCL2  CC150602   2.718   7.128   7.728
  133PVCL2  OC150603   2.650   7.087   7.635
  133PVCL2  CC250604   2.729   7.276   7.766
  133PVCL2  H2R50605   2.764   7.326   7.673
  133PVCL2  H2S50606   2.806   7.288   7.845
  133PVCL2  C3350607   2.769   6.854   7.937
  133PVCL2 H33J50608   2.683   6.901   7.989
  133PVCL2 H33K50609   2.741   6.747   7.923
  133PVCL2  O3350610   2.891   6.859   8.014
  133PVCL2  CD150611   2.903   6.958   8.101
  133PVCL2  OD150612   2.829   7.055   8.111
  133PVCL2  CD250613   3.023   6.931   8.193
  133PVCL2  H2X50614   3.088   6.857   8.142
  133PVCL2  H2Y50615   2.985   6.886   8.288
  133PVCL2  CA350616   3.589   6.880   8.497
  133PVCL2  H3A50617   3.696   6.895   8.522
  133PVCL2  H3B50618   3.580   6.789   8.435
  133PVCL2  CA450619   3.516   6.856   8.630
  133PVCL2  H4A50620   3.523   6.946   8.695
  133PVCL2  H4B50621   3.567   6.773   8.684
  133PVCL2  CA550622   3.368   6.817   8.613
  133PVCL2  H5A50623   3.359   6.732   8.542
  133PVCL2  H5B50624   3.312   6.903   8.570
  133PVCL2  CA650625   3.304   6.776   8.747
  133PVCL2  H6A50626   3.335   6.845   8.828
  133PVCL2  H6B50627   3.344   6.675   8.774
  133PVCL2  CA750628   3.151   6.773   8.740
  133PVCL2  H7A50629   3.123   6.774   8.632
  133PVCL2  H7B50630   3.108   6.864   8.785
  133PVCL2  CA850631   3.090   6.648   8.805
  133PVCL2  H8A50632   3.169   6.595   8.862
  133PVCL2  H8B50633   3.054   6.581   8.724
  133PVCL2  CA950634   2.972   6.672   8.899
  133PVCL2  H9A50635   2.904   6.584   8.899
  133PVCL2  H9B50636   2.913   6.759   8.862
  133PVCL2 CA1050637   3.014   6.697   9.045
  133PVCL2 H10A50638   2.924   6.742   9.092
  133PVCL2 H10B50639   3.094   6.774   9.047
  133PVCL2 CA1150640   3.052   6.577   9.128
  133PVCL2 H11A50641   3.159   6.551   9.127
  133PVCL2 CA1250642   2.967   6.503   9.203
  133PVCL2 H12A50643   3.006   6.420   9.262
  133PVCL2 CA1350644   2.818   6.524   9.218
  133PVCL2 H13A50645   2.765   6.430   9.195
  133PVCL2 H13B50646   2.779   6.599   9.146
  133PVCL2 CA1450647   2.779   6.564   9.362
  133PVCL2 H14A50648   2.860   6.622   9.410
  133PVCL2 H14B50649   2.766   6.471   9.421
  133PVCL2 CA1550650   2.652   6.651   9.369
  133PVCL2 H15A50651   2.619   6.656   9.475
  133PVCL2 H15B50652   2.569   6.606   9.309
  133PVCL2 CA1650653   2.683   6.792   9.320
  133PVCL2 H16A50654   2.701   6.786   9.211
  133PVCL2 H16B50655   2.777   6.822   9.371
  133PVCL2 CA1750656   2.582   6.903   9.349
  133PVCL2 H17A50657   2.630   7.000   9.322
  133PVCL2 H17B50658   2.566   6.905   9.459
  133PVCL2 CA1850659   2.448   6.895   9.276
  133PVCL2 H18A50660   2.462   6.880   9.167
  133PVCL2 H18B50661   2.389   6.988   9.292
  133PVCL2 H18C50662   2.389   6.811   9.318
  133PVCL2  CB350663   3.176   7.482   8.184
  133PVCL2  H3D50664   3.204   7.589   8.181
  133PVCL2  H3E50665   3.192   7.447   8.288
  133PVCL2  CB450666   3.026   7.468   8.149
  133PVCL2  H4D50667   2.997   7.361   8.151
  133PVCL2  H4E50668   3.013   7.505   8.045
  133PVCL2  CB550669   2.934   7.547   8.244
  133PVCL2  H5D50670   2.830   7.547   8.206
  133PVCL2  H5E50671   2.969   7.653   8.245
  133PVCL2  CB650672   2.930   7.496   8.389
  133PVCL2  H6D50673   3.034   7.474   8.423
  133PVCL2  H6E50674   2.874   7.400   8.395
  133PVCL2  CB750675   2.870   7.600   8.485
  133PVCL2  H7D50676   2.761   7.607   8.468
  133PVCL2  H7E50677   2.914   7.698   8.459
  133PVCL2  CB850678   2.897   7.579   8.636
  133PVCL2  H8D50679   3.001   7.546   8.656
  133PVCL2  H8E50680   2.830   7.499   8.675
  133PVCL2  CB950681   2.873   7.713   8.708
  133PVCL2  H9D50682   2.786   7.758   8.657
  133PVCL2  H9E50683   2.960   7.779   8.690
  133PVCL2 CB1050684   2.835   7.716   8.858
  133PVCL2 H10D50685   2.868   7.814   8.898
  133PVCL2 H10E50686   2.889   7.637   8.915
  133PVCL2 CB1150687   2.683   7.708   8.878
  133PVCL2 H11D50688   2.657   7.603   8.902
  133PVCL2 H11E50689   2.630   7.732   8.784
  133PVCL2 CB1250690   2.621   7.796   8.988
  133PVCL2 H12D50691   2.516   7.814   8.956
  133PVCL2 H12E50692   2.672   7.894   8.997
  133PVCL2 CB1350693   2.612   7.725   9.123
  133PVCL2 H13D50694   2.712   7.722   9.172
  133PVCL2 H13E50695   2.578   7.621   9.103
  133PVCL2 CB1450696   2.507   7.776   9.221
  133PVCL2 H14D50697   2.520   7.885   9.239
  133PVCL2 H14E50698   2.528   7.726   9.318
  133PVCL2 CB1550699   2.364   7.737   9.183
  133PVCL2 H15D50700   2.366   7.647   9.118
  133PVCL2 H15E50701   2.316   7.818   9.124
  133PVCL2 CB1650702   2.278   7.703   9.305
  133PVCL2 H16D50703   2.316   7.610   9.353
  133PVCL2 H16E50704   2.171   7.688   9.278
  133PVCL2 H16F50705   2.284   7.784   9.381
  133PVCL2  CC350706   2.593   7.338   7.807
  133PVCL2  H3R50707   2.507   7.283   7.764
  133PVCL2  H3S50708   2.588   7.441   7.765
  133PVCL2  CC450709   2.576   7.348   7.960
  133PVCL2  H4R50710   2.502   7.428   7.984
  133PVCL2  H4S50711   2.672   7.375   8.008
  133PVCL2  CC550712   2.524   7.219   8.024
  133PVCL2  H5R50713   2.583   7.133   7.987
  133PVCL2  H5S50714   2.418   7.203   7.995
  133PVCL2  CC650715   2.537   7.223   8.177
  133PVCL2  H6R50716   2.484   7.311   8.218
  133PVCL2  H6S50717   2.645   7.233   8.201
  133PVCL2  CC750718   2.485   7.095   8.246
  133PVCL2  H7R50719   2.509   7.007   8.183
  133PVCL2  H7S50720   2.375   7.102   8.257
  133PVCL2  CC850721   2.551   7.075   8.383
  133PVCL2  H8R50722   2.538   7.168   8.442
  133PVCL2  H8S50723   2.660   7.061   8.367
  133PVCL2  CC950724   2.496   6.958   8.465
  133PVCL2  H9R50725   2.533   6.863   8.422
  133PVCL2  H9S50726   2.385   6.958   8.457
  133PVCL2 CC1050727   2.532   6.965   8.616
  133PVCL2 H10R50728   2.501   6.869   8.663
  133PVCL2 H10S50729   2.470   7.044   8.663
  133PVCL2 CC1150730   2.679   6.990   8.644
  133PVCL2 H11R50731   2.744   6.995   8.555
  133PVCL2 CC1250732   2.734   7.003   8.765
  133PVCL2 H12R50733   2.843   7.018   8.773
  133PVCL2 CC1350734   2.662   6.995   8.897
  133PVCL2 H13R50735   2.579   6.922   8.890
  133PVCL2 H13S50736   2.612   7.092   8.918
  133PVCL2 CC1450737   2.745   6.957   9.022
  133PVCL2 H14R50738   2.761   6.847   9.017
  133PVCL2 H14S50739   2.679   6.977   9.109
  133PVCL2 CC1550740   2.881   7.024   9.051
  133PVCL2 H15R50741   2.874   7.135   9.051
  133PVCL2 H15S50742   2.951   6.995   8.970
  133PVCL2 CC1650743   2.943   6.979   9.186
  133PVCL2 H16R50744   3.049   6.952   9.169
  133PVCL2 H16S50745   2.894   6.885   9.220
  133PVCL2 CC1750746   2.936   7.076   9.305
  133PVCL2 H17R50747   2.829   7.099   9.326
  133PVCL2 H17S50748   2.988   7.170   9.279
  133PVCL2 CC1850749   2.996   7.021   9.435
  133PVCL2 H18R50750   3.103   6.996   9.421
  133PVCL2 H18S50751   2.942   6.929   9.467
  133PVCL2 H18T50752   2.988   7.096   9.516
  133PVCL2  CD350753   3.107   7.057   8.224
  133PVCL2  H3X50754   3.119   7.114   8.129
  133PVCL2  H3Y50755   3.209   7.026   8.256
  133PVCL2  CD450756   3.048   7.149   8.333
  133PVCL2  H4X50757   2.939   7.163   8.318
  133PVCL2  H4Y50758   3.096   7.248   8.321
  133PVCL2  CD550759   3.077   7.105   8.477
  133PVCL2  H5X50760   3.184   7.077   8.484
  133PVCL2  H5Y50761   3.017   7.015   8.502
  133PVCL2  CD650762   3.048   7.217   8.578
  133PVCL2  H6X50763   2.940   7.244   8.571
  133PVCL2  H6Y50764   3.107   7.307   8.549
  133PVCL2  CD750765   3.081   7.184   8.724
  133PVCL2  H7X50766   3.022   7.095   8.755
  133PVCL2  H7Y50767   3.048   7.269   8.788
  133PVCL2  CD850768   3.229   7.154   8.753
  133PVCL2  H8X50769   3.289   7.246   8.736
  133PVCL2  H8Y50770   3.265   7.077   8.682
  133PVCL2  CD950771   3.254   7.102   8.895
  133PVCL2  H9X50772   3.362   7.077   8.903
  133PVCL2  H9Y50773   3.197   7.008   8.912
  133PVCL2 CD1050774   3.216   7.201   9.005
  133PVCL2 H10X50775   3.107   7.217   9.004
  133PVCL2 H10Y50776   3.264   7.298   8.982
  133PVCL2 CD1150777   3.258   7.155   9.145
  133PVCL2 H11X50778   3.214   7.055   9.166
  133PVCL2 H11Y50779   3.216   7.226   9.220
  133PVCL2 CD1250780   3.409   7.141   9.170
  133PVCL2 H12X50781   3.451   7.059   9.107
  133PVCL2 H12Y50782   3.421   7.109   9.275
  133PVCL2 CD1350783   3.489   7.270   9.148
  133PVCL2 H13X50784   3.421   7.357   9.151
  133PVCL2 H13Y50785   3.536   7.267   9.047
  133PVCL2 CD1450786   3.597   7.289   9.256
  133PVCL2 H14X50787   3.672   7.362   9.220
  133PVCL2 H14Y50788   3.648   7.193   9.275
  133PVCL2 CD1550789   3.535   7.344   9.386
  133PVCL2 H15X50790   3.445   7.284   9.411
  133PVCL2 H15Y50791   3.501   7.448   9.366
  133PVCL2 CD1650792   3.628   7.345   9.507
  133PVCL2 H16X50793   3.628   7.246   9.558
  133PVCL2 H16Y50794   3.595   7.421   9.580
  133PVCL2 H16Z50795   3.732   7.367   9.476
  134PVCL2   C350796   2.485   1.205   7.625
  134PVCL2 HG3150797   2.541   1.229   7.718
  134PVCL2 HG3250798   2.500   1.096   7.608
  134PVCL2   P350799   2.579   1.428   7.527
  134PVCL2 OP3350800   2.496   1.514   7.439
  134PVCL2 OP3450801   2.726   1.434   7.504
  134PVCL2 OP3150802   2.532   1.278   7.510
  134PVCL2 OP3250803   2.546   1.464   7.675
  134PVCL2  C3150804   2.632   1.528   7.769
  134PVCL2 H31J50805   2.695   1.605   7.720
  134PVCL2 H31K50806   2.568   1.580   7.844
  134PVCL2   C250807   2.334   1.228   7.652
  134PVCL2 HG2250808   2.316   1.336   7.670
  134PVCL2 OG1250809   2.265   1.186   7.535
  134PVCL2 HO1250810   2.335   1.202   7.471
  134PVCL2   C150811   2.285   1.151   7.777
  134PVCL2 HG1150812   2.304   1.042   7.763
  134PVCL2 HG1250813   2.176   1.164   7.787
  134PVCL2   P150814   2.284   1.283   8.003
  134PVCL2 OP1350815   2.184   1.196   8.067
  134PVCL2 OP1450816   2.382   1.352   8.089
  134PVCL2 OP1150817   2.358   1.196   7.892
  134PVCL2 OP1250818   2.210   1.389   7.913
  134PVCL2  C1150819   2.254   1.524   7.899
  134PVCL2 H11J50820   2.306   1.535   7.801
  134PVCL2 H11K50821   2.326   1.554   7.977
  134PVCL2  C1250822   2.132   1.622   7.904
  134PVCL2 H12J50823   2.171   1.726   7.899
  134PVCL2  O1250824   2.056   1.603   8.024
  134PVCL2  CA150825   2.119   1.633   8.136
  134PVCL2  OA150826   2.218   1.704   8.145
  134PVCL2  CA250827   2.040   1.572   8.251
  134PVCL2  H2A50828   2.036   1.462   8.233
  134PVCL2  H2B50829   1.937   1.612   8.247
  134PVCL2  C1350830   2.037   1.602   7.783
  134PVCL2 H13J50831   2.095   1.613   7.689
  134PVCL2 H13K50832   1.959   1.681   7.788
  134PVCL2  O1350833   1.977   1.472   7.789
  134PVCL2  CB150834   1.884   1.438   7.706
  134PVCL2  OB150835   1.850   1.497   7.604
  134PVCL2  CB250836   1.821   1.307   7.753
  134PVCL2  H2D50837   1.895   1.226   7.741
  134PVCL2  H2E50838   1.734   1.287   7.686
  134PVCL2  C3250839   2.724   1.431   7.852
  134PVCL2 H32J50840   2.786   1.376   7.779
  134PVCL2  O3250841   2.644   1.340   7.929
  134PVCL2  CC150842   2.712   1.239   7.982
  134PVCL2  OC150843   2.823   1.203   7.943
  134PVCL2  CC250844   2.637   1.176   8.099
  134PVCL2  H2R50845   2.551   1.118   8.060
  134PVCL2  H2S50846   2.597   1.261   8.159
  134PVCL2  C3350847   2.817   1.514   7.947
  134PVCL2 H33J50848   2.884   1.447   8.004
  134PVCL2 H33K50849   2.882   1.576   7.883
  134PVCL2  O3350850   2.739   1.602   8.031
  134PVCL2  CD150851   2.711   1.555   8.154
  134PVCL2  OD150852   2.767   1.461   8.206
  134PVCL2  CD250853   2.601   1.643   8.215
  134PVCL2  H2X50854   2.524   1.656   8.135
  134PVCL2  H2Y50855   2.644   1.742   8.240
  134PVCL2  CA350856   2.100   1.597   8.391
  134PVCL2  H3A50857   2.101   1.706   8.413
  134PVCL2  H3B50858   2.205   1.561   8.394
  134PVCL2  CA450859   2.020   1.523   8.498
  134PVCL2  H4A50860   2.024   1.414   8.478
  134PVCL2  H4B50861   1.913   1.555   8.492
  134PVCL2  CA550862   2.070   1.550   8.641
  134PVCL2  H5A50863   2.058   1.658   8.663
  134PVCL2  H5B50864   2.178   1.526   8.648
  134PVCL2  CA650865   1.993   1.468   8.745
  134PVCL2  H6A50866   2.040   1.367   8.754
  134PVCL2  H6B50867   1.888   1.452   8.710
  134PVCL2  CA750868   1.987   1.537   8.882
  134PVCL2  H7A50869   1.938   1.635   8.869
  134PVCL2  H7B50870   2.091   1.557   8.917
  134PVCL2  CA850871   1.911   1.457   8.989
  134PVCL2  H8A50872   1.806   1.442   8.955
  134PVCL2  H8B50873   1.908   1.517   9.082
  134PVCL2  CA950874   1.973   1.320   9.022
  134PVCL2  H9A50875   1.966   1.254   8.933
  134PVCL2  H9B50876   1.913   1.273   9.103
  134PVCL2 CA1050877   2.120   1.330   9.068
  134PVCL2 H10A50878   2.124   1.402   9.153
  134PVCL2 H10B50879   2.181   1.373   8.986
  134PVCL2 CA1150880   2.175   1.195   9.105
  134PVCL2 H11A50881   2.160   1.118   9.028
  134PVCL2 CA1250882   2.241   1.162   9.218
  134PVCL2 H12A50883   2.276   1.058   9.230
  134PVCL2 CA1350884   2.274   1.253   9.334
  134PVCL2 H13A50885   2.256   1.360   9.310
  134PVCL2 H13B50886   2.382   1.244   9.356
  134PVCL2 CA1450887   2.197   1.219   9.463
  134PVCL2 H14A50888   2.240   1.284   9.543
  134PVCL2 H14B50889   2.215   1.114   9.493
  134PVCL2 CA1550890   2.046   1.245   9.458
  134PVCL2 H15A50891   1.995   1.157   9.414
  134PVCL2 H15B50892   2.027   1.331   9.390
  134PVCL2 CA1650893   1.986   1.280   9.595
  134PVCL2 H16A50894   1.877   1.301   9.585
  134PVCL2 H16B50895   2.034   1.374   9.630
  134PVCL2 CA1750896   2.006   1.174   9.704
  134PVCL2 H17A50897   1.982   1.220   9.802
  134PVCL2 H17B50898   2.113   1.145   9.709
  134PVCL2 CA1850899   1.920   1.049   9.687
  134PVCL2 H18A50900   1.812   1.077   9.692
  134PVCL2 H18B50901   1.940   0.976   9.769
  134PVCL2 H18C50902   1.940   1.000   9.590
  134PVCL2  CB350903   1.771   1.313   7.900
  134PVCL2  H3D50904   1.690   1.237   7.911
  134PVCL2  H3E50905   1.729   1.412   7.925
  134PVCL2  CB450906   1.877   1.274   8.003
  134PVCL2  H4D50907   1.952   1.355   8.015
  134PVCL2  H4E50908   1.933   1.186   7.966
  134PVCL2  CB550909   1.819   1.238   8.141
  134PVCL2  H5D50910   1.734   1.167   8.128
  134PVCL2  H5E50911   1.782   1.329   8.193
  134PVCL2  CB650912   1.926   1.168   8.226
  134PVCL2  H6D50913   2.011   1.239   8.242
  134PVCL2  H6E50914   1.968   1.083   8.169
  134PVCL2  CB750915   1.880   1.116   8.363
  134PVCL2  H7D50916   1.792   1.049   8.351
  134PVCL2  H7E50917   1.851   1.202   8.427
  134PVCL2  CB850918   1.995   1.038   8.429
  134PVCL2  H8D50919   2.088   1.099   8.418
  134PVCL2  H8E50920   2.013   0.943   8.375
  134PVCL2  CB950921   1.976   1.011   8.579
  134PVCL2  H9D50922   1.947   1.105   8.629
  134PVCL2  H9E50923   2.074   0.980   8.621
  134PVCL2 CB1050924   1.873   0.901   8.610
  134PVCL2 H10D50925   1.911   0.802   8.575
  134PVCL2 H10E50926   1.780   0.923   8.555
  134PVCL2 CB1150927   1.841   0.893   8.760
  134PVCL2 H11D50928   1.756   0.824   8.778
  134PVCL2 H11E50929   1.808   0.995   8.793
  134PVCL2 CB1250930   1.957   0.853   8.851
  134PVCL2 H12D50931   2.051   0.905   8.820
  134PVCL2 H12E50932   1.975   0.744   8.843
  134PVCL2 CB1350933   1.928   0.891   8.997
  134PVCL2 H13D50934   1.834   0.842   9.028
  134PVCL2 H13E50935   1.912   1.000   9.005
  134PVCL2 CB1450936   2.041   0.850   9.093
  134PVCL2 H14D50937   2.128   0.917   9.079
  134PVCL2 H14E50938   2.075   0.748   9.068
  134PVCL2 CB1550939   1.997   0.856   9.240
  134PVCL2 H15D50940   1.909   0.790   9.254
  134PVCL2 H15E50941   1.965   0.960   9.264
  134PVCL2 CB1650942   2.107   0.814   9.338
  134PVCL2 H16D50943   2.068   0.815   9.442
  134PVCL2 H16E50944   2.193   0.884   9.332
  134PVCL2 H16F50945   2.143   0.712   9.315
  134PVCL2  CC350946   2.726   1.088   8.191
  134PVCL2  H3R50947   2.818   1.145   8.217
  134PVCL2  H3S50948   2.757   0.997   8.135
  134PVCL2  CC450949   2.657   1.047   8.322
  134PVCL2  H4R50950   2.727   0.982   8.379
  134PVCL2  H4S50951   2.566   0.988   8.301
  134PVCL2  CC550952   2.620   1.167   8.412
  134PVCL2  H5R50953   2.530   1.218   8.369
  134PVCL2  H5S50954   2.703   1.240   8.409
  134PVCL2  CC650955   2.593   1.131   8.559
  134PVCL2  H6R50956   2.577   1.225   8.615
  134PVCL2  H6S50957   2.684   1.082   8.601
  134PVCL2  CC750958   2.471   1.040   8.582
  134PVCL2  H7R50959   2.490   0.939   8.540
  134PVCL2  H7S50960   2.385   1.084   8.526
  134PVCL2  CC850961   2.430   1.028   8.730
  134PVCL2  H8R50962   2.336   0.969   8.737
  134PVCL2  H8S50963   2.409   1.129   8.769
  134PVCL2  CC950964   2.538   0.962   8.819
  134PVCL2  H9R50965   2.633   1.017   8.803
  134PVCL2  H9S50966   2.554   0.857   8.788
  134PVCL2 CC1050967   2.507   0.970   8.970
  134PVCL2 H10R50968   2.474   1.074   8.993
  134PVCL2 H10S50969   2.603   0.956   9.023
  134PVCL2 CC1150970   2.403   0.874   9.020
  134PVCL2 H11R50971   2.308   0.874   8.964
  134PVCL2 CC1250972   2.416   0.789   9.124
  134PVCL2 H12R50973   2.332   0.724   9.152
  134PVCL2 CC1350974   2.540   0.774   9.211
  134PVCL2 H13R50975   2.628   0.759   9.145
  134PVCL2 H13S50976   2.532   0.683   9.273
  134PVCL2 CC1450977   2.575   0.894   9.302
  134PVCL2 H14R50978   2.556   0.990   9.250
  134PVCL2 H14S50979   2.684   0.888   9.322
  134PVCL2 CC1550980   2.504   0.894   9.438
  134PVCL2 H15R50981   2.516   0.794   9.485
  134PVCL2 H15S50982   2.396   0.913   9.426
  134PVCL2 CC1650983   2.565   0.999   9.533
  134PVCL2 H16R50984   2.540   1.101   9.497
  134PVCL2 H16S50985   2.676   0.989   9.529
  134PVCL2 CC1750986   2.523   0.983   9.680
  134PVCL2 H17R50987   2.587   1.050   9.742
  134PVCL2 H17S50988   2.544   0.879   9.712
  134PVCL2 CC1850989   2.377   1.017   9.708
  134PVCL2 H18R50990   2.356   1.123   9.681
  134PVCL2 H18S50991   2.354   1.004   9.816
  134PVCL2 H18T50992   2.309   0.951   9.649
  134PVCL2  CD350993   2.529   1.582   8.338
  134PVCL2  H3X50994   2.523   1.471   8.331
  134PVCL2  H3Y50995   2.425   1.619   8.334
  134PVCL2  CD450996   2.587   1.626   8.474
  134PVCL2  H4X50997   2.604   1.735   8.470
  134PVCL2  H4Y50998   2.684   1.576   8.492
  134PVCL2  CD550999   2.489   1.597   8.589
  134PVCL2  H5X51000   2.482   1.488   8.607
  134PVCL2  H5Y51001   2.388   1.631   8.556
  134PVCL2  CD651002   2.520   1.673   8.719
  134PVCL2  H6X51003   2.429   1.672   8.783
  134PVCL2  H6Y51004   2.541   1.780   8.695
  134PVCL2  CD751005   2.635   1.616   8.804
  134PVCL2  H7X51006   2.648   1.682   8.893
  134PVCL2  H7Y51007   2.730   1.619   8.747
  134PVCL2  CD851008   2.608   1.473   8.853
  134PVCL2  H8X51009   2.623   1.403   8.769
  134PVCL2  H8Y51010   2.502   1.466   8.885
  134PVCL2  CD951011   2.696   1.430   8.972
  134PVCL2  H9X51012   2.676   1.496   9.059
  134PVCL2  H9Y51013   2.803   1.441   8.945
  134PVCL2 CD1051014   2.667   1.284   9.010
  134PVCL2 H10X51015   2.685   1.223   8.919
  134PVCL2 H10Y51016   2.559   1.273   9.037
  134PVCL2 CD1151017   2.755   1.229   9.123
  134PVCL2 H11X51018   2.857   1.273   9.117
  134PVCL2 H11Y51019   2.765   1.120   9.104
  134PVCL2 CD1251020   2.696   1.241   9.265
  134PVCL2 H12X51021   2.717   1.146   9.319
  134PVCL2 H12Y51022   2.586   1.252   9.259
  134PVCL2 CD1351023   2.756   1.353   9.351
  134PVCL2 H13X51024   2.710   1.346   9.452
  134PVCL2 H13Y51025   2.729   1.453   9.310
  134PVCL2 CD1451026   2.909   1.344   9.368
  134PVCL2 H14X51027   2.957   1.415   9.296
  134PVCL2 H14Y51028   2.943   1.242   9.341
  134PVCL2 CD1551029   2.958   1.373   9.510
  134PVCL2 H15X51030   2.895   1.454   9.555
  134PVCL2 H15Y51031   3.062   1.411   9.506
  134PVCL2 CD1651032   2.956   1.249   9.601
  134PVCL2 H16X51033   2.984   1.276   9.705
  134PVCL2 H16Y51034   3.027   1.173   9.564
  134PVCL2 H16Z51035   2.854   1.204   9.603
  135PVCL2   C351036   1.860   0.522   7.866
  135PVCL2 HG3151037   1.879   0.583   7.957
  135PVCL2 HG3251038   1.750   0.511   7.857
  135PVCL2   P351039   2.040   0.364   7.968
  135PVCL2 OP3351040   1.989   0.339   8.104
  135PVCL2 OP3451041   2.136   0.474   7.942
  135PVCL2 OP3151042   1.917   0.391   7.873
  135PVCL2 OP3251043   2.100   0.230   7.906
  135PVCL2  C3151044   2.126   0.228   7.765
  135PVCL2 H31J51045   2.030   0.221   7.711
  135PVCL2 H31K51046   2.177   0.321   7.732
  135PVCL2   C251047   1.906   0.600   7.740
  135PVCL2 HG2251048   1.845   0.692   7.731
  135PVCL2 OG1251049   2.043   0.637   7.752
  135PVCL2 HO1251050   2.074   0.587   7.828
  135PVCL2   C151051   1.889   0.515   7.611
  135PVCL2 HG1151052   1.951   0.424   7.627
  135PVCL2 HG1251053   1.932   0.572   7.526
  135PVCL2   P151054   1.716   0.351   7.507
  135PVCL2 OP1351055   1.624   0.385   7.395
  135PVCL2 OP1451056   1.838   0.281   7.464
  135PVCL2 OP1151057   1.751   0.485   7.583
  135PVCL2 OP1251058   1.637   0.261   7.611
  135PVCL2  C1151059   1.538   0.322   7.694
  135PVCL2 H11J51060   1.443   0.329   7.635
  135PVCL2 H11K51061   1.566   0.424   7.725
  135PVCL2  C1251062   1.505   0.238   7.822
  135PVCL2 H12J51063   1.395   0.246   7.840
  135PVCL2  O1251064   1.576   0.283   7.938
  135PVCL2  CA151065   1.539   0.399   7.988
  135PVCL2  OA151066   1.453   0.473   7.940
  135PVCL2  CA251067   1.613   0.422   8.119
  135PVCL2  H2A51068   1.609   0.530   8.144
  135PVCL2  H2B51069   1.719   0.392   8.105
  135PVCL2  C1351070   1.539   0.088   7.805
  135PVCL2 H13J51071   1.650   0.081   7.814
  135PVCL2 H13K51072   1.510   0.055   7.703
  135PVCL2  O1351073   1.467   0.013   7.906
  135PVCL2  CB151074   1.533   8.048   7.949
  135PVCL2  OB151075   1.625   7.995   7.890
  135PVCL2  CB251076   1.466   7.997   8.077
  135PVCL2  H2D51077   1.539   7.928   8.126
  135PVCL2  H2E51078   1.378   7.935   8.047
  135PVCL2  C3251079   2.215   0.106   7.723
  135PVCL2 H32J51080   2.192   0.084   7.616
  135PVCL2  O3251081   2.190   8.135   7.805
  135PVCL2  CC151082   2.063   8.100   7.811
  135PVCL2  OC151083   1.983   8.112   7.718
  135PVCL2  CC251084   2.037   8.025   7.940
  135PVCL2  H2R51085   2.132   8.018   7.998
  135PVCL2  H2S51086   2.001   7.923   7.914
  135PVCL2  C3351087   2.367   0.138   7.731
  135PVCL2 H33J51088   2.422   0.053   7.687
  135PVCL2 H33K51089   2.388   0.226   7.666
  135PVCL2  O3351090   2.408   0.171   7.865
  135PVCL2  CD151091   2.473   0.077   7.930
  135PVCL2  OD151092   2.518   8.117   7.883
  135PVCL2  CD251093   2.489   0.117   8.076
  135PVCL2  H2X51094   2.527   0.221   8.083
  135PVCL2  H2Y51095   2.571   0.054   8.118
  135PVCL2  CA351096   1.550   0.339   8.234
  135PVCL2  H3A51097   1.549   0.231   8.207
  135PVCL2  H3B51098   1.446   0.373   8.249
  135PVCL2  CA451099   1.625   0.354   8.367
  135PVCL2  H4A51100   1.656   0.460   8.380
  135PVCL2  H4B51101   1.717   0.293   8.364
  135PVCL2  CA551102   1.536   0.313   8.485
  135PVCL2  H5A51103   1.488   0.216   8.461
  135PVCL2  H5B51104   1.455   0.388   8.497
  135PVCL2  CA651105   1.611   0.296   8.619
  135PVCL2  H6A51106   1.683   0.213   8.609
  135PVCL2  H6B51107   1.538   0.266   8.697
  135PVCL2  CA751108   1.687   0.421   8.666
  135PVCL2  H7A51109   1.769   0.443   8.595
  135PVCL2  H7B51110   1.735   0.398   8.764
  135PVCL2  CA851111   1.601   0.547   8.684
  135PVCL2  H8A51112   1.566   0.579   8.584
  135PVCL2  H8B51113   1.666   0.628   8.724
  135PVCL2  CA951114   1.480   0.528   8.777
  135PVCL2  H9A51115   1.413   0.451   8.733
  135PVCL2  H9B51116   1.422   0.623   8.780
  135PVCL2 CA1051117   1.514   0.488   8.921
  135PVCL2 H10A51118   1.575   0.395   8.920
  135PVCL2 H10B51119   1.418   0.461   8.971
  135PVCL2 CA1151120   1.577   0.598   9.003
  135PVCL2 H11A51121   1.512   0.685   9.023
  135PVCL2 CA1251122   1.701   0.598   9.052
  135PVCL2 H12A51123   1.734   0.683   9.115
  135PVCL2 CA1351124   1.803   0.488   9.036
  135PVCL2 H13A51125   1.851   0.497   8.936
  135PVCL2 H13B51126   1.754   0.388   9.040
  135PVCL2 CA1451127   1.913   0.493   9.143
  135PVCL2 H14A51128   1.970   0.588   9.135
  135PVCL2 H14B51129   1.986   0.412   9.123
  135PVCL2 CA1551130   1.864   0.477   9.287
  135PVCL2 H15A51131   1.788   0.396   9.293
  135PVCL2 H15B51132   1.815   0.571   9.319
  135PVCL2 CA1651133   1.981   0.442   9.380
  135PVCL2 H16A51134   2.060   0.520   9.369
  135PVCL2 H16B51135   2.025   0.346   9.347
  135PVCL2 CA1751136   1.942   0.432   9.527
  135PVCL2 H17A51137   2.032   0.403   9.586
  135PVCL2 H17B51138   1.869   0.349   9.537
  135PVCL2 CA1851139   1.883   0.560   9.585
  135PVCL2 H18A51140   1.784   0.581   9.540
  135PVCL2 H18B51141   1.950   0.647   9.566
  135PVCL2 H18C51142   1.869   0.551   9.695
  135PVCL2  CB351143   1.416   8.101   8.180
  135PVCL2  H3D51144   1.345   0.031   8.136
  135PVCL2  H3E51145   1.503   0.014   8.220
  135PVCL2  CB451146   1.347   8.027   8.296
  135PVCL2  H4D51147   1.413   7.941   8.319
  135PVCL2  H4E51148   1.250   7.984   8.263
  135PVCL2  CB551149   1.330   8.101   8.430
  135PVCL2  H5D51150   1.421   0.017   8.452
  135PVCL2  H5E51151   1.323   8.022   8.508
  135PVCL2  CB651152   1.208   0.050   8.446
  135PVCL2  H6D51153   1.115   8.134   8.434
  135PVCL2  H6E51154   1.210   0.127   8.367
  135PVCL2  CB751155   1.206   0.119   8.584
  135PVCL2  H7D51156   1.112   0.177   8.593
  135PVCL2  H7E51157   1.291   0.191   8.591
  135PVCL2  CB851158   1.217   0.022   8.703
  135PVCL2  H8D51159   1.318   8.120   8.703
  135PVCL2  H8E51160   1.142   8.085   8.689
  135PVCL2  CB951161   1.192   0.079   8.844
  135PVCL2  H9D51162   1.222   0.002   8.918
  135PVCL2  H9E51163   1.083   0.096   8.858
  135PVCL2 CB1051164   1.267   0.209   8.878
  135PVCL2 H10D51165   1.222   0.292   8.820
  135PVCL2 H10E51166   1.374   0.200   8.848
  135PVCL2 CB1151167   1.260   0.242   9.028
  135PVCL2 H11D51168   1.160   0.210   9.067
  135PVCL2 H11E51169   1.266   0.352   9.043
  135PVCL2 CB1251170   1.371   0.174   9.110
  135PVCL2 H12D51171   1.468   0.187   9.058
  135PVCL2 H12E51172   1.347   0.066   9.114
  135PVCL2 CB1351173   1.386   0.222   9.255
  135PVCL2 H13D51174   1.462   0.156   9.303
  135PVCL2 H13E51175   1.291   0.207   9.310
  135PVCL2 CB1451176   1.435   0.366   9.270
  135PVCL2 H14D51177   1.351   0.436   9.246
  135PVCL2 H14E51178   1.516   0.384   9.197
  135PVCL2 CB1551179   1.489   0.398   9.410
  135PVCL2 H15D51180   1.521   0.505   9.412
  135PVCL2 H15E51181   1.580   0.337   9.428
  135PVCL2 CB1651182   1.390   0.374   9.524
  135PVCL2 H16D51183   1.296   0.432   9.508
  135PVCL2 H16E51184   1.434   0.407   9.621
  135PVCL2 H16F51185   1.364   0.267   9.533
  135PVCL2  CC351186   1.933   8.096   8.026
  135PVCL2  H3R51187   1.840   8.115   7.969
  135PVCL2  H3S51188   1.972   0.050   8.060
  135PVCL2  CC451189   1.898   8.012   8.150
  135PVCL2  H4R51190   1.991   7.990   8.207
  135PVCL2  H4S51191   1.852   7.916   8.120
  135PVCL2  CC551192   1.803   8.091   8.239
  135PVCL2  H5R51193   1.711   8.115   8.182
  135PVCL2  H5S51194   1.850   0.044   8.264
  135PVCL2  CC651195   1.766   8.018   8.368
  135PVCL2  H6R51196   1.858   7.982   8.419
  135PVCL2  H6S51197   1.701   7.931   8.346
  135PVCL2  CC751198   1.694   8.117   8.459
  135PVCL2  H7R51199   1.612   0.019   8.400
  135PVCL2  H7S51200   1.763   0.057   8.484
  135PVCL2  CC851201   1.640   8.057   8.588
  135PVCL2  H8R51202   1.601   7.955   8.570
  135PVCL2  H8S51203   1.555   8.121   8.620
  135PVCL2  CC951204   1.743   8.057   8.702
  135PVCL2  H9R51205   1.764   0.018   8.732
  135PVCL2  H9S51206   1.838   8.013   8.665
  135PVCL2 CC1051207   1.696   7.977   8.824
  135PVCL2 H10R51208   1.772   7.986   8.905
  135PVCL2 H10S51209   1.699   7.869   8.797
  135PVCL2 CC1151210   1.558   8.017   8.869
  135PVCL2 H11R51211   1.483   8.025   8.789
  135PVCL2 CC1251212   1.515   8.033   8.995
  135PVCL2 H12R51213   1.407   8.051   9.011
  135PVCL2 CC1351214   1.595   8.014   9.120
  135PVCL2 H13R51215   1.579   8.099   9.190
  135PVCL2 H13S51216   1.704   8.011   9.098
  135PVCL2 CC1451217   1.558   7.882   9.190
  135PVCL2 H14R51218   1.457   7.893   9.235
  135PVCL2 H14S51219   1.630   7.863   9.273
  135PVCL2 CC1551220   1.562   7.764   9.091
  135PVCL2 H15R51221   1.666   7.759   9.052
  135PVCL2 H15S51222   1.493   7.783   9.006
  135PVCL2 CC1651223   1.522   7.628   9.146
  135PVCL2 H16R51224   1.606   7.588   9.207
  135PVCL2 H16S51225   1.511   7.557   9.060
  135PVCL2 CC1751226   1.392   7.625   9.226
  135PVCL2 H17R51227   1.327   7.549   9.178
  135PVCL2 H17S51228   1.337   7.722   9.221
  135PVCL2 CC1851229   1.416   7.587   9.372
  135PVCL2 H18R51230   1.440   7.676   9.435
  135PVCL2 H18S51231   1.503   7.518   9.377
  135PVCL2 H18T51232   1.331   7.532   9.417
  135PVCL2  CD351233   2.357   0.103   8.155
  135PVCL2  H3X51234   2.308   0.006   8.130
  135PVCL2  H3Y51235   2.287   0.183   8.124
  135PVCL2  CD451236   2.377   0.107   8.307
  135PVCL2  H4X51237   2.395   0.212   8.338
  135PVCL2  H4Y51238   2.467   0.049   8.335
  135PVCL2  CD551239   2.258   0.049   8.385
  135PVCL2  H5X51240   2.281   0.046   8.494
  135PVCL2  H5Y51241   2.243   8.088   8.353
  135PVCL2  CD651242   2.127   0.126   8.363
  135PVCL2  H6X51243   2.044   0.052   8.356
  135PVCL2  H6Y51244   2.128   0.181   8.266
  135PVCL2  CD751245   2.096   0.224   8.477
  135PVCL2  H7X51246   2.071   0.323   8.433
  135PVCL2  H7Y51247   2.188   0.236   8.538
  135PVCL2  CD851248   1.979   0.177   8.563
  135PVCL2  H8X51249   1.977   0.065   8.566
  135PVCL2  H8Y51250   1.888   0.212   8.511
  135PVCL2  CD951251   1.975   0.229   8.707
  135PVCL2  H9X51252   1.868   0.233   8.737
  135PVCL2  H9Y51253   2.014   0.333   8.713
  135PVCL2 CD1051254   2.043   0.138   8.810
  135PVCL2 H10X51255   2.153   0.148   8.798
  135PVCL2 H10Y51256   2.016   0.032   8.792
  135PVCL2 CD1151257   2.002   0.175   8.954
  135PVCL2 H11X51258   2.001   0.286   8.963
  135PVCL2 H11Y51259   2.077   0.137   9.027
  135PVCL2 CD1251260   1.866   0.117   8.996
  135PVCL2 H12X51261   1.864   0.009   8.970
  135PVCL2 H12Y51262   1.786   0.168   8.939
  135PVCL2 CD1351263   1.836   0.129   9.147
  135PVCL2 H13X51264   1.726   0.123   9.161
  135PVCL2 H13Y51265   1.869   0.229   9.183
  135PVCL2 CD1451266   1.903   0.021   9.233
  135PVCL2 H14X51267   2.013   0.028   9.219
  135PVCL2 H14Y51268   1.873   8.064   9.199
  135PVCL2 CD1551269   1.872   0.033   9.384
  135PVCL2 H15X51270   1.917   0.128   9.421
  135PVCL2 H15Y51271   1.924   8.093   9.435
  135PVCL2 CD1651272   1.725   0.029   9.424
  135PVCL2 H16X51273   1.669   0.114   9.380
  135PVCL2 H16Y51274   1.715   0.034   9.534
  135PVCL2 H16Z51275   1.678   8.078   9.390
  136PVCL2   C351276   0.187   7.703   7.702
  136PVCL2 HG3151277   0.157   7.687   7.808
  136PVCL2 HG3251278   0.298   7.694   7.698
  136PVCL2   P351279   0.235   7.936   7.590
  136PVCL2 OP3351280   0.153   8.053   7.550
  136PVCL2 OP3451281   0.312   7.871   7.481
  136PVCL2 OP3151282   0.142   7.832   7.660
  136PVCL2 OP3251283   0.339   7.979   7.699
  136PVCL2  C3151284   0.304   8.054   7.816
  136PVCL2 H31J51285   0.339   0.014   7.804
  136PVCL2 H31K51286   0.195   8.056   7.836
  136PVCL2   C251287   0.123   7.591   7.617
  136PVCL2 HG2251288   0.117   7.626   7.511
  136PVCL2 OG1251289   0.204   7.474   7.623
  136PVCL2 HO1251290   0.169   7.428   7.700
  136PVCL2   C151291   8.125   7.549   7.665
  136PVCL2 HG1151292   8.134   7.503   7.765
  136PVCL2 HG1251293   8.088   7.469   7.597
  136PVCL2   P151294   7.970   7.715   7.795
  136PVCL2 OP1351295   8.061   7.688   7.908
  136PVCL2 OP1451296   7.926   7.854   7.767
  136PVCL2 OP1151297   8.032   7.657   7.661
  136PVCL2 OP1251298   7.842   7.622   7.806
  136PVCL2  C1151299   7.714   7.685   7.816
  136PVCL2 H11J51300   7.693   7.741   7.723
  136PVCL2 H11K51301   7.712   7.759   7.899
  136PVCL2  C1251302   7.595   7.584   7.837
  136PVCL2 H12J51303   7.507   7.627   7.785
  136PVCL2  O1251304   7.567   7.564   7.975
  136PVCL2  CA151305   7.505   7.665   8.034
  136PVCL2  OA151306   7.468   7.768   7.979
  136PVCL2  CA251307   7.487   7.633   8.181
  136PVCL2  H2A51308   7.530   7.533   8.203
  136PVCL2  H2B51309   7.378   7.629   8.202
  136PVCL2  C1351310   7.621   7.443   7.774
  136PVCL2 H13J51311   7.638   7.457   7.665
  136PVCL2 H13K51312   7.527   7.386   7.785
  136PVCL2  O1351313   7.725   7.368   7.839
  136PVCL2  CB151314   7.830   7.334   7.767
  136PVCL2  OB151315   7.844   7.352   7.647
  136PVCL2  CB251316   7.932   7.265   7.856
  136PVCL2  H2D51317   8.029   7.262   7.801
  136PVCL2  H2E51318   7.898   7.162   7.875
  136PVCL2  C3251319   0.375   7.993   7.939
  136PVCL2 H32J51320   0.475   7.959   7.906
  136PVCL2  O3251321   0.294   7.887   7.992
  136PVCL2  CC151322   0.351   7.773   8.017
  136PVCL2  OC151323   0.464   7.739   7.983
  136PVCL2  CC251324   0.255   7.681   8.091
  136PVCL2  H2R51325   0.211   7.612   8.016
  136PVCL2  H2S51326   0.172   7.741   8.134
  136PVCL2  C3351327   0.399   8.099   8.051
  136PVCL2 H33J51328   0.463   8.053   8.129
  136PVCL2 H33K51329   0.459   0.038   8.007
  136PVCL2  O3351330   0.277   0.010   8.104
  136PVCL2  CD151331   0.235   8.098   8.218
  136PVCL2  OD151332   0.287   8.003   8.273
  136PVCL2  CD251333   0.115   0.032   8.270
  136PVCL2  H2X51334   0.034   0.025   8.195
  136PVCL2  H2Y51335   0.147   0.138   8.280
  136PVCL2  CA351336   7.558   7.740   8.266
  136PVCL2  H3A51337   7.547   7.714   8.373
  136PVCL2  H3B51338   7.511   7.839   8.249
  136PVCL2  CA451339   7.707   7.747   8.232
  136PVCL2  H4A51340   7.724   7.783   8.128
  136PVCL2  H4B51341   7.745   7.643   8.237
  136PVCL2  CA551342   7.788   7.837   8.326
  136PVCL2  H5A51343   7.753   7.822   8.431
  136PVCL2  H5B51344   7.771   7.944   8.300
  136PVCL2  CA651345   7.939   7.807   8.321
  136PVCL2  H6A51346   7.992   7.873   8.393
  136PVCL2  H6B51347   7.977   7.833   8.219
  136PVCL2  CA751348   7.975   7.661   8.351
  136PVCL2  H7A51349   8.085   7.654   8.359
  136PVCL2  H7B51350   7.945   7.599   8.264
  136PVCL2  CA851351   7.911   7.603   8.478
  136PVCL2  H8A51352   7.939   7.496   8.488
  136PVCL2  H8B51353   7.800   7.606   8.472
  136PVCL2  CA951354   7.956   7.677   8.605
  136PVCL2  H9A51355   7.911   7.778   8.603
  136PVCL2  H9B51356   8.067   7.690   8.599
  136PVCL2 CA1051357   7.920   7.604   8.735
  136PVCL2 H10A51358   7.959   7.500   8.729
  136PVCL2 H10B51359   7.810   7.596   8.744
  136PVCL2 CA1151360   7.978   7.679   8.853
  136PVCL2 H11A51361   7.926   7.772   8.880
  136PVCL2 CA1251362   8.084   7.641   8.926
  136PVCL2 H12A51363   8.115   7.703   9.011
  136PVCL2 CA1351364   0.021   7.516   8.905
  136PVCL2 H13A51365   0.122   7.524   8.950
  136PVCL2 H13B51366   0.036   7.498   8.796
  136PVCL2 CA1451367   8.091   7.395   8.964
  136PVCL2 H14A51368   8.125   7.303   8.911
  136PVCL2 H14B51369   7.982   7.403   8.945
  136PVCL2 CA1551370   8.114   7.371   9.114
  136PVCL2 H15A51371   0.071   7.326   9.125
  136PVCL2 H15B51372   8.039   7.296   9.149
  136PVCL2 CA1651373   8.110   7.492   9.208
  136PVCL2 H16A51374   8.010   7.542   9.204
  136PVCL2 H16B51375   0.043   7.565   9.176
  136PVCL2 CA1751376   8.142   7.453   9.353
  136PVCL2 H17A51377   0.093   7.396   9.353
  136PVCL2 H17B51378   8.063   7.384   9.391
  136PVCL2 CA1851379   0.013   7.570   9.450
  136PVCL2 H18A51380   8.064   7.631   9.453
  136PVCL2 H18B51381   0.098   7.635   9.419
  136PVCL2 H18C51382   0.035   7.533   9.552
  136PVCL2  CB351383   7.949   7.340   7.990
  136PVCL2  H3D51384   7.854   7.337   8.047
  136PVCL2  H3E51385   7.973   7.446   7.972
  136PVCL2  CB451386   8.059   7.279   8.077
  136PVCL2  H4D51387   0.011   7.276   8.021
  136PVCL2  H4E51388   8.031   7.175   8.105
  136PVCL2  CB551389   8.077   7.362   8.204
  136PVCL2  H5D51390   7.981   7.359   8.260
  136PVCL2  H5E51391   8.098   7.468   8.178
  136PVCL2  CB651392   0.045   7.310   8.294
  136PVCL2  H6D51393   0.144   7.342   8.255
  136PVCL2  H6E51394   0.044   7.199   8.294
  136PVCL2  CB751395   0.024   7.359   8.437
  136PVCL2  H7D51396   8.066   7.328   8.470
  136PVCL2  H7E51397   0.025   7.470   8.441
  136PVCL2  CB851398   0.124   7.305   8.539
  136PVCL2  H8D51399   0.120   7.194   8.544
  136PVCL2  H8E51400   0.090   7.345   8.636
  136PVCL2  CB951401   0.269   7.343   8.512
  136PVCL2  H9D51402   0.278   7.454   8.511
  136PVCL2  H9E51403   0.301   7.305   8.413
  136PVCL2 CB1051404   0.363   7.286   8.619
  136PVCL2 H10D51405   0.466   7.323   8.602
  136PVCL2 H10E51406   0.363   7.176   8.609
  136PVCL2 CB1151407   0.320   7.322   8.762
  136PVCL2 H11D51408   0.215   7.290   8.780
  136PVCL2 H11E51409   0.325   7.432   8.778
  136PVCL2 CB1251410   0.402   7.248   8.867
  136PVCL2 H12D51411   0.507   7.285   8.867
  136PVCL2 H12E51412   0.402   7.140   8.841
  136PVCL2 CB1351413   0.339   7.265   9.005
  136PVCL2 H13D51414   0.229   7.265   8.996
  136PVCL2 H13E51415   0.369   7.364   9.046
  136PVCL2 CB1451416   0.378   7.153   9.101
  136PVCL2 H14D51417   0.459   7.090   9.059
  136PVCL2 H14E51418   0.291   7.086   9.118
  136PVCL2 CB1551419   0.422   7.210   9.235
  136PVCL2 H15D51420   0.350   7.289   9.265
  136PVCL2 H15E51421   0.522   7.257   9.221
  136PVCL2 CB1651422   0.430   7.107   9.347
  136PVCL2 H16D51423   0.364   7.021   9.326
  136PVCL2 H16E51424   0.400   7.152   9.444
  136PVCL2 H16F51425   0.534   7.070   9.358
  136PVCL2  CC351426   0.328   7.602   8.201
  136PVCL2  H3R51427   0.426   7.565   8.165
  136PVCL2  H3S51428   0.267   7.512   8.227
  136PVCL2  CC451429   0.346   7.683   8.331
  136PVCL2  H4R51430   0.394   7.781   8.311
  136PVCL2  H4S51431   0.414   7.627   8.399
  136PVCL2  CC551432   0.213   7.702   8.404
  136PVCL2  H5R51433   0.153   7.611   8.386
  136PVCL2  H5S51434   0.157   7.788   8.362
  136PVCL2  CC651435   0.228   7.717   8.556
  136PVCL2  H6R51436   0.311   7.653   8.593
  136PVCL2  H6S51437   0.135   7.682   8.605
  136PVCL2  CC751438   0.252   7.862   8.599
  136PVCL2  H7R51439   0.171   7.925   8.555
  136PVCL2  H7S51440   0.349   7.898   8.557
  136PVCL2  CC851441   0.249   7.880   8.751
  136PVCL2  H8R51442   0.151   7.845   8.788
  136PVCL2  H8S51443   0.259   7.988   8.774
  136PVCL2  CC951444   0.360   7.802   8.823
  136PVCL2  H9R51445   0.455   7.822   8.769
  136PVCL2  H9S51446   0.340   7.693   8.817
  136PVCL2 CC1051447   0.379   7.842   8.970
  136PVCL2 H10R51448   0.412   7.948   8.973
  136PVCL2 H10S51449   0.462   7.782   9.013
  136PVCL2 CC1151450   0.252   7.829   9.050
  136PVCL2 H11R51451   0.164   7.876   9.004
  136PVCL2 CC1251452   0.235   7.767   9.168
  136PVCL2 H12R51453   0.136   7.770   9.215
  136PVCL2 CC1351454   0.340   7.696   9.249
  136PVCL2 H13R51455   0.417   7.652   9.182
  136PVCL2 H13S51456   0.293   7.612   9.303
  136PVCL2 CC1451457   0.411   7.786   9.351
  136PVCL2 H14R51458   0.450   7.722   9.433
  136PVCL2 H14S51459   0.341   7.858   9.399
  136PVCL2 CC1551460   0.529   7.866   9.293
  136PVCL2 H15R51461   0.494   7.934   9.213
  136PVCL2 H15S51462   0.602   7.796   9.248
  136PVCL2 CC1651463   0.599   7.948   9.402
  136PVCL2 H16R51464   0.708   7.949   9.383
  136PVCL2 H16S51465   0.584   7.898   9.500
  136PVCL2 CC1751466   0.549   8.093   9.410
  136PVCL2 H17R51467   0.590   0.005   9.323
  136PVCL2 H17S51468   0.438   8.092   9.400
  136PVCL2 CC1851469   0.586   0.020   9.540
  136PVCL2 H18R51470   0.538   8.114   9.626
  136PVCL2 H18S51471   0.552   0.126   9.538
  136PVCL2 H18T51472   0.696   0.019   9.556
  136PVCL2  CD351473   0.063   8.127   8.407
  136PVCL2  H3X51474   0.144   8.137   8.483
  136PVCL2  H3Y51475   0.036   8.020   8.401
  136PVCL2  CD451476   8.085   0.064   8.453
  136PVCL2  H4X51477   8.001   0.048   8.382
  136PVCL2  H4Y51478   8.111   0.172   8.449
  136PVCL2  CD551479   8.038   0.033   8.596
  136PVCL2  H5X51480   7.962   0.110   8.623
  136PVCL2  H5Y51481   8.123   0.045   8.666
  136PVCL2  CD651482   7.970   8.041   8.612
  136PVCL2  H6X51483   8.048   7.962   8.607
  136PVCL2  H6Y51484   7.901   8.026   8.527
  136PVCL2  CD751485   7.887   8.025   8.742
  136PVCL2  H7X51486   7.851   7.920   8.748
  136PVCL2  H7Y51487   7.797   8.089   8.732
  136PVCL2  CD851488   7.957   8.063   8.874
  136PVCL2  H8X51489   7.898   8.025   8.960
  136PVCL2  H8Y51490   7.954   0.029   8.880
  136PVCL2  CD951491   8.103   8.019   8.889
  136PVCL2  H9X51492   0.009   8.018   8.789
  136PVCL2  H9Y51493   8.109   7.916   8.929
  136PVCL2 CD1051494   0.042   8.115   8.976
  136PVCL2 H10X51495   0.020   0.076   8.950
  136PVCL2 H10Y51496   0.150   8.097   8.955
  136PVCL2 CD1151497   0.021   8.093   9.126
  136PVCL2 H11X51498   0.041   7.986   9.149
  136PVCL2 H11Y51499   8.059   8.112   9.155
  136PVCL2 CD1251500   0.115   0.036   9.211
  136PVCL2 H12X51501   0.064   0.129   9.241
  136PVCL2 H12Y51502   0.203   0.064   9.149
  136PVCL2 CD1351503   0.170   8.107   9.334
  136PVCL2 H13X51504   0.238   0.030   9.391
  136PVCL2 H13Y51505   0.230   8.021   9.297
  136PVCL2 CD1451506   0.063   8.053   9.430
  136PVCL2 H14X51507   8.119   8.014   9.375
  136PVCL2 H14Y51508   0.027   8.135   9.496
  136PVCL2 CD1551509   0.120   7.938   9.514
  136PVCL2 H15X51510   0.215   7.970   9.561
  136PVCL2 H15Y51511   0.141   7.853   9.447
  136PVCL2 CD1651512   0.025   7.890   9.623
  136PVCL2 H16X51513   0.007   7.972   9.696
  136PVCL2 H16Y51514   0.070   7.804   9.677
  136PVCL2 H16Z51515   8.072   7.858   9.580
  137CAL    CAL51516   7.002   7.376  11.367
  138CAL    CAL51517   3.519   5.021  11.863
  139CAL    CAL51518   7.314   0.399  11.509
  140CAL    CAL51519   4.693   1.610  11.529
  141CAL    CAL51520   3.619   3.989  11.369
  142CAL    CAL51521   6.040   2.104  11.001
  143CAL    CAL51522   3.409   6.766  11.431
  144CAL    CAL51523   0.524   2.928  11.426
  145CAL    CAL51524   5.377   4.379  11.464
  146CAL    CAL51525   3.373   3.450  11.360
  147CAL    CAL51526   0.553   6.781  11.822
  148CAL    CAL51527   4.566   6.835  11.864
  149CAL    CAL51528   4.667   2.171  11.852
  150CAL    CAL51529   7.048   1.334  10.994
  151CAL    CAL51530   7.921   5.687  11.662
  152CAL    CAL51531   3.231   1.139  11.620
  153CAL    CAL51532   4.634   7.770  11.683
  154CAL    CAL51533   1.948   5.903  11.458
  155CAL    CAL51534   6.438   0.532  11.522
  156CAL    CAL51535   5.449   2.374  11.634
  157CAL    CAL51536   2.758   8.080  12.009
  158CAL    CAL51537   7.537   2.216  11.005
  159CAL    CAL51538   0.739   0.748  11.703
  160CAL    CAL51539   2.150   6.907  11.570
  161CAL    CAL51540   7.728   0.209  11.935
  162CAL    CAL51541   5.169   3.105  11.342
  163CAL    CAL51542   7.416   7.682  11.718
  164CAL    CAL51543   3.261   8.012  11.715
  165CAL    CAL51544   4.892   6.282  11.657
  166CAL    CAL51545   6.196   0.329  11.955
  167CAL    CAL51546   6.021   5.592  11.253
  168CAL    CAL51547   0.582   6.917  11.342
  169CAL    CAL51548   2.835   6.237  11.657
  170CAL    CAL51549   2.731   2.495  12.044
  171CAL    CAL51550   0.512   3.705  11.308
  172CAL    CAL51551   7.729   1.867  11.433
  173CAL    CAL51552   3.304   5.564  11.510
  174CAL    CAL51553   6.757   5.232  11.525
  175CAL    CAL51554   7.881   1.920  11.092
  176CAL    CAL51555   0.976   4.050  11.488
  177CAL    CAL51556   6.751   3.651  11.859
  178CAL    CAL51557   5.520   3.261  12.027
  179CAL    CAL51558   3.722   2.819  11.464
  180CAL    CAL51559   5.184   7.776  11.638
  181CAL    CAL51560   5.458   1.295  11.549
  182CAL    CAL51561   1.322   5.767  11.564
  183CAL    CAL51562   7.680   0.256  11.015
  184CAL    CAL51563   0.684   1.274  11.520
  185CAL    CAL51564   5.939   4.972  11.882
  186CAL    CAL51565   1.692   2.919  11.748
  187CAL    CAL51566   2.183   0.442  11.471
  188CAL    CAL51567   0.483   4.550  11.008
  189CAL    CAL51568   1.765   1.270  11.725
  190CAL    CAL51569   3.025   7.470  11.542
  191CAL    CAL51570   6.553   0.047  11.970
  192CAL    CAL51571   3.347   8.016  11.324
  193CAL    CAL51572   3.772   6.363  11.289
  194CAL    CAL51573   2.677   4.289  11.514
  195CAL    CAL51574   5.834   7.048  11.699
  196CAL    CAL51575   5.642   5.526  11.508
  197CAL    CAL51576   6.140   2.127  11.943
  198CAL    CAL51577   4.706   3.476  11.424
  199CAL    CAL51578   6.334   3.248  11.466
  200CAL    CAL51579   3.107   2.204  11.327
  201CAL    CAL51580   7.736   3.676  11.507
  202CAL    CAL51581   0.321   2.490  11.852
  203CAL    CAL51582   6.528   7.017  11.855
  204CAL    CAL51583   3.984   6.049  11.719
  205CAL    CAL51584   4.708   6.471  11.196
  206CAL    CAL51585   6.143   4.298  11.962
  207CAL    CAL51586   1.100   1.084  13.130
  208CAL    CAL51587   3.258   1.016  12.966
  209CAL    CAL51588   8.128   7.332  13.669
  210CAL    CAL51589   0.194   3.428  12.795
  211CAL    CAL51590   3.381   4.349  13.057
  212CAL    CAL51591   4.342   3.433  12.589
  213CAL    CAL51592   5.071   6.173  13.984
  214CAL    CAL51593   7.391   1.378  11.990
  215CAL    CAL51594   5.673   6.849  13.410
  216CAL    CAL51595   2.012   6.253  13.206
  217CAL    CAL51596   7.628   3.369  13.594
  218CAL    CAL51597   7.802   6.553  12.199
  219CAL    CAL51598   1.099   5.206  12.863
  220CAL    CAL51599   6.562   6.370  13.106
  221CAL    CAL51600   7.853   0.699  12.788
  222CAL    CAL51601   0.459   7.660  11.851
  223CAL    CAL51602   7.074   8.031  12.645
  224CAL    CAL51603   3.206   1.156  13.472
  225CAL    CAL51604   1.159   0.147  11.482
  226CAL    CAL51605   4.439   3.440  13.355
  227CAL    CAL51606   6.237   5.834  12.061
  228CAL    CAL51607   7.228   0.727  14.080
  229CAL    CAL51608   1.242   4.629  14.255
  230CAL    CAL51609   3.809   0.635  13.486
  231CAL    CAL51610   5.617   5.705  14.186
  232CAL    CAL51611   2.193   1.912  12.848
  233CAL    CAL51612   1.429   7.740  12.611
  234CAL    CAL51613   5.714   4.068  13.961
  235CAL    CAL51614   1.726   6.071  13.722
  236CAL    CAL51615   1.860   7.861  13.149
  237CAL    CAL51616   1.572   2.655  12.728
  238CAL    CAL51617   0.091   5.145  12.896
  239CAL    CAL51618   7.689   7.237  13.198
  240CAL    CAL51619   1.168   4.853  11.899
  241CAL    CAL51620   6.002   3.653  13.160
  242CAL    CAL51621   2.979   8.053  14.152
  243CAL    CAL51622   1.348   6.593  13.082
  244CAL    CAL51623   7.714   3.680  12.835
  245CAL    CAL51624   6.724   1.915  13.313
  246CAL    CAL51625   5.930   1.701  13.327
  247CAL    CAL51626   6.917   2.526  13.014
  248CAL    CAL51627   6.521   7.122  12.805
  249CAL    CAL51628   0.300   3.468  11.960
  250CAL    CAL51629   7.551   1.345  13.399
  251CAL    CAL51630   0.325   0.578  13.443
  252CAL    CAL51631   6.221   4.371  13.119
  253CAL    CAL51632   0.260   1.925  12.299
  254CAL    CAL51633   4.397   1.147  11.926
  255CAL    CAL51634   3.549   6.227  12.638
  256CAL    CAL51635   1.146   3.256  13.292
  257CAL    CAL51636   6.695   0.261  13.447
  258CAL    CAL51637   2.974   7.304  14.303
  259CAL    CAL51638   6.807   1.930  12.056
  260CAL    CAL51639   0.466   0.228  12.444
  261CAL    CAL51640   5.553   0.561  13.190
  262CAL    CAL51641   3.401   1.471  14.141
  263CAL    CAL51642   1.992   3.274  14.290
  264CAL    CAL51643   2.930   7.233  12.885
  265CAL    CAL51644   0.449   2.053  13.384
  266CAL    CAL51645   7.754   4.878  13.445
  267CAL    CAL51646   0.325   4.545  11.946
  268CAL    CAL51647   4.555   1.050  13.525
  269CAL    CAL51648   7.013   4.507  12.911
  270CAL    CAL51649   2.768   6.405  14.165
  271CAL    CAL51650   6.512   3.131  12.903
  272CAL    CAL51651   0.573   7.523  14.096
  273CAL    CAL51652   4.906   6.105  12.257
  274CAL    CAL51653   0.076   2.977  13.085
  275CAL    CAL51654   6.696   5.471  14.309
  276CAL    CAL51655   4.836   0.189  13.145
  277CAL    CAL51656   0.413   7.280  13.052
  278CAL    CAL51657   5.416   6.322  12.566
  279CAL    CAL51658   2.167   6.130  12.625
  280CAL    CAL51659   0.543   4.246  12.984
  281CAL    CAL51660   5.424   2.425  12.953
  282CAL    CAL51661   6.336   8.068  13.262
  283CAL    CAL51662   1.932   0.857  13.326
  284CAL    CAL51663   3.537   5.737  13.884
  285CAL    CAL51664   1.986   4.092  13.282
  286CAL    CAL51665   2.258   1.196  12.708
  287CAL    CAL51666   6.831   2.021  14.498
  288CAL    CAL51667   3.796   7.837  13.216
  289CAL    CAL51668   3.903   3.923  12.102
  290CAL    CAL51669   1.841   3.155  13.225
  291CAL    CAL51670   3.989   1.139  12.582
  292CAL    CAL51671   2.404   3.320  13.020
  293CAL    CAL51672   4.683   7.660  13.120
  294SOD    SOD51673   3.899   7.437   5.928
  295SOD    SOD51674   4.395   4.540   7.351
  296SOD    SOD51675   6.278   1.428   7.327
  297SOD    SOD51676   4.870   3.243   6.887
  298SOD    SOD51677   1.781   2.596   7.091
  299SOD    SOD51678   4.169   5.708   7.047
  300SOD    SOD51679   5.893   3.867   4.691
  301SOD    SOD51680   1.476   2.402  14.870
  302SOD    SOD51681   0.448   0.511  16.057
  303SOD    SOD51682   7.312   1.927  14.471
  304SOD    SOD51683   3.519   1.502   3.141
  305SOD    SOD51684   6.368   1.870   3.107
  306SOD    SOD51685   2.730   3.067   5.246
  307SOD    SOD51686   7.022   1.667   2.355
  308SOD    SOD51687   0.790   4.468   5.029
  309SOD    SOD51688   6.092   2.813   3.774
  310SOD    SOD51689   3.630   7.880   6.116
  311SOD    SOD51690   7.900   3.761   7.068
  312SOD    SOD51691   3.933   8.078   3.237
  313SOD    SOD51692   8.081   6.502   7.403
  314SOD    SOD51693   0.344   5.478   7.272
  315SOD    SOD51694   5.695   3.964   6.597
  316SOD    SOD51695   0.082   0.014  15.365
  317SOD    SOD51696   7.297   3.027   3.777
  318SOD    SOD51697   1.946   3.452   0.963
  319SOD    SOD51698   5.685   0.801   5.212
  320SOD    SOD51699   7.392   2.359   4.468
  321SOD    SOD51700   3.576   5.688  17.347
  322SOD    SOD51701   5.116   1.613   6.523
  323SOD    SOD51702   3.100   3.828  16.724
  324SOD    SOD51703   7.319   0.347   6.255
  325SOD    SOD51704   6.234   6.917   6.050
  326SOD    SOD51705   0.393   7.834   1.926
  327SOD    SOD51706   2.000   7.930   0.867
  328SOD    SOD51707   7.996   7.690   5.867
  329SOD    SOD51708   2.218   7.954   5.462
  330SOD    SOD51709   2.144   2.797   4.511
  331SOD    SOD51710   0.986   2.952   6.911
  332SOD    SOD51711   4.081   6.142   7.147
  333SOD    SOD51712   7.312   1.499   4.407
  334SOD    SOD51713   6.408   5.930   5.666
  335SOD    SOD51714   6.091   4.243   5.622
  336SOD    SOD51715   5.703   3.449  18.370
  337SOD    SOD51716   0.275   6.874   4.545
  338SOD    SOD51717   6.503   4.760  11.098
  339SOD    SOD51718   7.878   6.798   5.385
  340SOD    SOD51719   0.474   7.403   0.097
  341SOD    SOD51720   7.006   7.305   7.168
  342SOD    SOD51721   6.184   2.868   4.836
  343SOD    SOD51722   4.210   1.153   4.723
  344SOD    SOD51723   1.052   2.883  16.038
  345SOD    SOD51724   6.853   2.773   7.148
  346SOD    SOD51725   0.478   4.649  17.206
  347SOD    SOD51726   2.035   0.706   7.130
  348SOD    SOD51727   6.825   0.233   6.282
  349SOD    SOD51728   8.014   6.521   6.471
  350SOD    SOD51729   5.157   2.578   5.219
  351SOD    SOD51730   2.993   7.361  16.157
  352SOD    SOD51731   7.712   0.706   6.778
  353SOD    SOD51732   0.013   3.563   2.354
  354SOD    SOD51733   7.719   6.660   2.885
  355SOD    SOD51734   7.343   8.105   6.333
  356SOD    SOD51735   5.933   1.556   0.100
  357SOD    SOD51736   7.036   5.038   7.376
  358SOD    SOD51737   3.998   1.050   0.587
  359SOD    SOD51738   7.499   3.793   5.079
  360SOD    SOD51739   5.205   3.104  12.816
  361SOD    SOD51740   0.172   0.202   3.169
  362SOD    SOD51741   0.601   3.052   4.660
  363SOD    SOD51742   2.244   2.576   5.912
  364SOD    SOD51743   0.006   0.436   2.631
  365SOD    SOD51744   0.576   6.060   3.996
  366SOD    SOD51745   0.098   2.453   4.068
  367SOD    SOD51746   2.312   5.498   3.957
  368SOD    SOD51747   3.100   6.491   3.097
  369SOD    SOD51748   4.089   2.825  11.891
  370SOD    SOD51749   7.830   0.323   4.293
  371SOD    SOD51750   1.146   4.818   8.091
  372SOD    SOD51751   0.096   7.239   0.927
  373SOD    SOD51752   1.715   7.696   7.480
  374SOD    SOD51753   1.934   3.956  19.151
  375SOD    SOD51754   6.306   4.973  18.772
  376SOD    SOD51755   7.255   1.464   0.834
  377SOD    SOD51756   3.579   2.041   0.235
  378SOD    SOD51757   3.163   4.650   3.074
  379SOD    SOD51758   0.559   4.970   7.062
  380SOD    SOD51759   4.170   2.773  14.581
  381SOD    SOD51760   0.097   4.874   0.241
  382SOD    SOD51761   8.033   1.689   3.106
  383SOD    SOD51762   4.384   2.314   4.590
  384SOD    SOD51763   4.708   2.819   7.141
  385SOD    SOD51764   6.975   0.247  19.369
  386SOD    SOD51765   7.231   0.620  14.931
  387SOD    SOD51766   3.370   3.901   4.269
  388SOD    SOD51767   1.618   1.247   5.645
  389SOD    SOD51768   3.473   6.514   0.820
  390SOD    SOD51769   0.423   7.480  15.212
  391SOD    SOD51770   0.796   0.621   6.521
  392SOD    SOD51771   2.726   6.633   2.343
  393SOD    SOD51772   5.567   3.737   2.931
  394SOD    SOD51773   1.227   4.625   0.956
  395SOD    SOD51774   8.026   5.813  18.623
  396SOD    SOD51775   1.108   2.918   2.641
  397SOD    SOD51776   5.612   6.382  13.068
  398SOD    SOD51777   4.377   7.913   2.366
  399SOD    SOD51778   3.327   2.792   6.769
  400SOD    SOD51779   6.855   6.890   5.134
  401SOD    SOD51780   5.198   6.156   2.203
  402SOD    SOD51781   0.400   5.753   5.431
  403SOD    SOD51782   0.658   1.222   1.579
  404SOD    SOD51783   0.568   0.220   4.778
  405SOD    SOD51784   5.740   3.451  12.498
  406SOD    SOD51785   7.783   6.732   0.997
  407SOD    SOD51786   0.938   1.742   3.799
  408CLA    CLA51787   5.845   1.603  18.194
  409CLA    CLA51788   0.482   1.689  16.132
  410CLA    CLA51789   2.048   2.753   4.015
  411CLA    CLA51790   7.125   4.298   4.804
  412CLA    CLA51791   2.783   6.962   0.325
  413CLA    CLA51792   4.966   5.327   3.577
  414CLA    CLA51793   4.213   7.774   2.815
  415CLA    CLA51794   2.233   4.630   6.142
  416CLA    CLA51795   7.507   4.792   4.332
  417CLA    CLA51796   5.324   0.910   3.578
  418CLA    CLA51797   3.452   6.841   5.324
  419CLA    CLA51798   4.719   2.276   4.910
  420CLA    CLA51799   4.235   7.102  16.773
  421CLA    CLA51800   6.566   8.073   2.513
  422CLA    CLA51801   1.007   2.436   3.537
  423CLA    CLA51802   7.182   5.628   5.181
  424CLA    CLA51803   7.560   5.035   5.437
  425CLA    CLA51804   0.466   1.658   4.620
  426CLA    CLA51805   4.350   3.152   1.724
  427CLA    CLA51806   5.662   3.559  18.118
  428CLA    CLA51807   4.827   2.774   1.261
  429CLA    CLA51808   6.867   1.171   5.215
  430CLA    CLA51809   3.960   5.830   7.164
  431CLA    CLA51810   0.717   2.904   1.654
  432CLA    CLA51811   6.371   5.932   5.200
  433CLA    CLA51812   1.328   3.120   2.956
  434CLA    CLA51813   2.707   6.442   4.581
  435CLA    CLA51814   1.985   4.362   4.282
  436CLA    CLA51815   3.102   4.939   0.091
  437CLA    CLA51816   1.976   0.127  13.284
  438CLA    CLA51817   4.634   3.627   6.216
  439CLA    CLA51818   0.559   7.495  17.224
  440CLA    CLA51819   5.873   3.846   7.312
  441CLA    CLA51820   0.921   7.413  16.756
  442CLA    CLA51821   3.429   4.621   5.559
  443CLA    CLA51822   5.967   2.867   6.040
  444CLA    CLA51823   2.542   4.105   4.054
  445CLA    CLA51824   2.931   6.146   5.505
  446CLA    CLA51825   5.093   6.479   0.725
  447CLA    CLA51826   5.174   1.522  16.579
  448CLA    CLA51827   3.271   7.813   5.562
  449CLA    CLA51828   0.117   6.460   6.766
  450CLA    CLA51829   1.047   0.246   2.382
  451CLA    CLA51830   0.168   6.742  16.892
  452CLA    CLA51831   1.366   3.038   7.274
  453CLA    CLA51832   8.136   8.074   5.043
  454CLA    CLA51833   3.117   3.047   7.182
  455CLA    CLA51834   3.570   5.466  14.226
  456TIP3   OH251835   1.157   1.069  12.460
  456TIP3    H151836   1.186   1.153  12.426
  456TIP3    H251837   1.150   1.013  12.382
  457TIP3   OH251838   1.104   0.948  12.698
  457TIP3    H151839   1.070   0.862  12.673
  457TIP3    H251840   1.119   0.993  12.615
  458TIP3   OH251841   1.057   1.115  12.912
  458TIP3    H151842   1.078   1.057  12.839
  458TIP3    H251843   0.997   1.180  12.875
  459TIP3   OH251844   0.594   0.416  12.475
  459TIP3    H151845   0.595   0.503  12.435
  459TIP3    H251846   0.681   0.405  12.511
  460TIP3   OH251847   0.753   0.761  12.655
  460TIP3    H151848   0.841   0.728  12.640
  460TIP3    H251849   0.713   0.764  12.567
  461TIP3   OH251850   1.753   0.673  13.202
  461TIP3    H151851   1.671   0.693  13.157
  461TIP3    H251852   1.760   0.577  13.199
  462TIP3   OH251853   0.418   0.328  12.958
  462TIP3    H151854   0.406   0.395  12.891
  462TIP3    H251855   0.330   0.304  12.985
  463TIP3   OH251856   0.738   1.173  12.938
  463TIP3    H151857   0.681   1.223  12.996
  463TIP3    H251858   0.748   1.228  12.861
  464TIP3   OH251859   0.441   0.536  12.773
  464TIP3    H151860   0.477   0.583  12.849
  464TIP3    H251861   0.504   0.553  12.703
  465TIP3   OH251862   0.575   1.336  13.094
  465TIP3    H151863   0.575   1.431  13.086
  465TIP3    H251864   0.483   1.314  13.109
  466TIP3   OH251865   0.777   0.029  12.725
  466TIP3    H151866   0.808   8.106  12.665
  466TIP3    H251867   0.804   8.143  12.812
  467TIP3   OH251868   1.585   1.190  13.205
  467TIP3    H151869   1.574   1.187  13.110
  467TIP3    H251870   1.498   1.214  13.238
  468TIP3   OH251871   1.110   0.943  12.213
  468TIP3    H151872   1.047   1.013  12.193
  468TIP3    H251873   1.166   0.939  12.135
  469TIP3   OH251874   1.771   0.975  12.965
  469TIP3    H151875   1.704   1.040  12.948
  469TIP3    H251876   1.728   0.891  12.950
  470TIP3   OH251877   0.570   0.931  12.402
  470TIP3    H151878   0.487   0.957  12.362
  470TIP3    H251879   0.628   1.006  12.389
  471TIP3   OH251880   0.766   1.353  12.723
  471TIP3    H151881   0.719   1.351  12.640
  471TIP3    H251882   0.849   1.396  12.703
  472TIP3   OH251883   0.691   0.894  12.889
  472TIP3    H151884   0.715   0.860  12.803
  472TIP3    H251885   0.701   0.989  12.881
  473TIP3   OH251886   0.772   1.336  13.308
  473TIP3    H151887   0.863   1.345  13.281
  473TIP3    H251888   0.722   1.333  13.226
  474TIP3   OH251889   1.233   0.963  11.962
  474TIP3    H151890   1.296   0.895  11.942
  474TIP3    H251891   1.265   1.040  11.915
  475TIP3   OH251892   0.515   1.581  13.364
  475TIP3    H151893   0.519   1.601  13.271
  475TIP3    H251894   0.570   1.503  13.375
  476TIP3   OH251895   1.746   1.454  11.856
  476TIP3    H151896   1.652   1.467  11.847
  476TIP3    H251897   1.778   1.538  11.889
  477TIP3   OH251898   1.892   1.533  13.387
  477TIP3    H151899   1.878   1.453  13.336
  477TIP3    H251900   1.841   1.600  13.342
  478TIP3   OH251901   0.582   0.107  12.920
  478TIP3    H151902   0.646   0.116  12.849
  478TIP3    H251903   0.532   0.189  12.917
  479TIP3   OH251904   1.120   0.084  13.038
  479TIP3    H151905   1.169   0.007  13.009
  479TIP3    H251906   1.158   0.157  12.989
  480TIP3   OH251907   0.561   0.670  12.978
  480TIP3    H151908   0.582   0.668  13.071
  480TIP3    H251909   0.605   0.749  12.945
  481TIP3   OH251910   0.629   0.667  12.374
  481TIP3    H151911   0.611   0.761  12.379
  481TIP3    H251912   0.665   0.654  12.287
  482TIP3   OH251913   1.139   0.727  12.386
  482TIP3    H151914   1.120   0.793  12.319
  482TIP3    H251915   1.227   0.696  12.364
  483TIP3   OH251916   0.719   0.563  11.588
  483TIP3    H151917   0.662   0.490  11.565
  483TIP3    H251918   0.807   0.534  11.567
  484TIP3   OH251919   0.233   0.477  12.026
  484TIP3    H151920   0.268   0.405  11.973
  484TIP3    H251921   0.261   0.557  11.980
  485TIP3   OH251922   1.227   0.914  13.084
  485TIP3    H151923   1.312   0.895  13.043
  485TIP3    H251924   1.216   0.844  13.148
  486TIP3   OH251925   0.847   0.422  12.578
  486TIP3    H151926   0.894   0.505  12.578
  486TIP3    H251927   0.915   0.356  12.574
  487TIP3   OH251928   0.717   0.599  12.113
  487TIP3    H151929   0.813   0.599  12.110
  487TIP3    H251930   0.692   0.508  12.096
  488TIP3   OH251931   0.610   0.697  11.875
  488TIP3    H151932   0.515   0.706  11.885
  488TIP3    H251933   0.640   0.668  11.961
  489TIP3   OH251934   1.012   0.657  12.612
  489TIP3    H151935   1.049   0.683  12.528
  489TIP3    H251936   1.078   0.597  12.649
  490TIP3   OH251937   0.466   0.299  12.231
  490TIP3    H151938   0.400   0.259  12.175
  490TIP3    H251939   0.539   0.318  12.172
  491TIP3   OH251940   0.807   0.482  12.996
  491TIP3    H151941   0.799   0.524  12.911
  491TIP3    H251942   0.877   0.528  13.041
  492TIP3   OH251943   0.953   1.169  12.159
  492TIP3    H151944   0.980   1.167  12.067
  492TIP3    H251945   0.999   1.244  12.196
  493TIP3   OH251946   1.561   1.158  12.927
  493TIP3    H151947   1.566   1.235  12.871
  493TIP3    H251948   1.485   1.110  12.894
  494TIP3   OH251949   0.837   0.907  13.459
  494TIP3    H151950   0.829   0.862  13.375
  494TIP3    H251951   0.931   0.908  13.476
  495TIP3   OH251952   1.843   1.277  13.270
  495TIP3    H151953   1.749   1.264  13.257
  495TIP3    H251954   1.881   1.267  13.183
  496TIP3   OH251955   1.354   1.018  12.803
  496TIP3    H151956   1.268   0.989  12.771
  496TIP3    H251957   1.406   1.027  12.723
  497TIP3   OH251958   0.609   1.437  12.453
  497TIP3    H151959   0.573   1.428  12.365
  497TIP3    H251960   0.539   1.478  12.504
  498TIP3   OH251961   0.725   1.152  12.355
  498TIP3    H151962   0.718   1.246  12.376
  498TIP3    H251963   0.797   1.146  12.293
  499TIP3   OH251964   1.772   1.726  11.969
  499TIP3    H151965   1.764   1.784  11.893
  499TIP3    H251966   1.761   1.785  12.044
  500TIP3   OH251967   0.251   0.460  13.259
  500TIP3    H151968   0.254   0.536  13.201
  500TIP3    H251969   0.231   0.386  13.201
  501TIP3   OH251970   0.884   1.356  11.559
  501TIP3    H151971   0.963   1.339  11.508
  501TIP3    H251972   0.915   1.406  11.635
  502TIP3   OH251973   0.954   0.605  13.203
  502TIP3    H151974   1.023   0.670  13.220
  502TIP3    H251975   0.998   0.520  13.216
  503TIP3   OH251976   0.684   1.752  12.074
  503TIP3    H151977   0.735   1.798  12.008
  503TIP3    H251978   0.747   1.724  12.140
  504TIP3   OH251979   0.665   0.330  12.049
  504TIP3    H151980   0.646   0.276  11.972
  504TIP3    H251981   0.761   0.335  12.051
  505TIP3   OH251982   0.324   0.717  11.894
  505TIP3    H151983   0.275   0.777  11.950
  505TIP3    H251984   0.302   0.743  11.805
  506TIP3   OH251985   0.414   0.081  12.609
  506TIP3    H151986   0.334   0.048  12.650
  506TIP3    H251987   0.470   0.004  12.600
  507TIP3   OH251988   0.391   1.834  13.404
  507TIP3    H151989   0.443   1.755  13.390
  507TIP3    H251990   0.300   1.806  13.397
  508TIP3   OH251991   0.486   1.613  13.642
  508TIP3    H151992   0.581   1.625  13.654
  508TIP3    H251993   0.475   1.607  13.547
  509TIP3   OH251994   0.739   1.163  13.527
  509TIP3    H151995   0.742   1.212  13.445
  509TIP3    H251996   0.767   1.075  13.503
  510TIP3   OH251997   0.940   0.715  11.781
  510TIP3    H151998   1.026   0.756  11.791
  510TIP3    H251999   0.958   0.621  11.780
  511TIP3   OH252000   1.106   0.900  13.492
  511TIP3    H152001   1.184   0.954  13.506
  511TIP3    H252002   1.134   0.833  13.430
  512TIP3   OH252003   1.692   1.157  11.550
  512TIP3    H152004   1.702   1.151  11.455
  512TIP3    H252005   1.599   1.147  11.565
  513TIP3   OH252006   0.683   0.637  13.242
  513TIP3    H152007   0.653   0.549  13.222
  513TIP3    H252008   0.778   0.635  13.226
  514TIP3   OH252009   0.607   0.378  13.149
  514TIP3    H152010   0.683   0.401  13.095
  514TIP3    H252011   0.537   0.363  13.085
  515TIP3   OH252012   0.893   0.999  13.110
  515TIP3    H152013   0.860   0.910  13.094
  515TIP3    H252014   0.831   1.056  13.065
  516TIP3   OH252015   1.477   0.943  13.405
  516TIP3    H152016   1.414   1.003  13.365
  516TIP3    H252017   1.446   0.856  13.383
  517TIP3   OH252018   0.505   0.715  13.447
  517TIP3    H152019   0.464   0.801  13.437
  517TIP3    H252020   0.576   0.714  13.383
  518TIP3   OH252021   0.644   0.104  13.203
  518TIP3    H152022   0.636   0.198  13.184
  518TIP3    H252023   0.630   0.061  13.119
  519TIP3   OH252024   0.960   0.560  13.482
  519TIP3    H152025   1.055   0.548  13.477
  519TIP3    H252026   0.936   0.600  13.398
  520TIP3   OH252027   0.500   0.437  13.401
  520TIP3    H152028   0.526   0.395  13.319
  520TIP3    H252029   0.580   0.437  13.454
  521TIP3   OH252030   0.815   0.113  13.420
  521TIP3    H152031   0.893   0.071  13.384
  521TIP3    H252032   0.751   0.110  13.349
  522TIP3   OH252033   0.735   0.221  13.658
  522TIP3    H152034   0.775   0.169  13.588
  522TIP3    H252035   0.739   0.311  13.626
  523TIP3   OH252036   0.883   1.853  11.922
  523TIP3    H152037   0.958   1.806  11.958
  523TIP3    H252038   0.921   1.935  11.888
  524TIP3   OH252039   1.964   1.370  12.816
  524TIP3    H152040   1.949   1.397  12.725
  524TIP3    H252041   1.955   1.451  12.867
  525TIP3   OH252042   1.720   1.121  11.893
  525TIP3    H152043   1.708   1.027  11.883
  525TIP3    H252044   1.655   1.147  11.958
  526TIP3   OH252045   1.734   0.961  13.300
  526TIP3    H152046   1.650   0.930  13.332
  526TIP3    H252047   1.714   1.042  13.252
  527TIP3   OH252048   1.818   0.723  13.462
  527TIP3    H152049   1.744   0.687  13.414
  527TIP3    H252050   1.864   0.647  13.497
  528TIP3   OH252051   0.078   0.596  13.434
  528TIP3    H152052   0.074   0.687  13.402
  528TIP3    H252053   0.057   0.543  13.357
  529TIP3   OH252054   0.338   0.367  12.581
  529TIP3    H152055   0.242   0.371  12.571
  529TIP3    H252056   0.356   0.428  12.653
  530TIP3   OH252057   1.769   0.357  13.343
  530TIP3    H152058   1.696   0.340  13.283
  530TIP3    H252059   1.826   0.281  13.333
  531TIP3   OH252060   0.082   0.385  12.241
  531TIP3    H152061   0.032   0.322  12.190
  531TIP3    H252062   0.138   0.429  12.177
  532TIP3   OH252063   0.182   0.256  13.087
  532TIP3    H152064   0.198   0.175  13.136
  532TIP3    H252065   0.099   0.240  13.042
  533TIP3   OH252066   0.579   1.613  13.096
  533TIP3    H152067   0.548   1.645  13.012
  533TIP3    H252068   0.664   1.656  13.109
  534TIP3   OH252069   0.257   1.904  13.009
  534TIP3    H152070   0.263   1.897  12.914
  534TIP3    H252071   0.168   1.934  13.026
  535TIP3   OH252072   0.448   1.606  12.610
  535TIP3    H152073   0.393   1.532  12.636
  535TIP3    H252074   0.497   1.629  12.689
  536TIP3   OH252075   0.616   1.662  12.823
  536TIP3    H152076   0.679   1.590  12.829
  536TIP3    H252077   0.668   1.737  12.793
  537TIP3   OH252078   0.247   0.199  12.388
  537TIP3    H152079   0.191   0.244  12.325
  537TIP3    H252080   0.221   0.107  12.382
  538TIP3   OH252081   0.017   0.217  11.806
  538TIP3    H152082   0.074   0.144  11.781
  538TIP3    H252083   0.061   0.295  11.773
  539TIP3   OH252084   0.670   0.148  12.496
  539TIP3    H152085   0.721   0.112  12.423
  539TIP3    H252086   0.715   0.116  12.574
  540TIP3   OH252087   0.354   0.219  11.837
  540TIP3    H152088   0.293   0.159  11.795
  540TIP3    H252089   0.441   0.189  11.809
  541TIP3   OH252090   0.231   0.205  13.460
  541TIP3    H152091   0.195   0.153  13.389
  541TIP3    H252092   0.318   0.168  13.476
  542TIP3   OH252093   0.460   0.095  13.565
  542TIP3    H152094   0.554   0.115  13.572
  542TIP3    H252095   0.458   0.004  13.534
  543TIP3   OH252096   0.504   1.735  11.854
  543TIP3    H152097   0.561   1.729  11.931
  543TIP3    H252098   0.553   1.789  11.792
  544TIP3   OH252099   2.299   1.037  12.866
  544TIP3    H152100   2.317   0.944  12.858
  544TIP3    H252101   2.307   1.056  12.959
  545TIP3   OH252102   3.312   1.225  12.622
  545TIP3    H152103   3.245   1.185  12.567
  545TIP3    H252104   3.346   1.298  12.569
  546TIP3   OH252105   2.361   0.470  12.933
  546TIP3    H152106   2.418   0.469  12.856
  546TIP3    H252107   2.340   0.378  12.949
  547TIP3   OH252108   2.270   1.325  12.887
  547TIP3    H152109   2.301   1.416  12.893
  547TIP3    H252110   2.248   1.302  12.977
  548TIP3   OH252111   2.034   1.325  12.140
  548TIP3    H152112   2.047   1.405  12.089
  548TIP3    H252113   1.988   1.354  12.218
  549TIP3   OH252114   3.404   1.485  12.834
  549TIP3    H152115   3.320   1.498  12.789
  549TIP3    H252116   3.448   1.569  12.826
  550TIP3   OH252117   3.477   0.432  12.984
  550TIP3    H152118   3.443   0.376  12.914
  550TIP3    H252119   3.567   0.451  12.958
  551TIP3   OH252120   3.368   1.377  12.398
  551TIP3    H152121   3.414   1.438  12.341
  551TIP3    H252122   3.281   1.367  12.358
  552TIP3   OH252123   3.413   1.103  13.113
  552TIP3    H152124   3.481   1.160  13.077
  552TIP3    H252125   3.361   1.160  13.170
  553TIP3   OH252126   3.715   0.955  12.939
  553TIP3    H152127   3.713   0.995  12.852
  553TIP3    H252128   3.688   0.864  12.924
  554TIP3   OH252129   3.097   0.883  13.060
  554TIP3    H152130   3.023   0.941  13.079
  554TIP3    H252131   3.056   0.799  13.040
  555TIP3   OH252132   2.546   1.425  13.275
  555TIP3    H152133   2.610   1.479  13.228
  555TIP3    H252134   2.571   1.335  13.254
  556TIP3   OH252135   2.311   1.461  13.427
  556TIP3    H152136   2.397   1.440  13.390
  556TIP3    H252137   2.270   1.517  13.361
  557TIP3   OH252138   2.274   0.889  12.247
  557TIP3    H152139   2.246   0.972  12.209
  557TIP3    H252140   2.351   0.864  12.197
  558TIP3   OH252141   3.712   1.459  11.870
  558TIP3    H152142   3.631   1.445  11.821
  558TIP3    H252143   3.704   1.547  11.905
  559TIP3   OH252144   1.945   1.192  13.027
  559TIP3    H152145   1.945   1.257  12.956
  559TIP3    H252146   1.890   1.121  12.994
  560TIP3   OH252147   3.735   1.510  13.351
  560TIP3    H152148   3.745   1.560  13.270
  560TIP3    H252149   3.653   1.540  13.389
  561TIP3   OH252150   3.460   0.565  13.349
  561TIP3    H152151   3.369   0.571  13.319
  561TIP3    H252152   3.498   0.495  13.295
  562TIP3   OH252153   2.206   1.224  13.127
  562TIP3    H152154   2.231   1.177  13.207
  562TIP3    H252155   2.112   1.209  13.119
  563TIP3   OH252156   2.348   0.186  12.904
  563TIP3    H152157   2.304   0.155  12.824
  563TIP3    H252158   2.441   0.168  12.888
  564TIP3   OH252159   3.188   0.553  13.264
  564TIP3    H152160   3.214   0.490  13.197
  564TIP3    H252161   3.097   0.575  13.242
  565TIP3   OH252162   3.109   1.018  11.758
  565TIP3    H152163   3.070   0.932  11.773
  565TIP3    H252164   3.089   1.068  11.837
  566TIP3   OH252165   2.367   0.765  12.944
  566TIP3    H152166   2.364   0.674  12.913
  566TIP3    H252167   2.425   0.762  13.021
  567TIP3   OH252168   2.383   0.660  12.503
  567TIP3    H152169   2.309   0.644  12.444
  567TIP3    H252170   2.450   0.700  12.446
  568TIP3   OH252171   2.191   0.691  13.160
  568TIP3    H152172   2.258   0.730  13.215
  568TIP3    H252173   2.238   0.660  13.083
  569TIP3   OH252174   2.181   0.630  12.308
  569TIP3    H152175   2.194   0.722  12.285
  569TIP3    H252176   2.190   0.584  12.224
  570TIP3   OH252177   3.512   1.858  13.490
  570TIP3    H152178   3.487   1.876  13.399
  570TIP3    H252179   3.559   1.937  13.517
  571TIP3   OH252180   2.284   1.072  13.350
  571TIP3    H152181   2.315   0.984  13.328
  571TIP3    H252182   2.362   1.119  13.378
  572TIP3   OH252183   3.423   1.095  12.829
  572TIP3    H152184   3.399   1.170  12.774
  572TIP3    H252185   3.482   1.043  12.775
  573TIP3   OH252186   1.990   0.870  13.117
  573TIP3    H152187   2.064   0.816  13.088
  573TIP3    H252188   1.947   0.896  13.036
  574TIP3   OH252189   3.723   0.673  12.103
  574TIP3    H152190   3.650   0.638  12.052
  574TIP3    H252191   3.729   0.765  12.076
  575TIP3   OH252192   3.736   1.234  13.344
  575TIP3    H152193   3.732   1.330  13.349
  575TIP3    H252194   3.764   1.216  13.254
  576TIP3   OH252195   1.954   1.142  11.737
  576TIP3    H152196   2.021   1.126  11.671
  576TIP3    H252197   1.984   1.094  11.814
  577TIP3   OH252198   3.357   1.566  13.199
  577TIP3    H152199   3.277   1.519  13.175
  577TIP3    H252200   3.354   1.647  13.148
  578TIP3   OH252201   2.157   0.393  13.312
  578TIP3    H152202   2.190   0.438  13.235
  578TIP3    H252203   2.110   0.318  13.278
  579TIP3   OH252204   3.413   1.219  12.053
  579TIP3    H152205   3.370   1.215  11.968
  579TIP3    H252206   3.406   1.311  12.079
  580TIP3   OH252207   2.199   1.699  12.933
  580TIP3    H152208   2.223   1.653  13.013
  580TIP3    H252209   2.109   1.670  12.915
  581TIP3   OH252210   2.233   1.131  12.123
  581TIP3    H152211   2.167   1.201  12.123
  581TIP3    H252212   2.283   1.145  12.042
  582TIP3   OH252213   3.610   0.366  13.208
  582TIP3    H152214   3.538   0.380  13.147
  582TIP3    H252215   3.683   0.337  13.152
  583TIP3   OH252216   2.040   0.495  11.634
  583TIP3    H152217   2.099   0.543  11.692
  583TIP3    H252218   1.955   0.500  11.678
  584TIP3   OH252219   3.494   1.747  12.817
  584TIP3    H152220   3.445   1.796  12.751
  584TIP3    H252221   3.580   1.790  12.820
  585TIP3   OH252222   2.208   0.090  12.676
  585TIP3    H152223   2.159   0.148  12.618
  585TIP3    H252224   2.240   0.021  12.619
  586TIP3   OH252225   2.001   1.065  13.376
  586TIP3    H152226   2.094   1.084  13.388
  586TIP3    H252227   1.959   1.150  13.365
  587TIP3   OH252228   2.378   1.168  11.888
  587TIP3    H152229   2.432   1.106  11.839
  587TIP3    H252230   2.425   1.251  11.882
  588TIP3   OH252231   2.614   1.150  13.456
  588TIP3    H152232   2.687   1.192  13.410
  588TIP3    H252233   2.593   1.074  13.403
  589TIP3   OH252234   2.124   0.810  13.432
  589TIP3    H152235   2.209   0.808  13.387
  589TIP3    H252236   2.145   0.801  13.525
  590TIP3   OH252237   3.006   1.042  13.499
  590TIP3    H152238   2.974   1.096  13.427
  590TIP3    H252239   2.936   0.978  13.513
  591TIP3   OH252240   3.442   1.073  11.591
  591TIP3    H152241   3.522   1.024  11.571
  591TIP3    H252242   3.472   1.163  11.601
  592TIP3   OH252243   3.187   0.554  13.548
  592TIP3    H152244   3.115   0.493  13.561
  592TIP3    H252245   3.188   0.571  13.454
  593TIP3   OH252246   3.276   0.980  13.347
  593TIP3    H152247   3.218   0.943  13.280
  593TIP3    H252248   3.363   0.978  13.308
  594TIP3   OH252249   2.278   0.459  13.630
  594TIP3    H152250   2.360   0.484  13.587
  594TIP3    H252251   2.219   0.439  13.557
  595TIP3   OH252252   2.673   0.056  13.390
  595TIP3    H152253   2.715   0.007  13.320
  595TIP3    H252254   2.683   0.147  13.365
  596TIP3   OH252255   1.917   1.407  11.626
  596TIP3    H152256   2.002   1.431  11.662
  596TIP3    H252257   1.905   1.466  11.551
  597TIP3   OH252258   3.746   1.859  12.858
  597TIP3    H152259   3.737   1.954  12.860
  597TIP3    H252260   3.800   1.842  12.781
  598TIP3   OH252261   3.716   1.663  13.117
  598TIP3    H152262   3.628   1.672  13.081
  598TIP3    H252263   3.769   1.726  13.068
  599TIP3   OH252264   3.400   1.277  13.493
  599TIP3    H152265   3.389   1.298  13.401
  599TIP3    H252266   3.464   1.341  13.525
  600TIP3   OH252267   3.645   1.136  12.188
  600TIP3    H152268   3.688   1.221  12.180
  600TIP3    H252269   3.557   1.151  12.151
  601TIP3   OH252270   3.705   0.904  12.463
  601TIP3    H152271   3.640   0.918  12.394
  601TIP3    H252272   3.726   0.811  12.458
  602TIP3   OH252273   3.787   1.218  12.638
  602TIP3    H152274   3.701   1.206  12.597
  602TIP3    H252275   3.789   1.311  12.663
  603TIP3   OH252276   3.515   1.358  13.051
  603TIP3    H152277   3.478   1.416  13.116
  603TIP3    H252278   3.485   1.393  12.967
  604TIP3   OH252279   3.720   0.935  12.010
  604TIP3    H152280   3.642   0.930  11.954
  604TIP3    H252281   3.699   1.004  12.073
  605TIP3   OH252282   3.541   0.628  11.881
  605TIP3    H152283   3.536   0.673  11.796
  605TIP3    H252284   3.539   0.535  11.859
  606TIP3   OH252285   2.096   1.079  12.613
  606TIP3    H152286   2.037   1.108  12.544
  606TIP3    H252287   2.086   0.983  12.614
  607TIP3   OH252288   3.575   1.017  13.404
  607TIP3    H152289   3.624   0.954  13.350
  607TIP3    H252290   3.610   1.102  13.379
  608TIP3   OH252291   3.677   0.733  13.336
  608TIP3    H152292   3.596   0.695  13.301
  608TIP3    H252293   3.711   0.788  13.265
  609TIP3   OH252294   3.544   0.379  11.774
  609TIP3    H152295   3.608   0.327  11.822
  609TIP3    H252296   3.541   0.340  11.687
  610TIP3   OH252297   3.591   0.720  12.868
  610TIP3    H152298   3.596   0.708  12.774
  610TIP3    H252299   3.635   0.643  12.905
  611TIP3   OH252300   3.359   0.817  12.965
  611TIP3    H152301   3.305   0.738  12.955
  611TIP3    H252302   3.447   0.789  12.937
  612TIP3   OH252303   1.962   0.498  13.474
  612TIP3    H152304   2.038   0.470  13.424
  612TIP3    H252305   1.891   0.441  13.445
  613TIP3   OH252306   3.738   0.257  11.926
  613TIP3    H152307   3.763   0.186  11.985
  613TIP3    H252308   3.805   0.324  11.939
  614TIP3   OH252309   1.836   0.210  12.985
  614TIP3    H152310   1.899   0.202  13.057
  614TIP3    H252311   1.889   0.241  12.911
  615TIP3   OH252312   2.068   1.409  13.562
  615TIP3    H152313   2.005   1.458  13.508
  615TIP3    H252314   2.151   1.419  13.516
  616TIP3   OH252315   2.083   1.961  13.041
  616TIP3    H152316   2.003   1.909  13.035
  616TIP3    H252317   2.055   2.045  13.077
  617TIP3   OH252318   2.420   1.906  12.869
  617TIP3    H152319   2.488   1.942  12.927
  617TIP3    H252320   2.466   1.885  12.788
  618TIP3   OH252321   3.344   1.800  13.050
  618TIP3    H152322   3.264   1.848  13.031
  618TIP3    H252323   3.386   1.788  12.964
  619TIP3   OH252324   3.412   0.070  12.689
  619TIP3    H152325   3.480   0.100  12.629
  619TIP3    H252326   3.333   0.115  12.660
  620TIP3   OH252327   3.588   0.185  12.512
  620TIP3    H152328   3.631   0.147  12.435
  620TIP3    H252329   3.515   0.236  12.475
  621TIP3   OH252330   2.074   0.113  11.956
  621TIP3    H152331   2.141   0.170  11.917
  621TIP3    H252332   1.995   0.167  11.956
  622TIP3   OH252333   3.320   0.001  11.890
  622TIP3    H152334   3.256   0.042  11.948
  622TIP3    H252335   3.403   0.005  11.939
  623TIP3   OH252336   1.991   1.590  12.063
  623TIP3    H152337   1.918   1.647  12.036
  623TIP3    H252338   2.068   1.630  12.022
  624TIP3   OH252339   2.246   0.311  11.839
  624TIP3    H152340   2.298   0.340  11.765
  624TIP3    H252341   2.227   0.390  11.889
  625TIP3   OH252342   2.233   0.159  13.470
  625TIP3    H152343   2.150   0.131  13.432
  625TIP3    H252344   2.261   0.232  13.414
  626TIP3   OH252345   2.416   0.024  13.623
  626TIP3    H152346   2.456   8.111  13.557
  626TIP3    H252347   2.344   0.067  13.576
  627TIP3   OH252348   2.193   1.712  11.914
  627TIP3    H152349   2.156   1.792  11.951
  627TIP3    H252350   2.231   1.740  11.830
  628TIP3   OH252351   3.482   1.580  13.449
  628TIP3    H152352   3.432   1.574  13.368
  628TIP3    H252353   3.490   1.674  13.465
  629TIP3   OH252354   4.093   0.918  12.946
  629TIP3    H152355   4.083   0.831  12.983
  629TIP3    H252356   4.182   0.920  12.912
  630TIP3   OH252357   4.091   1.233  12.757
  630TIP3    H152358   4.186   1.241  12.750
  630TIP3    H252359   4.067   1.293  12.828
  631TIP3   OH252360   3.947   1.010  12.409
  631TIP3    H152361   3.997   0.958  12.345
  631TIP3    H252362   3.859   0.973  12.406
  632TIP3   OH252363   4.977   1.743  12.664
  632TIP3    H152364   5.011   1.655  12.646
  632TIP3    H252365   4.910   1.729  12.732
  633TIP3   OH252366   4.522   0.863  12.629
  633TIP3    H152367   4.616   0.878  12.626
  633TIP3    H252368   4.501   0.820  12.546
  634TIP3   OH252369   4.585   1.128  13.001
  634TIP3    H152370   4.536   1.210  12.997
  634TIP3    H252371   4.676   1.153  12.982
  635TIP3   OH252372   4.361   1.364  13.029
  635TIP3    H152373   4.373   1.452  13.066
  635TIP3    H252374   4.268   1.360  13.008
  636TIP3   OH252375   3.907   1.353  12.208
  636TIP3    H152376   3.905   1.325  12.116
  636TIP3    H252377   3.938   1.444  12.204
  637TIP3   OH252378   5.297   0.270  12.981
  637TIP3    H152379   5.269   0.286  12.891
  637TIP3    H252380   5.356   0.195  12.974
  638TIP3   OH252381   4.416   1.072  12.413
  638TIP3    H152382   4.407   0.977  12.399
  638TIP3    H252383   4.507   1.084  12.437
  639TIP3   OH252384   4.357   1.286  12.734
  639TIP3    H152385   4.428   1.283  12.670
  639TIP3    H252386   4.392   1.338  12.806
  640TIP3   OH252387   4.363   0.935  12.838
  640TIP3    H152388   4.416   0.907  12.764
  640TIP3    H252389   4.417   0.999  12.884
  641TIP3   OH252390   4.382   1.320  13.297
  641TIP3    H152391   4.373   1.415  13.303
  641TIP3    H252392   4.378   1.301  13.204
  642TIP3   OH252393   4.053   1.016  13.223
  642TIP3    H152394   4.068   1.110  13.220
  642TIP3    H252395   4.093   0.982  13.143
  643TIP3   OH252396   5.448   0.099  12.065
  643TIP3    H152397   5.355   0.112  12.085
  643TIP3    H252398   5.473   0.177  12.015
  644TIP3   OH252399   5.458   1.473  11.680
  644TIP3    H152400   5.393   1.527  11.725
  644TIP3    H252401   5.513   1.438  11.750
  645TIP3   OH252402   3.805   1.220  13.075
  645TIP3    H152403   3.740   1.281  13.040
  645TIP3    H252404   3.793   1.140  13.023
  646TIP3   OH252405   5.596   1.475  13.377
  646TIP3    H152406   5.575   1.425  13.299
  646TIP3    H252407   5.514   1.517  13.402
  647TIP3   OH252408   4.703   1.472  13.344
  647TIP3    H152409   4.651   1.553  13.344
  647TIP3    H252410   4.744   1.470  13.257
  648TIP3   OH252411   5.255   1.774  11.988
  648TIP3    H152412   5.249   1.710  11.917
  648TIP3    H252413   5.191   1.744  12.052
  649TIP3   OH252414   5.067   1.677  12.181
  649TIP3    H152415   4.986   1.643  12.143
  649TIP3    H252416   5.094   1.610  12.244
  650TIP3   OH252417   4.063   1.292  13.194
  650TIP3    H152418   4.089   1.384  13.195
  650TIP3    H252419   3.978   1.292  13.149
  651TIP3   OH252420   5.112   0.609  13.229
  651TIP3    H152421   5.031   0.589  13.182
  651TIP3    H252422   5.139   0.695  13.197
  652TIP3   OH252423   4.681   0.493  11.951
  652TIP3    H152424   4.640   0.571  11.913
  652TIP3    H252425   4.615   0.424  11.944
  653TIP3   OH252426   4.327   0.675  12.944
  653TIP3    H152427   4.296   0.622  12.870
  653TIP3    H252428   4.347   0.761  12.905
  654TIP3   OH252429   4.383   0.808  12.381
  654TIP3    H152430   4.297   0.778  12.352
  654TIP3    H252431   4.441   0.787  12.307
  655TIP3   OH252432   4.736   0.653  13.491
  655TIP3    H152433   4.699   0.575  13.449
  655TIP3    H252434   4.830   0.635  13.495
  656TIP3   OH252435   4.094   0.681  13.093
  656TIP3    H152436   4.167   0.653  13.038
  656TIP3    H252437   4.027   0.614  13.081
  657TIP3   OH252438   3.894   0.494  11.972
  657TIP3    H152439   3.945   0.546  11.910
  657TIP3    H252440   3.837   0.557  12.015
  658TIP3   OH252441   5.386   1.888  13.473
  658TIP3    H152442   5.400   1.924  13.386
  658TIP3    H252443   5.294   1.907  13.493
  659TIP3   OH252444   4.140   1.272  13.486
  659TIP3    H152445   4.175   1.268  13.397
  659TIP3    H252446   4.090   1.354  13.488
  660TIP3   OH252447   4.516   0.668  13.143
  660TIP3    H152448   4.464   0.655  13.064
  660TIP3    H252449   4.532   0.580  13.177
  661TIP3   OH252450   4.196   1.051  12.572
  661TIP3    H152451   4.267   1.064  12.509
  661TIP3    H252452   4.234   0.995  12.640
  662TIP3   OH252453   3.798   0.922  13.196
  662TIP3    H152454   3.883   0.967  13.202
  662TIP3    H252455   3.774   0.928  13.104
  663TIP3   OH252456   4.471   0.868  13.432
  663TIP3    H152457   4.392   0.852  13.380
  663TIP3    H252458   4.534   0.805  13.399
  664TIP3   OH252459   3.996   0.907  11.951
  664TIP3    H152460   4.013   0.833  11.893
  664TIP3    H252461   3.900   0.910  11.959
  665TIP3   OH252462   4.454   1.119  12.138
  665TIP3    H152463   4.549   1.109  12.147
  665TIP3    H252464   4.420   1.102  12.226
  666TIP3   OH252465   4.739   1.724  13.161
  666TIP3    H152466   4.697   1.736  13.076
  666TIP3    H252467   4.666   1.711  13.222
  667TIP3   OH252468   5.142   1.314  11.884
  667TIP3    H152469   5.153   1.222  11.910
  667TIP3    H252470   5.047   1.323  11.871
  668TIP3   OH252471   5.220   1.661  13.195
  668TIP3    H152472   5.142   1.624  13.153
  668TIP3    H252473   5.231   1.747  13.153
  669TIP3   OH252474   5.711   1.997  11.957
  669TIP3    H152475   5.741   1.911  11.988
  669TIP3    H252476   5.616   1.991  11.958
  670TIP3   OH252477   4.707   1.434  11.662
  670TIP3    H152478   4.767   1.382  11.608
  670TIP3    H252479   4.727   1.407  11.752
  671TIP3   OH252480   4.571   1.287  11.935
  671TIP3    H152481   4.658   1.260  11.964
  671TIP3    H252482   4.576   1.383  11.930
  672TIP3   OH252483   4.192   1.085  11.991
  672TIP3    H152484   4.124   1.142  12.027
  672TIP3    H252485   4.147   1.004  11.969
  673TIP3   OH252486   4.968   0.285  12.989
  673TIP3    H152487   5.064   0.284  12.984
  673TIP3    H252488   4.940   0.324  12.906
  674TIP3   OH252489   4.590   1.565  11.927
  674TIP3    H152490   4.523   1.620  11.968
  674TIP3    H252491   4.632   1.623  11.863
  675TIP3   OH252492   5.347   0.482  13.154
  675TIP3    H152493   5.264   0.519  13.183
  675TIP3    H252494   5.323   0.409  13.098
  676TIP3   OH252495   4.279   1.344  11.922
  676TIP3    H152496   4.309   1.435  11.928
  676TIP3    H252497   4.184   1.352  11.914
  677TIP3   OH252498   4.047   0.686  11.799
  677TIP3    H152499   4.142   0.697  11.793
  677TIP3    H252500   4.022   0.650  11.714
  678TIP3   OH252501   5.357   1.729  12.878
  678TIP3    H152502   5.310   1.647  12.865
  678TIP3    H252503   5.387   1.753  12.791
  679TIP3   OH252504   4.081   1.754  13.442
  679TIP3    H152505   4.177   1.757  13.443
  679TIP3    H252506   4.057   1.800  13.361
  680TIP3   OH252507   5.225   1.561  11.802
  680TIP3    H152508   5.204   1.477  11.842
  680TIP3    H252509   5.157   1.575  11.736
  681TIP3   OH252510   3.889   1.157  13.561
  681TIP3    H152511   3.978   1.184  13.537
  681TIP3    H252512   3.836   1.179  13.485
  682TIP3   OH252513   4.403   0.984  11.781
  682TIP3    H152514   4.365   0.898  11.800
  682TIP3    H252515   4.454   0.969  11.701
  683TIP3   OH252516   4.617   1.196  13.376
  683TIP3    H152517   4.552   1.252  13.333
  683TIP3    H252518   4.701   1.225  13.341
  684TIP3   OH252519   4.863   1.279  11.841
  684TIP3    H152520   4.877   1.216  11.911
  684TIP3    H252521   4.879   1.230  11.761
  685TIP3   OH252522   3.957   0.776  13.393
  685TIP3    H152523   3.941   0.801  13.302
  685TIP3    H252524   4.039   0.820  13.416
  686TIP3   OH252525   4.288   0.791  13.252
  686TIP3    H152526   4.213   0.758  13.202
  686TIP3    H252527   4.364   0.755  13.207
  687TIP3   OH252528   4.629   0.930  13.204
  687TIP3    H152529   4.610   0.846  13.163
  687TIP3    H252530   4.624   0.993  13.131
  688TIP3   OH252531   5.017   0.598  13.494
  688TIP3    H152532   5.083   0.542  13.536
  688TIP3    H252533   5.055   0.617  13.408
  689TIP3   OH252534   4.910   0.350  13.284
  689TIP3    H152535   4.829   0.384  13.323
  689TIP3    H252536   4.979   0.378  13.345
  690TIP3   OH252537   5.106   0.280  13.581
  690TIP3    H152538   5.119   0.185  13.573
  690TIP3    H252539   5.013   0.290  13.600
  691TIP3   OH252540   3.950   1.308  11.931
  691TIP3    H152541   3.886   1.377  11.911
  691TIP3    H252542   3.927   1.237  11.871
  692TIP3   OH252543   5.676   1.826  12.909
  692TIP3    H152544   5.627   1.753  12.870
  692TIP3    H252545   5.765   1.817  12.872
  693TIP3   OH252546   5.545   1.688  13.156
  693TIP3    H152547   5.461   1.646  13.138
  693TIP3    H252548   5.602   1.659  13.086
  694TIP3   OH252549   5.333   1.411  13.114
  694TIP3    H152550   5.283   1.489  13.135
  694TIP3    H252551   5.270   1.351  13.074
  695TIP3   OH252552   3.940   0.961  12.711
  695TIP3    H152553   3.903   0.878  12.680
  695TIP3    H252554   3.978   0.940  12.796
  696TIP3   OH252555   5.300   0.450  11.872
  696TIP3    H152556   5.313   0.527  11.927
  696TIP3    H252557   5.223   0.471  11.818
  697TIP3   OH252558   3.827   0.487  13.326
  697TIP3    H152559   3.902   0.459  13.274
  697TIP3    H252560   3.751   0.459  13.275
  698TIP3   OH252561   5.580   0.088  13.492
  698TIP3    H152562   5.498   0.047  13.467
  698TIP3    H252563   5.631   0.093  13.411
  699TIP3   OH252564   5.551   0.394  13.340
  699TIP3    H152565   5.492   0.388  13.415
  699TIP3    H252566   5.576   0.304  13.320
  700TIP3   OH252567   5.537   0.320  11.914
  700TIP3    H152568   5.450   0.353  11.890
  700TIP3    H252569   5.590   0.398  11.926
  701TIP3   OH252570   5.375   1.814  12.454
  701TIP3    H152571   5.360   1.724  12.425
  701TIP3    H252572   5.288   1.845  12.480
  702TIP3   OH252573   3.980   1.496  13.501
  702TIP3    H152574   3.899   1.503  13.450
  702TIP3    H252575   4.024   1.580  13.489
  703TIP3   OH252576   4.950   1.801  13.331
  703TIP3    H152577   4.998   1.774  13.252
  703TIP3    H252578   4.860   1.774  13.314
  704TIP3   OH252579   5.426   0.001  13.213
  704TIP3    H152580   5.438   0.003  13.118
  704TIP3    H252581   5.371   8.069  13.229
  705TIP3   OH252582   4.737   1.876  12.909
  705TIP3    H152583   4.753   1.927  12.829
  705TIP3    H252584   4.722   1.942  12.977
  706TIP3   OH252585   4.994   1.628  13.047
  706TIP3    H152586   4.901   1.651  13.056
  706TIP3    H252587   4.995   1.553  12.988
  707TIP3   OH252588   5.236   1.902  13.051
  707TIP3    H152589   5.148   1.919  13.017
  707TIP3    H252590   5.278   1.850  12.982
  708TIP3   OH252591   5.346   0.078  12.711
  708TIP3    H152592   5.399   0.123  12.647
  708TIP3    H252593   5.262   0.063  12.667
  709TIP3   OH252594   5.090   0.100  12.581
  709TIP3    H152595   5.031   0.153  12.528
  709TIP3    H252596   5.101   0.020  12.530
  710TIP3   OH252597   5.180   0.177  12.102
  710TIP3    H152598   5.164   0.264  12.066
  710TIP3    H252599   5.093   0.137  12.105
  711TIP3   OH252600   5.549   1.682  12.106
  711TIP3    H152601   5.535   1.590  12.130
  711TIP3    H252602   5.461   1.718  12.099
  712TIP3   OH252603   5.129   0.004  13.571
  712TIP3    H152604   5.079   8.100  13.505
  712TIP3    H252605   5.181   8.082  13.616
  713TIP3   OH252606   5.356   1.614  13.436
  713TIP3    H152607   5.305   1.611  13.355
  713TIP3    H252608   5.370   1.707  13.453
  714TIP3   OH252609   6.836   1.747  12.689
  714TIP3    H152610   6.902   1.733  12.621
  714TIP3    H252611   6.769   1.681  12.671
  715TIP3   OH252612   6.889   0.598  12.747
  715TIP3    H152613   6.814   0.539  12.750
  715TIP3    H252614   6.852   0.685  12.732
  716TIP3   OH252615   6.259   0.520  12.520
  716TIP3    H152616   6.194   0.588  12.537
  716TIP3    H252617   6.208   0.447  12.484
  717TIP3   OH252618   7.067   0.449  12.402
  717TIP3    H152619   7.106   0.416  12.483
  717TIP3    H252620   7.100   0.538  12.393
  718TIP3   OH252621   5.892   0.828  12.662
  718TIP3    H152622   5.958   0.769  12.698
  718TIP3    H252623   5.881   0.798  12.571
  719TIP3   OH252624   7.469   0.463  13.144
  719TIP3    H152625   7.407   0.524  13.103
  719TIP3    H252626   7.466   0.385  13.090
  720TIP3   OH252627   5.978   0.404  13.024
  720TIP3    H152628   5.902   0.399  12.966
  720TIP3    H252629   5.978   0.495  13.055
  721TIP3   OH252630   7.147   0.362  12.668
  721TIP3    H152631   7.082   0.369  12.737
  721TIP3    H252632   7.216   0.424  12.694
  722TIP3   OH252633   6.069   0.649  12.774
  722TIP3    H152634   6.074   0.657  12.869
  722TIP3    H252635   6.080   0.555  12.758
  723TIP3   OH252636   6.136   1.340  13.169
  723TIP3    H152637   6.172   1.336  13.080
  723TIP3    H252638   6.120   1.249  13.193
  724TIP3   OH252639   7.208   0.294  13.050
  724TIP3    H152640   7.139   0.295  12.984
  724TIP3    H252641   7.273   0.233  13.016
  725TIP3   OH252642   6.659   8.083  12.898
  725TIP3    H152643   6.600   8.037  12.839
  725TIP3    H252644   6.622   0.027  12.905
  726TIP3   OH252645   7.012   1.720  12.471
  726TIP3    H152646   7.029   1.632  12.439
  726TIP3    H252647   7.089   1.771  12.444
  727TIP3   OH252648   7.140   1.271  13.216
  727TIP3    H152649   7.071   1.232  13.161
  727TIP3    H252650   7.174   1.343  13.163
  728TIP3   OH252651   7.435   0.916  12.960
  728TIP3    H152652   7.351   0.961  12.971
  728TIP3    H252653   7.456   0.929  12.867
  729TIP3   OH252654   7.087   0.815  13.134
  729TIP3    H152655   7.107   0.903  13.102
  729TIP3    H252656   6.996   0.801  13.111
  730TIP3   OH252657   6.037   1.090  13.221
  730TIP3    H152658   6.090   1.021  13.182
  730TIP3    H252659   5.948   1.072  13.191
  731TIP3   OH252660   6.122   1.592  13.281
  731TIP3    H152661   6.182   1.638  13.222
  731TIP3    H252662   6.124   1.501  13.251
  732TIP3   OH252663   7.301   0.142  11.887
  732TIP3    H152664   7.225   0.151  11.944
  732TIP3    H252665   7.348   0.066  11.920
  733TIP3   OH252666   7.374   1.572  11.879
  733TIP3    H152667   7.289   1.590  11.839
  733TIP3    H252668   7.424   1.653  11.866
  734TIP3   OH252669   5.784   1.091  13.088
  734TIP3    H152670   5.776   1.070  12.995
  734TIP3    H252671   5.718   1.038  13.131
  735TIP3   OH252672   5.705   1.532  12.913
  735TIP3    H152673   5.682   1.440  12.904
  735TIP3    H252674   5.710   1.564  12.822
  736TIP3   OH252675   7.409   1.509  13.333
  736TIP3    H152676   7.436   1.562  13.259
  736TIP3    H252677   7.328   1.550  13.364
  737TIP3   OH252678   6.632   1.977  12.188
  737TIP3    H152679   6.547   1.938  12.205
  737TIP3    H252680   6.648   2.036  12.261
  738TIP3   OH252681   6.051   1.648  12.383
  738TIP3    H152682   6.032   1.647  12.477
  738TIP3    H252683   5.972   1.611  12.342
  739TIP3   OH252684   6.947   1.773  11.970
  739TIP3    H152685   7.012   1.745  11.906
  739TIP3    H252686   6.912   1.692  12.007
  740TIP3   OH252687   6.867   1.823  12.245
  740TIP3    H152688   6.848   1.731  12.229
  740TIP3    H252689   6.914   1.823  12.329
  741TIP3   OH252690   7.203   0.658  13.355
  741TIP3    H152691   7.156   0.712  13.291
  741TIP3    H252692   7.178   0.568  13.333
  742TIP3   OH252693   5.849   1.350  13.164
  742TIP3    H152694   5.942   1.329  13.156
  742TIP3    H252695   5.804   1.270  13.139
  743TIP3   OH252696   6.078   0.378  12.762
  743TIP3    H152697   6.022   0.316  12.716
  743TIP3    H252698   6.054   0.368  12.854
  744TIP3   OH252699   6.808   0.199  13.264
  744TIP3    H152700   6.872   0.132  13.238
  744TIP3    H252701   6.797   0.254  13.186
  745TIP3   OH252702   6.924   0.590  13.284
  745TIP3    H152703   6.837   0.621  13.311
  745TIP3    H252704   6.933   0.620  13.193
  746TIP3   OH252705   7.114   1.045  11.816
  746TIP3    H152706   7.087   0.972  11.760
  746TIP3    H252707   7.032   1.090  11.837
  747TIP3   OH252708   5.958   0.659  13.114
  747TIP3    H152709   6.013   0.727  13.151
  747TIP3    H252710   5.869   0.683  13.141
  748TIP3   OH252711   6.396   0.435  11.905
  748TIP3    H152712   6.454   0.458  11.833
  748TIP3    H252713   6.367   0.519  11.941
  749TIP3   OH252714   5.679   0.559  11.951
  749TIP3    H152715   5.737   0.594  11.883
  749TIP3    H252716   5.619   0.631  11.970
  750TIP3   OH252717   6.822   0.734  13.080
  750TIP3    H152718   6.757   0.709  13.014
  750TIP3    H252719   6.771   0.741  13.161
  751TIP3   OH252720   6.517   0.577  12.573
  751TIP3    H152721   6.431   0.547  12.544
  751TIP3    H252722   6.499   0.656  12.625
  752TIP3   OH252723   5.879   0.657  12.352
  752TIP3    H152724   5.798   0.708  12.341
  752TIP3    H252725   5.883   0.602  12.274
  753TIP3   OH252726   6.482   0.651  12.152
  753TIP3    H152727   6.440   0.705  12.219
  753TIP3    H252728   6.463   0.695  12.070
  754TIP3   OH252729   6.971   0.306  12.894
  754TIP3    H152730   6.918   0.345  12.963
  754TIP3    H252731   6.908   0.284  12.825
  755TIP3   OH252732   6.275   0.679  11.948
  755TIP3    H152733   6.209   0.672  11.879
  755TIP3    H252734   6.294   0.772  11.953
  756TIP3   OH252735   7.209   1.949  13.392
  756TIP3    H152736   7.223   1.960  13.298
  756TIP3    H252737   7.282   1.996  13.433
  757TIP3   OH252738   5.976   1.231  13.458
  757TIP3    H152739   6.007   1.189  13.378
  757TIP3    H252740   5.891   1.191  13.475
  758TIP3   OH252741   6.125   0.322  12.392
  758TIP3    H152742   6.147   0.238  12.350
  758TIP3    H252743   6.036   0.341  12.363
  759TIP3   OH252744   6.581   0.602  13.000
  759TIP3    H152745   6.505   0.545  13.007
  759TIP3    H252746   6.564   0.672  13.063
  760TIP3   OH252747   7.205   1.054  12.980
  760TIP3    H152748   7.240   1.124  12.924
  760TIP3    H252749   7.117   1.083  13.002
  761TIP3   OH252750   7.430   0.568  11.932
  761TIP3    H152751   7.391   0.557  12.019
  761TIP3    H252752   7.464   0.657  11.931
  762TIP3   OH252753   7.407   1.232  13.258
  762TIP3    H152754   7.313   1.245  13.247
  762TIP3    H252755   7.439   1.210  13.171
  763TIP3   OH252756   7.197   1.451  12.074
  763TIP3    H152757   7.125   1.419  12.129
  763TIP3    H252758   7.162   1.529  12.031
  764TIP3   OH252759   6.554   1.666  13.055
  764TIP3    H152760   6.586   1.735  12.997
  764TIP3    H252761   6.598   1.586  13.025
  765TIP3   OH252762   6.950   1.359  11.905
  765TIP3    H152763   6.939   1.383  11.997
  765TIP3    H252764   6.862   1.335  11.876
  766TIP3   OH252765   7.077   1.585  13.174
  766TIP3    H152766   7.033   1.520  13.119
  766TIP3    H252767   7.127   1.638  13.113
  767TIP3   OH252768   7.467   1.834  11.819
  767TIP3    H152769   7.547   1.876  11.850
  767TIP3    H252770   7.398   1.896  11.842
  768TIP3   OH252771   5.659   0.402  13.073
  768TIP3    H152772   5.694   0.417  12.985
  768TIP3    H252773   5.666   0.307  13.085
  769TIP3   OH252774   5.863   1.622  13.133
  769TIP3    H152775   5.843   1.654  13.045
  769TIP3    H252776   5.842   1.529  13.129
  770TIP3   OH252777   6.511   1.334  11.834
  770TIP3    H152778   6.554   1.271  11.777
  770TIP3    H252779   6.453   1.282  11.889
  771TIP3   OH252780   6.767   0.392  13.062
  771TIP3    H152781   6.748   0.483  13.038
  771TIP3    H252782   6.684   0.358  13.094
  772TIP3   OH252783   6.932   0.365  12.163
  772TIP3    H152784   6.902   0.447  12.124
  772TIP3    H252785   6.975   0.392  12.245
  773TIP3   OH252786   6.673   0.597  12.349
  773TIP3    H152787   6.620   0.619  12.272
  773TIP3    H252788   6.612   0.605  12.422
  774TIP3   OH252789   6.807   0.398  12.480
  774TIP3    H152790   6.756   0.467  12.437
  774TIP3    H252791   6.897   0.413  12.451
  775TIP3   OH252792   6.190   0.472  12.118
  775TIP3    H152793   6.183   0.564  12.093
  775TIP3    H252794   6.242   0.472  12.198
  776TIP3   OH252795   7.111   0.388  13.295
  776TIP3    H152796   7.042   0.443  13.258
  776TIP3    H252797   7.156   0.351  13.219
  777TIP3   OH252798   7.108   0.737  12.643
  777TIP3    H152799   7.075   0.826  12.655
  777TIP3    H252800   7.039   0.680  12.677
  778TIP3   OH252801   5.861   0.640  11.764
  778TIP3    H152802   5.844   0.717  11.710
  778TIP3    H252803   5.910   0.580  11.708
  779TIP3   OH252804   7.225   1.703  12.957
  779TIP3    H152805   7.182   1.674  12.877
  779TIP3    H252806   7.304   1.748  12.927
  780TIP3   OH252807   5.822   0.129  12.967
  780TIP3    H152808   5.866   0.141  12.883
  780TIP3    H252809   5.811   0.034  12.974
  781TIP3   OH252810   5.854   1.508  12.232
  781TIP3    H152811   5.775   1.457  12.215
  781TIP3    H252812   5.924   1.462  12.186
  782TIP3   OH252813   5.723   1.774  13.363
  782TIP3    H152814   5.678   1.830  13.426
  782TIP3    H252815   5.654   1.742  13.305
  783TIP3   OH252816   6.217   1.576  13.555
  783TIP3    H152817   6.297   1.525  13.572
  783TIP3    H252818   6.202   1.566  13.461
  784TIP3   OH252819   6.580   1.605  11.770
  784TIP3    H152820   6.552   1.521  11.805
  784TIP3    H252821   6.561   1.600  11.677
  785TIP3   OH252822   7.107   1.568  11.808
  785TIP3    H152823   7.050   1.494  11.830
  785TIP3    H252824   7.096   1.579  11.713
  786TIP3   OH252825   5.734   1.116  13.506
  786TIP3    H152826   5.745   1.034  13.458
  786TIP3    H252827   5.640   1.134  13.500
  787TIP3   OH252828   7.297   1.247  11.835
  787TIP3    H152829   7.232   1.178  11.840
  787TIP3    H252830   7.318   1.254  11.741
  788TIP3   OH252831   6.331   0.542  13.113
  788TIP3    H152832   6.373   0.581  13.189
  788TIP3    H252833   6.258   0.492  13.149
  789TIP3   OH252834   6.909   0.653  13.555
  789TIP3    H152835   6.838   0.715  13.538
  789TIP3    H252836   6.961   0.653  13.475
  790TIP3   OH252837   7.120   1.159  13.475
  790TIP3    H152838   7.093   1.199  13.392
  790TIP3    H252839   7.178   1.088  13.449
  791TIP3   OH252840   6.203   0.618  13.425
  791TIP3    H152841   6.182   0.711  13.428
  791TIP3    H252842   6.292   0.615  13.390
  792TIP3   OH252843   6.533   8.022  13.144
  792TIP3    H152844   6.564   8.107  13.174
  792TIP3    H252845   6.572   8.011  13.057
  793TIP3   OH252846   6.665   0.454  13.349
  793TIP3    H152847   6.666   0.549  13.348
  793TIP3    H252848   6.599   0.430  13.283
  794TIP3   OH252849   6.905   0.366  13.483
  794TIP3    H152850   6.978   0.355  13.423
  794TIP3    H252851   6.895   0.461  13.492
  795TIP3   OH252852   5.978   0.458  13.512
  795TIP3    H152853   5.943   0.429  13.427
  795TIP3    H252854   6.052   0.514  13.489
  796TIP3   OH252855   6.396   7.898  13.385
  796TIP3    H152856   6.456   7.913  13.458
  796TIP3    H252857   6.408   7.806  13.363
  797TIP3   OH252858   6.552   0.126  13.563
  797TIP3    H152859   6.507   0.086  13.488
  797TIP3    H252860   6.482   0.146  13.625
  798TIP3   OH252861   6.307   2.052  11.814
  798TIP3    H152862   6.326   1.968  11.772
  798TIP3    H252863   6.376   2.111  11.784
  799TIP3   OH252864   5.701   1.649  12.663
  799TIP3    H152865   5.680   1.638  12.571
  799TIP3    H252866   5.776   1.709  12.664
  800TIP3   OH252867   7.456   1.826  12.895
  800TIP3    H152868   7.460   1.921  12.891
  800TIP3    H252869   7.520   1.796  12.831
  801TIP3   OH252870   7.489   1.742  13.177
  801TIP3    H152871   7.447   1.725  13.093
  801TIP3    H252872   7.546   1.817  13.161
  802TIP3   OH252873   7.366   1.212  12.141
  802TIP3    H152874   7.437   1.165  12.185
  802TIP3    H252875   7.288   1.189  12.191
  803TIP3   OH252876   7.378   0.901  12.267
  803TIP3    H152877   7.309   0.838  12.289
  803TIP3    H252878   7.391   0.951  12.348
  804TIP3   OH252879   7.448   1.204  12.775
  804TIP3    H152880   7.363   1.215  12.732
  804TIP3    H252881   7.485   1.292  12.776
  805TIP3   OH252882   7.292   1.428  13.033
  805TIP3    H152883   7.284   1.519  13.004
  805TIP3    H252884   7.240   1.378  12.970
  806TIP3   OH252885   7.428   0.848  11.991
  806TIP3    H152886   7.360   0.913  11.969
  806TIP3    H252887   7.437   0.855  12.086
  807TIP3   OH252888   7.378   0.558  11.649
  807TIP3    H152889   7.412   0.645  11.629
  807TIP3    H252890   7.384   0.552  11.744
  808TIP3   OH252891   7.163   0.717  12.367
  808TIP3    H152892   7.094   0.767  12.324
  808TIP3    H252893   7.150   0.735  12.461
  809TIP3   OH252894   5.760   1.021  12.816
  809TIP3    H152895   5.699   1.063  12.756
  809TIP3    H252896   5.808   0.958  12.762
  810TIP3   OH252897   7.344   0.985  13.450
  810TIP3    H152898   7.371   0.898  13.477
  810TIP3    H252899   7.371   0.992  13.358
  811TIP3   OH252900   7.429   0.719  13.487
  811TIP3    H152901   7.357   0.696  13.428
  811TIP3    H252902   7.500   0.660  13.461
  812TIP3   OH252903   7.210   0.303  11.678
  812TIP3    H152904   7.245   0.238  11.739
  812TIP3    H252905   7.124   0.324  11.712
  813TIP3   OH252906   7.347   0.572  12.205
  813TIP3    H152907   7.328   0.478  12.208
  813TIP3    H252908   7.276   0.612  12.256
  814TIP3   OH252909   7.315   0.580  12.764
  814TIP3    H152910   7.256   0.642  12.720
  814TIP3    H252911   7.303   0.597  12.857
  815TIP3   OH252912   7.309   0.676  13.030
  815TIP3    H152913   7.228   0.711  13.067
  815TIP3    H252914   7.360   0.754  13.008
  816TIP3   OH252915   7.313   0.300  12.190
  816TIP3    H152916   7.335   0.251  12.269
  816TIP3    H252917   7.241   0.250  12.151
  817TIP3   OH252918   5.771   0.419  12.826
  817TIP3    H152919   5.746   0.340  12.777
  817TIP3    H252920   5.781   0.487  12.759
  818TIP3   OH252921   7.528   0.300  11.907
  818TIP3    H152922   7.447   0.250  11.917
  818TIP3    H252923   7.502   0.391  11.924
  819TIP3   OH252924   5.690   0.315  12.405
  819TIP3    H152925   5.685   0.245  12.340
  819TIP3    H252926   5.714   0.393  12.354
  820TIP3   OH252927   7.212   1.864  12.356
  820TIP3    H152928   7.271   1.834  12.287
  820TIP3    H252929   7.244   1.952  12.378
  821TIP3   OH252930   5.670   0.146  13.200
  821TIP3    H152931   5.590   0.093  13.197
  821TIP3    H252932   5.721   0.118  13.124
  822TIP3   OH252933   5.865   1.505  13.417
  822TIP3    H152934   5.771   1.488  13.410
  822TIP3    H252935   5.905   1.418  13.423
  823TIP3   OH252936   6.277   1.714  13.095
  823TIP3    H152937   6.240   1.752  13.016
  823TIP3    H252938   6.368   1.695  13.072
  824TIP3   OH252939   6.637   1.709  13.310
  824TIP3    H152940   6.642   1.627  13.358
  824TIP3    H252941   6.598   1.686  13.226
  825TIP3   OH252942   6.864   1.820  13.165
  825TIP3    H152943   6.849   1.753  13.099
  825TIP3    H252944   6.954   1.849  13.151
  826TIP3   OH252945   5.903   2.008  13.088
  826TIP3    H152946   5.964   2.069  13.047
  826TIP3    H252947   5.816   2.036  13.058
  827TIP3   OH252948   6.648   1.871  12.895
  827TIP3    H152949   6.570   1.906  12.850
  827TIP3    H252950   6.711   1.855  12.825
  828TIP3   OH252951   6.833   1.644  12.965
  828TIP3    H152952   6.880   1.562  12.972
  828TIP3    H252953   6.846   1.672  12.874
  829TIP3   OH252954   7.116   1.909  13.113
  829TIP3    H152955   7.134   1.993  13.069
  829TIP3    H252956   7.161   1.844  13.059
  830TIP3   OH252957   5.924   1.779  12.801
  830TIP3    H152958   5.953   1.866  12.773
  830TIP3    H252959   5.985   1.718  12.759
  831TIP3   OH252960   6.088   1.602  12.666
  831TIP3    H152961   6.088   1.506  12.660
  831TIP3    H252962   6.181   1.625  12.671
  832TIP3   OH252963   6.364   1.663  12.709
  832TIP3    H152964   6.411   1.670  12.626
  832TIP3    H252965   6.396   1.581  12.748
  833TIP3   OH252966   6.772   0.258  12.709
  833TIP3    H152967   6.680   0.256  12.732
  833TIP3    H252968   6.777   0.315  12.632
  834TIP3   OH252969   7.188   0.088  12.599
  834TIP3    H152970   7.252   0.104  12.530
  834TIP3    H252971   7.167   0.176  12.632
  835TIP3   OH252972   7.393   0.191  12.441
  835TIP3    H152973   7.457   0.133  12.483
  835TIP3    H252974   7.412   0.277  12.477
  836TIP3   OH252975   5.633   0.153  12.618
  836TIP3    H152976   5.633   0.064  12.584
  836TIP3    H252977   5.631   0.209  12.541
  837TIP3   OH252978   5.697   0.091  11.871
  837TIP3    H152979   5.749   0.121  11.796
  837TIP3    H252980   5.628   0.157  11.879
  838TIP3   OH252981   6.246   0.084  12.308
  838TIP3    H152982   6.293   0.048  12.383
  838TIP3    H252983   6.167   0.030  12.301
  839TIP3   OH252984   6.917   0.045  12.608
  839TIP3    H152985   6.882   0.123  12.652
  839TIP3    H252986   6.871   0.041  12.525
  840TIP3   OH252987   7.098   0.162  12.069
  840TIP3    H152988   7.029   0.216  12.107
  840TIP3    H252989   7.093   0.079  12.118
  841TIP3   OH252990   5.812   1.757  12.055
  841TIP3    H152991   5.721   1.728  12.066
  841TIP3    H252992   5.862   1.697  12.111
  842TIP3   OH252993   5.826   0.292  11.722
  842TIP3    H152994   5.888   0.344  11.672
  842TIP3    H252995   5.741   0.332  11.703
  843TIP3   OH252996   6.608   0.250  11.903
  843TIP3    H152997   6.543   0.319  11.917
  843TIP3    H252998   6.681   0.295  11.859
  844TIP3   OH252999   6.679   1.837  11.896
  844TIP3    H153000   6.660   1.880  11.812
  844TIP3    H253001   6.649   1.746  11.883
  845TIP3   OH253002   7.375   1.800  12.127
  845TIP3    H153003   7.460   1.779  12.088
  845TIP3    H253004   7.344   1.875  12.077
  846TIP3   OH253005   5.900   0.307  13.280
  846TIP3    H153006   5.819   0.265  13.251
  846TIP3    H253007   5.940   0.340  13.200
  847TIP3   OH253008   6.295   0.062  13.453
  847TIP3    H153009   6.335   0.147  13.435
  847TIP3    H253010   6.212   0.083  13.495
  848TIP3   OH253011   6.051   1.932  11.868
  848TIP3    H153012   5.990   1.878  11.918
  848TIP3    H253013   6.056   1.890  11.782
  849TIP3   OH253014   6.832   0.089  13.527
  849TIP3    H153015   6.814   8.139  13.534
  849TIP3    H253016   6.927   0.095  13.523
  850TIP3   OH253017   7.198   1.666  13.412
  850TIP3    H153018   7.151   1.645  13.331
  850TIP3    H253019   7.209   1.761  13.410
  851TIP3   OH253020   7.952   0.849  12.937
  851TIP3    H153021   8.004   0.807  13.005
  851TIP3    H253022   7.970   0.943  12.946
  852TIP3   OH253023   7.832   1.265  12.822
  852TIP3    H153024   7.896   1.217  12.770
  852TIP3    H253025   7.858   1.357  12.814
  853TIP3   OH253026   7.566   0.654  12.373
  853TIP3    H153027   7.496   0.632  12.312
  853TIP3    H253028   7.615   0.723  12.329
  854TIP3   OH253029   7.553   0.932  12.556
  854TIP3    H153030   7.600   0.909  12.476
  854TIP3    H253031   7.527   1.024  12.543
  855TIP3   OH253032   7.795   0.655  12.573
  855TIP3    H153033   7.813   0.564  12.552
  855TIP3    H253034   7.728   0.682  12.510
  856TIP3   OH253035   7.897   1.343  13.074
  856TIP3    H153036   7.965   1.406  13.051
  856TIP3    H253037   7.851   1.326  12.992
  857TIP3   OH253038   7.558   1.440  12.120
  857TIP3    H153039   7.649   1.427  12.093
  857TIP3    H253040   7.563   1.499  12.195
  858TIP3   OH253041   0.011   1.064  12.466
  858TIP3    H153042   0.030   1.146  12.421
  858TIP3    H253043   0.089   1.010  12.452
  859TIP3   OH253044   7.900   0.802  13.238
  859TIP3    H153045   7.982   0.761  13.212
  859TIP3    H253046   7.923   0.894  13.252
  860TIP3   OH253047   0.140   1.736  13.385
  860TIP3    H153048   0.111   1.736  13.294
  860TIP3    H253049   0.091   1.666  13.426
  861TIP3   OH253050   8.021   0.842  12.386
  861TIP3    H153051   8.066   0.926  12.400
  861TIP3    H253052   8.082   0.791  12.332
  862TIP3   OH253053   7.548   1.165  13.032
  862TIP3    H153054   7.529   1.213  12.951
  862TIP3    H253055   7.524   1.074  13.011
  863TIP3   OH253056   7.580   1.450  12.806
  863TIP3    H153057   7.671   1.471  12.827
  863TIP3    H253058   7.558   1.510  12.734
  864TIP3   OH253059   7.838   1.755  12.356
  864TIP3    H153060   7.849   1.723  12.446
  864TIP3    H253061   7.885   1.691  12.302
  865TIP3   OH253062   7.675   1.314  13.216
  865TIP3    H153063   7.753   1.353  13.176
  865TIP3    H253064   7.635   1.263  13.145
  866TIP3   OH253065   8.115   0.694  13.110
  866TIP3    H153066   0.005   0.623  13.057
  866TIP3    H253067   0.048   0.745  13.135
  867TIP3   OH253068   7.980   0.535  12.146
  867TIP3    H153069   7.946   0.488  12.222
  867TIP3    H253070   8.065   0.567  12.173
  868TIP3   OH253071   7.865   0.578  12.977
  868TIP3    H153072   7.873   0.597  13.071
  868TIP3    H253073   7.837   0.487  12.973
  869TIP3   OH253074   7.460   0.437  12.545
  869TIP3    H153075   7.441   0.466  12.634
  869TIP3    H253076   7.489   0.517  12.500
  870TIP3   OH253077   7.799   0.416  11.966
  870TIP3    H153078   7.861   0.452  12.030
  870TIP3    H253079   7.774   0.490  11.912
  871TIP3   OH253080   7.997   0.682  11.901
  871TIP3    H153081   8.051   0.761  11.910
  871TIP3    H253082   7.999   0.641  11.987
  872TIP3   OH253083   7.933   1.068  13.313
  872TIP3    H153084   8.019   1.073  13.273
  872TIP3    H253085   7.879   1.129  13.263
  873TIP3   OH253086   7.965   1.080  12.667
  873TIP3    H153087   8.026   1.098  12.596
  873TIP3    H253088   7.981   0.988  12.690
  874TIP3   OH253089   7.524   0.920  13.238
  874TIP3    H153090   7.570   0.840  13.264
  874TIP3    H253091   7.503   0.907  13.145
  875TIP3   OH253092   7.726   0.894  11.805
  875TIP3    H153093   7.811   0.933  11.783
  875TIP3    H253094   7.676   0.966  11.843
  876TIP3   OH253095   7.747   0.392  13.198
  876TIP3    H153096   7.665   0.409  13.153
  876TIP3    H253097   7.793   0.329  13.143
  877TIP3   OH253098   7.787   1.600  13.144
  877TIP3    H153099   7.859   1.561  13.095
  877TIP3    H253100   7.755   1.670  13.087
  878TIP3   OH253101   7.739   1.165  11.919
  878TIP3    H153102   7.771   1.215  11.994
  878TIP3    H253103   7.818   1.134  11.875
  879TIP3   OH253104   7.879   1.541  11.789
  879TIP3    H153105   7.853   1.507  11.875
  879TIP3    H253106   7.970   1.514  11.779
  880TIP3   OH253107   7.755   0.619  11.792
  880TIP3    H153108   7.848   0.632  11.809
  880TIP3    H253109   7.720   0.708  11.783
  881TIP3   OH253110   7.593   1.631  12.312
  881TIP3    H153111   7.559   1.707  12.265
  881TIP3    H253112   7.685   1.651  12.327
  882TIP3   OH253113   7.597   1.799  13.430
  882TIP3    H153114   7.647   1.877  13.405
  882TIP3    H253115   7.544   1.780  13.353
  883TIP3   OH253116   7.624   1.114  13.410
  883TIP3    H153117   7.699   1.061  13.436
  883TIP3    H253118   7.577   1.061  13.346
  884TIP3   OH253119   7.960   1.058  11.798
  884TIP3    H153120   8.015   1.008  11.857
  884TIP3    H253121   8.022   1.111  11.746
  885TIP3   OH253122   7.749   0.830  13.461
  885TIP3    H153123   7.781   0.832  13.371
  885TIP3    H253124   7.799   0.759  13.503
  886TIP3   OH253125   7.972   0.604  13.569
  886TIP3    H153126   7.920   0.551  13.509
  886TIP3    H253127   8.057   0.612  13.526
  887TIP3   OH253128   7.564   1.352  11.848
  887TIP3    H153129   7.612   1.416  11.794
  887TIP3    H253130   7.627   1.282  11.863
  888TIP3   OH253131   7.563   1.632  12.597
  888TIP3    H153132   7.552   1.625  12.502
  888TIP3    H253133   7.652   1.666  12.609
  889TIP3   OH253134   7.736   0.890  12.752
  889TIP3    H153135   7.665   0.896  12.688
  889TIP3    H253136   7.752   0.981  12.778
  890TIP3   OH253137   7.591   0.513  13.390
  890TIP3    H153138   7.673   0.486  13.349
  890TIP3    H253139   7.524   0.493  13.325
  891TIP3   OH253140   7.642   0.612  12.811
  891TIP3    H153141   7.658   0.519  12.826
  891TIP3    H253142   7.547   0.620  12.807
  892TIP3   OH253143   7.679   1.539  13.384
  892TIP3    H153144   7.660   1.627  13.419
  892TIP3    H253145   7.724   1.556  13.301
  893TIP3   OH253146   8.140   1.707  13.153
  893TIP3    H153147   8.111   1.778  13.096
  893TIP3    H253148   8.130   1.628  13.099
  894TIP3   OH253149   7.638   1.963  13.110
  894TIP3    H153150   7.681   1.916  13.038
  894TIP3    H253151   7.633   2.054  13.080
  895TIP3   OH253152   8.035   1.883  12.966
  895TIP3    H153153   7.939   1.878  12.969
  895TIP3    H253154   8.060   1.814  12.904
  896TIP3   OH253155   7.773   1.767  12.928
  896TIP3    H153156   7.815   1.692  12.885
  896TIP3    H253157   7.751   1.827  12.856
  897TIP3   OH253158   7.833   1.687  12.624
  897TIP3    H153159   7.841   1.611  12.682
  897TIP3    H253160   7.891   1.752  12.663
  898TIP3   OH253161   7.651   1.735  12.044
  898TIP3    H153162   7.689   1.817  12.011
  898TIP3    H253163   7.726   1.680  12.065
  899TIP3   OH253164   7.902   0.126  11.829
  899TIP3    H153165   7.914   0.037  11.795
  899TIP3    H253166   7.987   0.168  11.818
  900TIP3   OH253167   7.779   1.796  11.636
  900TIP3    H153168   7.761   1.839  11.719
  900TIP3    H253169   7.817   1.712  11.660
  901TIP3   OH253170   1.217   2.895  12.464
  901TIP3    H153171   1.207   2.978  12.417
  901TIP3    H253172   1.281   2.846  12.413
  902TIP3   OH253173   1.143   2.811  12.709
  902TIP3    H153174   1.062   2.763  12.696
  902TIP3    H253175   1.166   2.845  12.623
  903TIP3   OH253176   1.443   3.080  12.629
  903TIP3    H153177   1.373   3.143  12.612
  903TIP3    H253178   1.511   3.101  12.566
  904TIP3   OH253179   0.312   3.241  12.820
  904TIP3    H153180   0.286   3.149  12.823
  904TIP3    H253181   0.407   3.239  12.812
  905TIP3   OH253182   1.012   3.085  12.846
  905TIP3    H153183   0.965   3.019  12.795
  905TIP3    H253184   1.024   3.158  12.785
  906TIP3   OH253185   1.781   2.337  13.011
  906TIP3    H153186   1.802   2.430  13.013
  906TIP3    H253187   1.840   2.300  12.945
  907TIP3   OH253188   1.373   2.531  12.730
  907TIP3    H153189   1.371   2.442  12.764
  907TIP3    H253190   1.321   2.528  12.650
  908TIP3   OH253191   0.565   3.086  13.067
  908TIP3    H153192   0.583   3.124  12.982
  908TIP3    H253193   0.517   3.006  13.048
  909TIP3   OH253194   0.071   3.201  12.201
  909TIP3    H153195   8.143   3.217  12.140
  909TIP3    H253196   0.075   3.106  12.210
  910TIP3   OH253197   1.554   3.358  12.813
  910TIP3    H153198   1.505   3.414  12.753
  910TIP3    H253199   1.642   3.353  12.775
  911TIP3   OH253200   1.495   2.266  13.013
  911TIP3    H153201   1.446   2.247  12.933
  911TIP3    H253202   1.585   2.241  12.993
  912TIP3   OH253203   1.625   3.171  13.154
  912TIP3    H153204   1.608   3.109  13.084
  912TIP3    H253205   1.584   3.252  13.125
  913TIP3   OH253206   1.439   2.779  12.334
  913TIP3    H153207   1.520   2.820  12.305
  913TIP3    H253208   1.431   2.700  12.281
  914TIP3   OH253209   1.314   2.638  13.218
  914TIP3    H153210   1.223   2.661  13.200
  914TIP3    H253211   1.358   2.649  13.133
  915TIP3   OH253212   0.590   3.190  12.813
  915TIP3    H153213   0.570   3.127  12.743
  915TIP3    H253214   0.649   3.253  12.772
  916TIP3   OH253215   1.063   3.452  12.936
  916TIP3    H153216   1.025   3.537  12.957
  916TIP3    H253217   1.081   3.456  12.842
  917TIP3   OH253218   0.706   3.227  13.259
  917TIP3    H153219   0.647   3.302  13.272
  917TIP3    H253220   0.664   3.176  13.190
  918TIP3   OH253221   1.521   2.793  11.827
  918TIP3    H153222   1.427   2.782  11.840
  918TIP3    H253223   1.552   2.706  11.802
  919TIP3   OH253224   0.567   3.465  13.299
  919TIP3    H153225   0.586   3.497  13.210
  919TIP3    H253226   0.477   3.493  13.315
  920TIP3   OH253227   1.731   3.416  11.915
  920TIP3    H153228   1.736   3.511  11.920
  920TIP3    H253229   1.816   3.390  11.877
  921TIP3   OH253230   8.138   2.994  12.862
  921TIP3    H153231   8.079   2.949  12.802
  921TIP3    H253232   0.081   2.980  12.826
  922TIP3   OH253233   0.022   3.277  12.764
  922TIP3    H153234   0.015   3.188  12.729
  922TIP3    H253235   8.089   3.323  12.729
  923TIP3   OH253236   1.807   3.378  13.243
  923TIP3    H153237   1.857   3.451  13.207
  923TIP3    H253238   1.733   3.418  13.287
  924TIP3   OH253239   0.953   3.361  13.251
  924TIP3    H153240   0.942   3.431  13.187
  924TIP3    H253241   0.868   3.317  13.252
  925TIP3   OH253242   0.370   3.506  12.397
  925TIP3    H153243   0.456   3.464  12.396
  925TIP3    H253244   0.389   3.600  12.403
  926TIP3   OH253245   1.525   2.589  13.406
  926TIP3    H153246   1.463   2.594  13.333
  926TIP3    H253247   1.589   2.523  13.378
  927TIP3   OH253248   0.263   3.098  13.115
  927TIP3    H153249   0.314   3.171  13.149
  927TIP3    H253250   0.328   3.041  13.073
  928TIP3   OH253251   1.265   2.399  13.371
  928TIP3    H153252   1.220   2.342  13.310
  928TIP3    H253253   1.286   2.478  13.320
  929TIP3   OH253254   1.649   2.809  11.559
  929TIP3    H153255   1.572   2.795  11.504
  929TIP3    H253256   1.710   2.740  11.532
  930TIP3   OH253257   0.983   2.633  13.521
  930TIP3    H153258   0.887   2.632  13.515
  930TIP3    H253259   1.012   2.570  13.455
  931TIP3   OH253260   1.267   2.475  12.490
  931TIP3    H153261   1.211   2.494  12.415
  931TIP3    H253262   1.307   2.390  12.469
  932TIP3   OH253263   1.033   2.664  13.150
  932TIP3    H153264   1.022   2.636  13.059
  932TIP3    H253265   1.000   2.591  13.202
  933TIP3   OH253266   0.848   2.352  12.481
  933TIP3    H153267   0.786   2.303  12.426
  933TIP3    H253268   0.923   2.367  12.423
  934TIP3   OH253269   1.363   2.247  12.771
  934TIP3    H153270   1.284   2.237  12.717
  934TIP3    H253271   1.431   2.199  12.723
  935TIP3   OH253272   1.600   2.998  12.950
  935TIP3    H153273   1.643   2.913  12.938
  935TIP3    H253274   1.615   3.044  12.868
  936TIP3   OH253275   1.122   2.378  11.899
  936TIP3    H153276   1.073   2.449  11.859
  936TIP3    H253277   1.199   2.367  11.843
  937TIP3   OH253278   1.044   3.088  13.187
  937TIP3    H153279   0.973   3.026  13.203
  937TIP3    H253280   1.080   3.062  13.101
  938TIP3   OH253281   1.446   2.532  12.204
  938TIP3    H153282   1.521   2.473  12.207
  938TIP3    H253283   1.405   2.514  12.118
  939TIP3   OH253284   1.054   3.264  12.014
  939TIP3    H153285   1.020   3.341  12.059
  939TIP3    H253286   1.147   3.282  12.003
  940TIP3   OH253287   1.230   3.378  13.131
  940TIP3    H153288   1.178   3.409  13.057
  940TIP3    H253289   1.319   3.405  13.110
  941TIP3   OH253290   2.054   3.168  13.286
  941TIP3    H153291   2.121   3.173  13.218
  941TIP3    H253292   2.102   3.142  13.365
  942TIP3   OH253293   1.422   2.819  12.721
  942TIP3    H153294   1.327   2.808  12.723
  942TIP3    H253295   1.435   2.908  12.687
  943TIP3   OH253296   0.587   3.334  12.435
  943TIP3    H153297   0.654   3.371  12.377
  943TIP3    H253298   0.583   3.241  12.412
  944TIP3   OH253299   0.626   3.622  12.276
  944TIP3    H153300   0.597   3.665  12.195
  944TIP3    H253301   0.721   3.625  12.271
  945TIP3   OH253302   1.241   3.042  12.992
  945TIP3    H153303   1.168   3.052  12.931
  945TIP3    H253304   1.316   3.021  12.936
  946TIP3   OH253305   1.557   3.096  11.695
  946TIP3    H153306   1.535   3.171  11.749
  946TIP3    H253307   1.526   3.119  11.607
  947TIP3   OH253308   1.654   3.031  11.952
  947TIP3    H153309   1.643   2.985  12.035
  947TIP3    H253310   1.656   3.123  11.976
  948TIP3   OH253311   0.300   3.474  12.991
  948TIP3    H153312   0.394   3.467  13.001
  948TIP3    H253313   0.277   3.556  13.034
  949TIP3   OH253314   0.725   3.213  11.683
  949TIP3    H153315   0.807   3.174  11.716
  949TIP3    H253316   0.740   3.307  11.688
  950TIP3   OH253317   0.729   3.335  12.046
  950TIP3    H153318   0.782   3.283  11.985
  950TIP3    H253319   0.790   3.399  12.083
  951TIP3   OH253320   0.321   3.055  12.019
  951TIP3    H153321   0.269   2.976  12.035
  951TIP3    H253322   0.403   3.039  12.065
  952TIP3   OH253323   1.134   2.266  13.159
  952TIP3    H153324   1.196   2.265  13.086
  952TIP3    H253325   1.084   2.185  13.150
  953TIP3   OH253326   1.048   2.401  12.279
  953TIP3    H153327   1.057   2.325  12.221
  953TIP3    H253328   1.051   2.476  12.219
  954TIP3   OH253329   0.958   2.449  13.305
  954TIP3    H153330   0.884   2.408  13.348
  954TIP3    H253331   1.002   2.377  13.260
  955TIP3   OH253332   1.619   2.363  13.244
  955TIP3    H153333   1.553   2.324  13.186
  955TIP3    H253334   1.697   2.373  13.189
  956TIP3   OH253335   1.570   2.532  12.535
  956TIP3    H153336   1.486   2.521  12.491
  956TIP3    H253337   1.635   2.495  12.475
  957TIP3   OH253338   0.477   3.337  11.954
  957TIP3    H153339   0.567   3.352  11.983
  957TIP3    H253340   0.475   3.245  11.929
  958TIP3   OH253341   0.270   3.395  12.167
  958TIP3    H153342   0.210   3.323  12.190
  958TIP3    H253343   0.299   3.429  12.252
  959TIP3   OH253344   0.199   3.555  13.518
  959TIP3    H153345   0.289   3.571  13.546
  959TIP3    H253346   0.173   3.637  13.475
  960TIP3   OH253347   0.696   3.447  13.554
  960TIP3    H153348   0.755   3.521  13.565
  960TIP3    H253349   0.667   3.452  13.463
  961TIP3   OH253350   0.881   3.454  11.814
  961TIP3    H153351   0.915   3.483  11.899
  961TIP3    H253352   0.958   3.452  11.757
  962TIP3   OH253353   1.232   3.405  13.440
  962TIP3    H153354   1.197   3.490  13.466
  962TIP3    H253355   1.319   3.401  13.479
  963TIP3   OH253356   1.471   3.411  11.823
  963TIP3    H153357   1.566   3.411  11.838
  963TIP3    H253358   1.444   3.501  11.843
  964TIP3   OH253359   0.682   2.941  11.577
  964TIP3    H153360   0.733   2.871  11.618
  964TIP3    H253361   0.716   3.021  11.616
  965TIP3   OH253362   0.768   3.027  13.439
  965TIP3    H153363   0.738   3.093  13.376
  965TIP3    H253364   0.803   2.957  13.385
  966TIP3   OH253365   0.955   3.116  11.783
  966TIP3    H153366   1.002   3.154  11.857
  966TIP3    H253367   1.010   3.043  11.754
  967TIP3   OH253368   1.327   3.130  13.242
  967TIP3    H153369   1.422   3.138  13.243
  967TIP3    H253370   1.308   3.086  13.159
  968TIP3   OH253371   1.129   2.881  13.516
  968TIP3    H153372   1.219   2.849  13.515
  968TIP3    H253373   1.076   2.802  13.515
  969TIP3   OH253374   1.868   3.009  11.655
  969TIP3    H153375   1.901   3.005  11.566
  969TIP3    H253376   1.942   3.041  11.707
  970TIP3   OH253377   0.861   2.882  13.211
  970TIP3    H153378   0.918   2.807  13.195
  970TIP3    H253379   0.795   2.877  13.141
  971TIP3   OH253380   1.348   2.514  13.615
  971TIP3    H153381   1.295   2.466  13.552
  971TIP3    H253382   1.427   2.538  13.567
  972TIP3   OH253383   1.409   2.831  13.476
  972TIP3    H153384   1.392   2.861  13.386
  972TIP3    H253385   1.454   2.747  13.464
  973TIP3   OH253386   1.378   2.157  13.615
  973TIP3    H153387   1.430   2.087  13.575
  973TIP3    H253388   1.337   2.202  13.542
  974TIP3   OH253389   0.327   2.197  13.533
  974TIP3    H153390   0.245   2.243  13.516
  974TIP3    H253391   0.395   2.255  13.501
  975TIP3   OH253392   0.764   3.830  12.018
  975TIP3    H153393   0.809   3.780  12.087
  975TIP3    H253394   0.817   3.816  11.940
  976TIP3   OH253395   0.190   3.286  11.899
  976TIP3    H153396   0.225   3.198  11.914
  976TIP3    H253397   0.100   3.271  11.872
  977TIP3   OH253398   0.095   3.686  12.285
  977TIP3    H153399   0.044   3.765  12.302
  977TIP3    H253400   0.183   3.718  12.263
  978TIP3   OH253401   0.194   3.402  12.573
  978TIP3    H153402   0.136   3.362  12.509
  978TIP3    H253403   0.263   3.442  12.520
  979TIP3   OH253404   1.887   3.638  13.189
  979TIP3    H153405   1.812   3.695  13.174
  979TIP3    H253406   1.953   3.669  13.127
  980TIP3   OH253407   1.763   3.167  13.439
  980TIP3    H153408   1.692   3.124  13.486
  980TIP3    H253409   1.798   3.231  13.501
  981TIP3   OH253410   1.851   3.164  12.772
  981TIP3    H153411   1.914   3.114  12.720
  981TIP3    H253412   1.837   3.244  12.721
  982TIP3   OH253413   1.500   3.413  13.072
  982TIP3    H153414   1.510   3.508  13.074
  982TIP3    H253415   1.515   3.390  12.980
  983TIP3   OH253416   1.827   2.800  11.879
  983TIP3    H153417   1.832   2.704  11.872
  983TIP3    H253418   1.915   2.827  11.904
  984TIP3   OH253419   1.660   2.580  11.737
  984TIP3    H153420   1.698   2.576  11.650
  984TIP3    H253421   1.628   2.492  11.754
  985TIP3   OH253422   1.818   2.932  13.255
  985TIP3    H153423   1.816   2.858  13.316
  985TIP3    H253424   1.839   2.892  13.170
  986TIP3   OH253425   1.554   2.325  11.795
  986TIP3    H153426   1.613   2.261  11.834
  986TIP3    H253427   1.557   2.306  11.701
  987TIP3   OH253428   1.656   2.352  12.256
  987TIP3    H153429   1.662   2.269  12.209
  987TIP3    H253430   1.743   2.391  12.248
  988TIP3   OH253431   1.575   2.527  12.919
  988TIP3    H153432   1.554   2.446  12.964
  988TIP3    H253433   1.653   2.560  12.962
  989TIP3   OH253434   0.109   2.380  13.468
  989TIP3    H153435   0.155   2.459  13.493
  989TIP3    H253436   0.116   2.377  13.372
  990TIP3   OH253437   1.701   2.228  13.472
  990TIP3    H153438   1.678   2.279  13.394
  990TIP3    H253439   1.786   2.189  13.452
  991TIP3   OH253440   0.042   2.064  13.114
  991TIP3    H153441   8.115   2.006  13.086
  991TIP3    H253442   0.052   2.125  13.041
  992TIP3   OH253443   0.184   3.283  13.479
  992TIP3    H153444   0.108   3.279  13.421
  992TIP3    H253445   0.200   3.377  13.491
  993TIP3   OH253446   0.574   3.541  13.030
  993TIP3    H153447   0.567   3.636  13.016
  993TIP3    H253448   0.641   3.513  12.967
  994TIP3   OH253449   0.258   3.717  13.098
  994TIP3    H153450   0.300   3.791  13.055
  994TIP3    H253451   0.166   3.723  13.073
  995TIP3   OH253452   0.559   3.806  12.938
  995TIP3    H153453   0.513   3.818  12.855
  995TIP3    H253454   0.651   3.794  12.912
  996TIP3   OH253455   0.298   3.615  12.739
  996TIP3    H153456   0.300   3.711  12.737
  996TIP3    H253457   0.383   3.589  12.704
  997TIP3   OH253458   0.501   3.448  12.679
  997TIP3    H153459   0.526   3.408  12.596
  997TIP3    H253460   0.583   3.477  12.718
  998TIP3   OH253461   0.741   3.511  12.799
  998TIP3    H153462   0.826   3.479  12.769
  998TIP3    H253463   0.755   3.605  12.814
  999TIP3   OH253464   0.135   3.603  12.018
  999TIP3    H153465   0.114   3.678  11.962
  999TIP3    H253466   0.104   3.629  12.104
 1000TIP3   OH253467   0.449   2.007  13.169
 1000TIP3    H153468   0.382   1.968  13.113
 1000TIP3    H253469   0.515   2.039  13.108
 1001TIP3   OH253470   0.581   1.987  13.563
 1001TIP3    H153471   0.651   2.024  13.508
 1001TIP3    H253472   0.625   1.962  13.644
 1002TIP3   OH253473   0.349   3.622  11.811
 1002TIP3    H153474   0.286   3.693  11.797
 1002TIP3    H253475   0.419   3.639  11.748
 1003TIP3   OH253476   1.541   3.610  13.373
 1003TIP3    H153477   1.493   3.629  13.292
 1003TIP3    H253478   1.581   3.694  13.397
 1004TIP3   OH253479   3.691   2.199  12.847
 1004TIP3    H153480   3.746   2.274  12.869
 1004TIP3    H253481   3.677   2.206  12.753
 1005TIP3   OH253482   3.097   2.292  12.918
 1005TIP3    H153483   3.031   2.223  12.919
 1005TIP3    H253484   3.069   2.352  12.849
 1006TIP3   OH253485   3.317   2.319  12.415
 1006TIP3    H153486   3.353   2.298  12.501
 1006TIP3    H253487   3.382   2.377  12.375
 1007TIP3   OH253488   3.711   2.457  13.226
 1007TIP3    H153489   3.735   2.474  13.135
 1007TIP3    H253490   3.622   2.421  13.221
 1008TIP3   OH253491   2.238   2.134  12.862
 1008TIP3    H153492   2.215   2.193  12.790
 1008TIP3    H253493   2.313   2.175  12.904
 1009TIP3   OH253494   3.345   2.219  12.689
 1009TIP3    H153495   3.254   2.190  12.680
 1009TIP3    H253496   3.340   2.296  12.746
 1010TIP3   OH253497   3.473   2.174  13.031
 1010TIP3    H153498   3.392   2.194  12.982
 1010TIP3    H253499   3.543   2.184  12.966
 1011TIP3   OH253500   2.817   2.690  11.976
 1011TIP3    H153501   2.891   2.738  11.941
 1011TIP3    H253502   2.745   2.753  11.976
 1012TIP3   OH253503   3.763   2.811  13.055
 1012TIP3    H153504   3.670   2.831  13.041
 1012TIP3    H253505   3.799   2.803  12.967
 1013TIP3   OH253506   3.136   2.780  11.918
 1013TIP3    H153507   3.116   2.870  11.944
 1013TIP3    H253508   3.202   2.789  11.849
 1014TIP3   OH253509   2.456   3.462  13.354
 1014TIP3    H153510   2.529   3.508  13.311
 1014TIP3    H253511   2.463   3.372  13.323
 1015TIP3   OH253512   3.691   3.307  11.858
 1015TIP3    H153513   3.641   3.389  11.856
 1015TIP3    H253514   3.650   3.252  11.792
 1016TIP3   OH253515   1.896   3.089  13.025
 1016TIP3    H153516   1.887   3.122  12.935
 1016TIP3    H253517   1.906   2.995  13.014
 1017TIP3   OH253518   3.725   3.386  13.429
 1017TIP3    H153519   3.704   3.299  13.396
 1017TIP3    H253520   3.687   3.446  13.364
 1018TIP3   OH253521   2.273   3.575  12.406
 1018TIP3    H153522   2.347   3.588  12.346
 1018TIP3    H253523   2.200   3.550  12.348
 1019TIP3   OH253524   3.405   2.636  13.502
 1019TIP3    H153525   3.387   2.719  13.460
 1019TIP3    H253526   3.374   2.570  13.440
 1020TIP3   OH253527   2.295   3.186  12.883
 1020TIP3    H153528   2.257   3.137  12.956
 1020TIP3    H253529   2.256   3.147  12.805
 1021TIP3   OH253530   3.261   2.500  13.305
 1021TIP3    H153531   3.169   2.491  13.281
 1021TIP3    H253532   3.283   2.590  13.279
 1022TIP3   OH253533   2.773   2.405  11.846
 1022TIP3    H153534   2.691   2.374  11.809
 1022TIP3    H253535   2.838   2.386  11.778
 1023TIP3   OH253536   2.970   2.688  13.508
 1023TIP3    H153537   2.950   2.619  13.445
 1023TIP3    H253538   3.015   2.755  13.456
 1024TIP3   OH253539   2.527   2.336  11.767
 1024TIP3    H153540   2.483   2.252  11.776
 1024TIP3    H253541   2.462   2.394  11.728
 1025TIP3   OH253542   2.721   2.513  13.110
 1025TIP3    H153543   2.697   2.599  13.076
 1025TIP3    H253544   2.760   2.467  13.035
 1026TIP3   OH253545   3.506   2.905  13.034
 1026TIP3    H153546   3.524   2.993  12.999
 1026TIP3    H253547   3.418   2.912  13.072
 1027TIP3   OH253548   2.882   2.361  12.140
 1027TIP3    H153549   2.863   2.272  12.171
 1027TIP3    H253550   2.977   2.365  12.136
 1028TIP3   OH253551   3.092   2.556  12.075
 1028TIP3    H153552   3.169   2.565  12.132
 1028TIP3    H253553   3.098   2.629  12.014
 1029TIP3   OH253554   3.645   2.632  12.099
 1029TIP3    H153555   3.641   2.604  12.007
 1029TIP3    H253556   3.632   2.727  12.095
 1030TIP3   OH253557   3.724   3.106  13.363
 1030TIP3    H153558   3.653   3.042  13.369
 1030TIP3    H253559   3.750   3.105  13.271
 1031TIP3   OH253560   2.826   3.504  13.083
 1031TIP3    H153561   2.850   3.581  13.032
 1031TIP3    H253562   2.897   3.442  13.069
 1032TIP3   OH253563   3.577   3.706  11.937
 1032TIP3    H153564   3.520   3.730  11.863
 1032TIP3    H253565   3.518   3.702  12.012
 1033TIP3   OH253566   2.266   3.491  12.993
 1033TIP3    H153567   2.192   3.504  12.934
 1033TIP3    H253568   2.309   3.577  12.996
 1034TIP3   OH253569   2.982   2.553  13.270
 1034TIP3    H153570   3.023   2.640  13.267
 1034TIP3    H253571   2.915   2.555  13.202
 1035TIP3   OH253572   3.467   2.318  13.271
 1035TIP3    H153573   3.394   2.380  13.275
 1035TIP3    H253574   3.457   2.276  13.185
 1036TIP3   OH253575   3.340   2.601  12.620
 1036TIP3    H153576   3.249   2.580  12.602
 1036TIP3    H253577   3.359   2.553  12.701
 1037TIP3   OH253578   2.211   1.953  12.635
 1037TIP3    H153579   2.257   1.892  12.577
 1037TIP3    H253580   2.206   2.034  12.586
 1038TIP3   OH253581   1.983   3.583  13.442
 1038TIP3    H153582   2.051   3.649  13.452
 1038TIP3    H253583   1.939   3.605  13.360
 1039TIP3   OH253584   2.432   3.543  13.612
 1039TIP3    H153585   2.525   3.525  13.630
 1039TIP3    H253586   2.419   3.512  13.522
 1040TIP3   OH253587   2.947   3.441  11.840
 1040TIP3    H153588   2.852   3.434  11.830
 1040TIP3    H253589   2.972   3.366  11.893
 1041TIP3   OH253590   2.620   2.334  13.306
 1041TIP3    H153591   2.604   2.260  13.247
 1041TIP3    H253592   2.652   2.404  13.250
 1042TIP3   OH253593   2.569   2.158  13.075
 1042TIP3    H153594   2.626   2.087  13.045
 1042TIP3    H253595   2.589   2.231  13.018
 1043TIP3   OH253596   3.175   2.592  13.660
 1043TIP3    H153597   3.100   2.616  13.606
 1043TIP3    H253598   3.251   2.606  13.603
 1044TIP3   OH253599   2.690   2.347  13.579
 1044TIP3    H153600   2.723   2.437  13.579
 1044TIP3    H253601   2.665   2.330  13.489
 1045TIP3   OH253602   2.968   2.257  13.362
 1045TIP3    H153603   2.966   2.351  13.343
 1045TIP3    H253604   3.004   2.217  13.283
 1046TIP3   OH253605   2.767   3.801  11.924
 1046TIP3    H153606   2.860   3.780  11.913
 1046TIP3    H253607   2.732   3.805  11.835
 1047TIP3   OH253608   3.664   3.568  13.225
 1047TIP3    H153609   3.645   3.634  13.158
 1047TIP3    H253610   3.642   3.485  13.184
 1048TIP3   OH253611   3.750   2.832  12.367
 1048TIP3    H153612   3.679   2.775  12.397
 1048TIP3    H253613   3.706   2.900  12.316
 1049TIP3   OH253614   3.600   3.153  12.947
 1049TIP3    H153615   3.563   3.152  12.860
 1049TIP3    H253616   3.594   3.245  12.975
 1050TIP3   OH253617   3.607   2.595  11.830
 1050TIP3    H153618   3.583   2.683  11.804
 1050TIP3    H253619   3.558   2.538  11.771
 1051TIP3   OH253620   3.538   2.671  12.439
 1051TIP3    H153621   3.523   2.601  12.376
 1051TIP3    H253622   3.469   2.660  12.504
 1052TIP3   OH253623   3.547   2.891  13.377
 1052TIP3    H153624   3.545   2.842  13.295
 1052TIP3    H253625   3.455   2.915  13.392
 1053TIP3   OH253626   3.697   2.618  13.446
 1053TIP3    H153627   3.606   2.649  13.445
 1053TIP3    H253628   3.701   2.554  13.375
 1054TIP3   OH253629   3.506   2.284  11.764
 1054TIP3    H153630   3.592   2.278  11.805
 1054TIP3    H253631   3.449   2.231  11.819
 1055TIP3   OH253632   3.505   2.458  12.252
 1055TIP3    H153633   3.487   2.388  12.190
 1055TIP3    H253634   3.558   2.521  12.203
 1056TIP3   OH253635   3.438   2.463  12.848
 1056TIP3    H153636   3.532   2.461  12.828
 1056TIP3    H253637   3.432   2.514  12.929
 1057TIP3   OH253638   3.473   2.630  13.070
 1057TIP3    H153639   3.414   2.657  13.141
 1057TIP3    H253640   3.498   2.711  13.027
 1058TIP3   OH253641   3.802   1.969  13.593
 1058TIP3    H153642   3.879   1.944  13.542
 1058TIP3    H253643   3.767   2.045  13.547
 1059TIP3   OH253644   3.609   2.131  13.423
 1059TIP3    H153645   3.583   2.214  13.384
 1059TIP3    H253646   3.595   2.066  13.354
 1060TIP3   OH253647   3.736   2.223  11.911
 1060TIP3    H153648   3.801   2.155  11.890
 1060TIP3    H253649   3.781   2.280  11.974
 1061TIP3   OH253650   1.999   3.338  13.561
 1061TIP3    H153651   1.993   3.426  13.522
 1061TIP3    H253652   2.082   3.303  13.529
 1062TIP3   OH253653   2.559   3.476  13.017
 1062TIP3    H153654   2.539   3.565  12.989
 1062TIP3    H253655   2.652   3.477  13.037
 1063TIP3   OH253656   2.817   3.623  13.347
 1063TIP3    H153657   2.820   3.564  13.271
 1063TIP3    H253658   2.847   3.707  13.313
 1064TIP3   OH253659   3.500   1.964  13.219
 1064TIP3    H153660   3.501   2.044  13.166
 1064TIP3    H253661   3.450   1.901  13.167
 1065TIP3   OH253662   2.061   3.764  13.010
 1065TIP3    H153663   2.084   3.701  12.942
 1065TIP3    H253664   2.052   3.847  12.964
 1066TIP3   OH253665   2.425   3.713  12.951
 1066TIP3    H153666   2.422   3.799  12.994
 1066TIP3    H253667   2.450   3.731  12.861
 1067TIP3   OH253668   2.894   3.739  12.953
 1067TIP3    H153669   2.818   3.780  12.913
 1067TIP3    H253670   2.966   3.757  12.893
 1068TIP3   OH253671   2.117   3.611  12.792
 1068TIP3    H153672   2.185   3.565  12.742
 1068TIP3    H253673   2.106   3.694  12.746
 1069TIP3   OH253674   2.336   3.508  12.668
 1069TIP3    H153675   2.310   3.532  12.579
 1069TIP3    H253676   2.431   3.499  12.663
 1070TIP3   OH253677   3.336   1.911  12.657
 1070TIP3    H153678   3.356   2.004  12.664
 1070TIP3    H253679   3.265   1.907  12.593
 1071TIP3   OH253680   2.058   1.917  12.040
 1071TIP3    H153681   2.096   2.002  12.017
 1071TIP3    H253682   1.971   1.938  12.074
 1072TIP3   OH253683   2.085   3.561  12.201
 1072TIP3    H153684   2.114   3.497  12.135
 1072TIP3    H253685   2.087   3.645  12.155
 1073TIP3   OH253686   2.135   2.175  11.983
 1073TIP3    H153687   2.125   2.217  11.898
 1073TIP3    H253688   2.090   2.233  12.044
 1074TIP3   OH253689   3.029   3.711  11.890
 1074TIP3    H153690   3.109   3.718  11.940
 1074TIP3    H253691   3.019   3.617  11.872
 1075TIP3   OH253692   2.156   2.040  13.476
 1075TIP3    H153693   2.246   2.008  13.470
 1075TIP3    H253694   2.141   2.083  13.392
 1076TIP3   OH253695   2.439   1.978  13.511
 1076TIP3    H153696   2.491   2.050  13.474
 1076TIP3    H253697   2.496   1.902  13.504
 1077TIP3   OH253698   2.226   3.523  11.806
 1077TIP3    H153699   2.229   3.428  11.823
 1077TIP3    H253700   2.224   3.530  11.711
 1078TIP3   OH253701   5.041   2.927  12.374
 1078TIP3    H153702   5.026   3.021  12.374
 1078TIP3    H253703   4.965   2.890  12.329
 1079TIP3   OH253704   4.832   2.815  12.795
 1079TIP3    H153705   4.852   2.770  12.878
 1079TIP3    H253706   4.778   2.752  12.747
 1080TIP3   OH253707   4.256   3.258  12.703
 1080TIP3    H153708   4.230   3.171  12.673
 1080TIP3    H253709   4.242   3.256  12.798
 1081TIP3   OH253710   3.955   2.692  12.226
 1081TIP3    H153711   3.875   2.728  12.265
 1081TIP3    H253712   3.927   2.608  12.188
 1082TIP3   OH253713   3.972   2.841  12.542
 1082TIP3    H153714   3.974   2.748  12.565
 1082TIP3    H253715   3.900   2.848  12.478
 1083TIP3   OH253716   4.713   3.058  12.872
 1083TIP3    H153717   4.743   2.980  12.825
 1083TIP3    H253718   4.794   3.105  12.892
 1084TIP3   OH253719   5.586   2.287  12.889
 1084TIP3    H153720   5.614   2.206  12.931
 1084TIP3    H253721   5.644   2.296  12.813
 1085TIP3   OH253722   5.038   2.495  12.826
 1085TIP3    H153723   5.019   2.402  12.835
 1085TIP3    H253724   5.020   2.514  12.734
 1086TIP3   OH253725   5.082   2.288  12.416
 1086TIP3    H153726   5.175   2.287  12.437
 1086TIP3    H253727   5.077   2.331  12.330
 1087TIP3   OH253728   3.980   2.589  12.682
 1087TIP3    H153729   4.031   2.560  12.757
 1087TIP3    H253730   3.952   2.508  12.638
 1088TIP3   OH253731   5.590   2.532  13.064
 1088TIP3    H153732   5.573   2.626  13.077
 1088TIP3    H253733   5.674   2.517  13.107
 1089TIP3   OH253734   4.521   3.043  13.066
 1089TIP3    H153735   4.440   3.022  13.020
 1089TIP3    H253736   4.585   3.059  12.996
 1090TIP3   OH253737   5.338   2.278  12.520
 1090TIP3    H153738   5.304   2.229  12.595
 1090TIP3    H253739   5.409   2.224  12.487
 1091TIP3   OH253740   4.227   3.259  12.984
 1091TIP3    H153741   4.164   3.331  12.993
 1091TIP3    H253742   4.183   3.183  13.023
 1092TIP3   OH253743   3.924   3.165  12.148
 1092TIP3    H153744   3.843   3.116  12.162
 1092TIP3    H253745   3.912   3.246  12.198
 1093TIP3   OH253746   5.287   2.270  12.867
 1093TIP3    H153747   5.192   2.263  12.874
 1093TIP3    H253748   5.314   2.194  12.816
 1094TIP3   OH253749   5.301   3.213  13.165
 1094TIP3    H153750   5.378   3.268  13.151
 1094TIP3    H253751   5.237   3.243  13.100
 1095TIP3   OH253752   4.865   2.821  12.189
 1095TIP3    H153753   4.780   2.864  12.178
 1095TIP3    H253754   4.907   2.828  12.104
 1096TIP3   OH253755   4.861   2.579  11.858
 1096TIP3    H153756   4.913   2.648  11.899
 1096TIP3    H253757   4.776   2.620  11.841
 1097TIP3   OH253758   5.493   2.786  13.087
 1097TIP3    H153759   5.470   2.870  13.046
 1097TIP3    H253760   5.549   2.810  13.161
 1098TIP3   OH253761   5.249   2.900  12.200
 1098TIP3    H153762   5.177   2.914  12.262
 1098TIP3    H253763   5.310   2.843  12.247
 1099TIP3   OH253764   5.104   2.708  13.198
 1099TIP3    H153765   5.121   2.800  13.217
 1099TIP3    H253766   5.032   2.709  13.135
 1100TIP3   OH253767   4.342   2.940  12.426
 1100TIP3    H153768   4.289   2.890  12.364
 1100TIP3    H253769   4.296   2.932  12.509
 1101TIP3   OH253770   4.515   3.290  12.568
 1101TIP3    H153771   4.530   3.235  12.491
 1101TIP3    H253772   4.576   3.256  12.634
 1102TIP3   OH253773   4.428   3.268  13.202
 1102TIP3    H153774   4.363   3.286  13.134
 1102TIP3    H253775   4.475   3.192  13.170
 1103TIP3   OH253776   5.087   2.753  12.006
 1103TIP3    H153777   5.132   2.805  12.073
 1103TIP3    H253778   5.125   2.783  11.924
 1104TIP3   OH253779   4.146   2.879  13.262
 1104TIP3    H153780   4.124   2.959  13.214
 1104TIP3    H253781   4.069   2.824  13.254
 1105TIP3   OH253782   4.215   3.464  13.359
 1105TIP3    H153783   4.180   3.509  13.282
 1105TIP3    H253784   4.138   3.435  13.408
 1106TIP3   OH253785   5.419   2.010  11.954
 1106TIP3    H153786   5.366   1.930  11.952
 1106TIP3    H253787   5.403   2.046  12.041
 1107TIP3   OH253788   4.194   2.823  12.228
 1107TIP3    H153789   4.164   2.894  12.172
 1107TIP3    H253790   4.118   2.767  12.240
 1108TIP3   OH253791   5.575   3.422  11.886
 1108TIP3    H153792   5.532   3.503  11.913
 1108TIP3    H253793   5.631   3.447  11.813
 1109TIP3   OH253794   3.806   3.076  13.103
 1109TIP3    H153795   3.744   3.121  13.046
 1109TIP3    H253796   3.795   2.983  13.082
 1110TIP3   OH253797   5.670   3.378  13.376
 1110TIP3    H153798   5.666   3.289  13.339
 1110TIP3    H253799   5.578   3.405  13.383
 1111TIP3   OH253800   4.729   3.311  13.209
 1111TIP3    H153801   4.712   3.391  13.258
 1111TIP3    H253802   4.697   3.331  13.120
 1112TIP3   OH253803   3.999   3.458  12.438
 1112TIP3    H153804   3.953   3.466  12.521
 1112TIP3    H253805   3.931   3.467  12.371
 1113TIP3   OH253806   5.300   2.595  13.507
 1113TIP3    H153807   5.339   2.679  13.482
 1113TIP3    H253808   5.286   2.550  13.424
 1114TIP3   OH253809   4.060   3.133  13.167
 1114TIP3    H153810   4.051   3.228  13.171
 1114TIP3    H253811   3.974   3.101  13.139
 1115TIP3   OH253812   4.711   2.007  13.166
 1115TIP3    H153813   4.754   1.924  13.185
 1115TIP3    H253814   4.619   1.992  13.189
 1116TIP3   OH253815   5.173   2.456  13.290
 1116TIP3    H153816   5.093   2.414  13.321
 1116TIP3    H253817   5.146   2.543  13.260
 1117TIP3   OH253818   5.225   2.847  11.790
 1117TIP3    H153819   5.318   2.825  11.786
 1117TIP3    H253820   5.223   2.942  11.796
 1118TIP3   OH253821   4.973   2.583  12.283
 1118TIP3    H153822   4.920   2.661  12.265
 1118TIP3    H253823   5.013   2.562  12.199
 1119TIP3   OH253824   4.848   2.657  13.479
 1119TIP3    H153825   4.772   2.602  13.461
 1119TIP3    H253826   4.896   2.658  13.397
 1120TIP3   OH253827   5.027   2.523  12.551
 1120TIP3    H153828   4.988   2.570  12.477
 1120TIP3    H253829   5.032   2.432  12.521
 1121TIP3   OH253830   4.528   2.321  11.766
 1121TIP3    H153831   4.445   2.308  11.719
 1121TIP3    H253832   4.533   2.415  11.780
 1122TIP3   OH253833   4.914   2.652  13.009
 1122TIP3    H153834   4.955   2.598  12.941
 1122TIP3    H253835   4.840   2.600  13.040
 1123TIP3   OH253836   5.016   2.224  12.888
 1123TIP3    H153837   4.969   2.220  12.971
 1123TIP3    H253838   4.960   2.177  12.826
 1124TIP3   OH253839   4.211   2.628  11.966
 1124TIP3    H153840   4.149   2.581  11.909
 1124TIP3    H253841   4.204   2.583  12.050
 1125TIP3   OH253842   4.158   3.062  13.481
 1125TIP3    H153843   4.168   3.000  13.408
 1125TIP3    H253844   4.068   3.049  13.511
 1126TIP3   OH253845   4.682   2.588  12.738
 1126TIP3    H153846   4.620   2.581  12.666
 1126TIP3    H253847   4.639   2.545  12.812
 1127TIP3   OH253848   4.530   2.505  12.957
 1127TIP3    H153849   4.467   2.438  12.983
 1127TIP3    H253850   4.479   2.565  12.902
 1128TIP3   OH253851   4.635   2.953  12.133
 1128TIP3    H153852   4.559   2.907  12.098
 1128TIP3    H253853   4.599   3.015  12.195
 1129TIP3   OH253854   5.380   3.019  12.966
 1129TIP3    H153855   5.454   3.056  12.917
 1129TIP3    H253856   5.364   3.083  13.036
 1130TIP3   OH253857   4.836   2.311  11.881
 1130TIP3    H153858   4.897   2.301  11.954
 1130TIP3    H253859   4.841   2.404  11.858
 1131TIP3   OH253860   4.875   3.087  13.246
 1131TIP3    H153861   4.805   3.032  13.209
 1131TIP3    H253862   4.836   3.174  13.253
 1132TIP3   OH253863   5.172   2.492  12.052
 1132TIP3    H153864   5.266   2.500  12.069
 1132TIP3    H253865   5.144   2.581  12.030
 1133TIP3   OH253866   4.197   2.942  12.665
 1133TIP3    H153867   4.113   2.924  12.622
 1133TIP3    H253868   4.215   2.864  12.717
 1134TIP3   OH253869   3.912   2.728  13.267
 1134TIP3    H153870   3.843   2.675  13.306
 1134TIP3    H253871   3.875   2.757  13.184
 1135TIP3   OH253872   4.536   2.732  13.420
 1135TIP3    H153873   4.452   2.703  13.386
 1135TIP3    H253874   4.589   2.750  13.343
 1136TIP3   OH253875   5.111   2.886  12.778
 1136TIP3    H153876   5.023   2.891  12.739
 1136TIP3    H253877   5.102   2.824  12.850
 1137TIP3   OH253878   4.273   3.372  12.387
 1137TIP3    H153879   4.311   3.389  12.301
 1137TIP3    H253880   4.179   3.367  12.371
 1138TIP3   OH253881   3.862   2.844  11.884
 1138TIP3    H153882   3.805   2.884  11.948
 1138TIP3    H253883   3.803   2.797  11.825
 1139TIP3   OH253884   4.512   3.130  12.343
 1139TIP3    H153885   4.455   3.168  12.277
 1139TIP3    H253886   4.463   3.055  12.377
 1140TIP3   OH253887   4.622   3.506  13.028
 1140TIP3    H153888   4.632   3.529  13.120
 1140TIP3    H253889   4.659   3.580  12.980
 1141TIP3   OH253890   4.423   3.609  12.471
 1141TIP3    H153891   4.370   3.685  12.448
 1141TIP3    H253892   4.511   3.632  12.441
 1142TIP3   OH253893   4.948   3.163  12.969
 1142TIP3    H153894   4.933   3.160  13.063
 1142TIP3    H253895   5.022   3.223  12.958
 1143TIP3   OH253896   5.149   3.129  11.810
 1143TIP3    H153897   5.184   3.208  11.851
 1143TIP3    H253898   5.057   3.149  11.794
 1144TIP3   OH253899   5.615   3.699  11.872
 1144TIP3    H153900   5.688   3.749  11.908
 1144TIP3    H253901   5.539   3.725  11.924
 1145TIP3   OH253902   5.339   3.147  12.090
 1145TIP3    H153903   5.321   3.057  12.119
 1145TIP3    H253904   5.258   3.194  12.107
 1146TIP3   OH253905   4.002   3.417  13.042
 1146TIP3    H153906   3.909   3.397  13.033
 1146TIP3    H253907   4.015   3.494  12.987
 1147TIP3   OH253908   4.124   3.013  12.041
 1147TIP3    H153909   4.051   3.060  12.081
 1147TIP3    H253910   4.174   3.081  11.995
 1148TIP3   OH253911   4.870   2.236  13.136
 1148TIP3    H153912   4.808   2.308  13.123
 1148TIP3    H253913   4.814   2.158  13.143
 1149TIP3   OH253914   4.711   2.504  13.153
 1149TIP3    H153915   4.694   2.597  13.170
 1149TIP3    H253916   4.648   2.481  13.085
 1150TIP3   OH253917   5.360   2.320  13.141
 1150TIP3    H153918   5.303   2.367  13.202
 1150TIP3    H253919   5.339   2.228  13.156
 1151TIP3   OH253920   5.251   2.670  12.620
 1151TIP3    H153921   5.215   2.753  12.651
 1151TIP3    H253922   5.175   2.618  12.596
 1152TIP3   OH253923   4.242   3.216  11.881
 1152TIP3    H153924   4.299   3.288  11.853
 1152TIP3    H253925   4.153   3.249  11.867
 1153TIP3   OH253926   3.994   2.519  11.858
 1153TIP3    H153927   3.923   2.510  11.795
 1153TIP3    H253928   3.968   2.462  11.931
 1154TIP3   OH253929   3.850   3.682  13.395
 1154TIP3    H153930   3.908   3.606  13.396
 1154TIP3    H253931   3.785   3.662  13.327
 1155TIP3   OH253932   4.427   3.562  13.546
 1155TIP3    H153933   4.483   3.631  13.509
 1155TIP3    H253934   4.346   3.607  13.570
 1156TIP3   OH253935   5.273   3.387  11.914
 1156TIP3    H153936   5.304   3.465  11.960
 1156TIP3    H253937   5.206   3.420  11.854
 1157TIP3   OH253938   3.897   3.028  13.560
 1157TIP3    H153939   3.886   2.933  13.563
 1157TIP3    H253940   3.833   3.058  13.497
 1158TIP3   OH253941   4.244   2.959  11.772
 1158TIP3    H153942   4.258   3.047  11.807
 1158TIP3    H253943   4.255   2.968  11.677
 1159TIP3   OH253944   4.529   3.022  13.421
 1159TIP3    H153945   4.519   3.021  13.325
 1159TIP3    H253946   4.522   2.930  13.446
 1160TIP3   OH253947   4.885   3.216  11.760
 1160TIP3    H153948   4.838   3.282  11.709
 1160TIP3    H253949   4.823   3.190  11.828
 1161TIP3   OH253950   5.138   2.988  13.251
 1161TIP3    H153951   5.199   3.059  13.228
 1161TIP3    H253952   5.052   3.029  13.250
 1162TIP3   OH253953   3.913   2.748  13.548
 1162TIP3    H153954   3.957   2.756  13.463
 1162TIP3    H253955   3.830   2.706  13.529
 1163TIP3   OH253956   4.417   2.790  12.055
 1163TIP3    H153957   4.369   2.809  12.135
 1163TIP3    H253958   4.357   2.735  12.003
 1164TIP3   OH253959   4.363   2.675  13.191
 1164TIP3    H153960   4.286   2.731  13.196
 1164TIP3    H253961   4.337   2.603  13.134
 1165TIP3   OH253962   4.561   2.612  11.814
 1165TIP3    H153963   4.507   2.648  11.744
 1165TIP3    H253964   4.534   2.661  11.893
 1166TIP3   OH253965   4.921   2.928  13.551
 1166TIP3    H153966   4.931   2.966  13.463
 1166TIP3    H253967   4.885   2.841  13.535
 1167TIP3   OH253968   4.624   2.765  13.160
 1167TIP3    H153969   4.634   2.833  13.093
 1167TIP3    H253970   4.534   2.735  13.151
 1168TIP3   OH253971   5.088   2.455  13.617
 1168TIP3    H153972   5.039   2.437  13.537
 1168TIP3    H253973   5.160   2.512  13.588
 1169TIP3   OH253974   5.400   2.842  13.426
 1169TIP3    H153975   5.350   2.896  13.365
 1169TIP3    H253976   5.489   2.842  13.392
 1170TIP3   OH253977   4.671   2.444  13.420
 1170TIP3    H153978   4.580   2.456  13.444
 1170TIP3    H253979   4.672   2.448  13.325
 1171TIP3   OH253980   4.936   2.349  13.402
 1171TIP3    H153981   4.847   2.378  13.422
 1171TIP3    H253982   4.926   2.285  13.332
 1172TIP3   OH253983   5.209   2.163  13.621
 1172TIP3    H153984   5.174   2.083  13.582
 1172TIP3    H253985   5.135   2.224  13.622
 1173TIP3   OH253986   3.968   3.255  11.884
 1173TIP3    H153987   3.944   3.219  11.969
 1173TIP3    H253988   3.885   3.282  11.845
 1174TIP3   OH253989   5.578   3.524  12.839
 1174TIP3    H153990   5.503   3.486  12.884
 1174TIP3    H253991   5.540   3.585  12.776
 1175TIP3   OH253992   5.644   3.523  13.102
 1175TIP3    H153993   5.630   3.544  13.010
 1175TIP3    H253994   5.559   3.494  13.134
 1176TIP3   OH253995   5.628   3.111  12.157
 1176TIP3    H153996   5.709   3.071  12.126
 1176TIP3    H253997   5.597   3.053  12.226
 1177TIP3   OH253998   5.579   2.911  12.331
 1177TIP3    H153999   5.519   2.839  12.350
 1177TIP3    H254000   5.666   2.875  12.345
 1178TIP3   OH254001   5.572   3.145  12.807
 1178TIP3    H154002   5.637   3.194  12.756
 1178TIP3    H254003   5.493   3.197  12.802
 1179TIP3   OH254004   5.386   2.712  12.371
 1179TIP3    H154005   5.380   2.625  12.330
 1179TIP3    H254006   5.338   2.702  12.454
 1180TIP3   OH254007   3.877   2.811  12.812
 1180TIP3    H154008   3.871   2.868  12.735
 1180TIP3    H254009   3.920   2.731  12.779
 1181TIP3   OH254010   5.240   2.329  11.691
 1181TIP3    H154011   5.193   2.378  11.758
 1181TIP3    H254012   5.180   2.258  11.666
 1182TIP3   OH254013   5.446   2.528  12.759
 1182TIP3    H154014   5.522   2.526  12.701
 1182TIP3    H254015   5.380   2.576  12.710
 1183TIP3   OH254016   5.309   2.597  13.035
 1183TIP3    H154017   5.225   2.620  13.073
 1183TIP3    H254018   5.365   2.673  13.052
 1184TIP3   OH254019   5.622   1.951  13.598
 1184TIP3    H154020   5.534   1.920  13.577
 1184TIP3    H254021   5.635   2.027  13.541
 1185TIP3   OH254022   5.357   2.091  12.211
 1185TIP3    H154023   5.411   2.099  12.289
 1185TIP3    H254024   5.279   2.043  12.240
 1186TIP3   OH254025   3.832   2.439  12.912
 1186TIP3    H154026   3.810   2.503  12.844
 1186TIP3    H254027   3.927   2.447  12.923
 1187TIP3   OH254028   5.619   2.152  13.414
 1187TIP3    H154029   5.610   2.247  13.415
 1187TIP3    H254030   5.598   2.126  13.325
 1188TIP3   OH254031   5.505   2.206  11.771
 1188TIP3    H154032   5.469   2.135  11.823
 1188TIP3    H254033   5.589   2.226  11.812
 1189TIP3   OH254034   3.990   3.365  13.476
 1189TIP3    H154035   3.996   3.272  13.454
 1189TIP3    H254036   3.897   3.386  13.468
 1190TIP3   OH254037   4.369   3.525  13.137
 1190TIP3    H154038   4.318   3.594  13.095
 1190TIP3    H254039   4.448   3.517  13.082
 1191TIP3   OH254040   5.454   1.945  13.208
 1191TIP3    H154041   5.372   1.945  13.157
 1191TIP3    H254042   5.493   1.860  13.188
 1192TIP3   OH254043   4.005   3.784  13.064
 1192TIP3    H154044   3.971   3.871  13.081
 1192TIP3    H254045   3.930   3.734  13.032
 1193TIP3   OH254046   4.259   3.703  12.953
 1193TIP3    H154047   4.173   3.728  12.987
 1193TIP3    H254048   4.284   3.775  12.895
 1194TIP3   OH254049   3.981   3.601  12.832
 1194TIP3    H154050   3.894   3.562  12.842
 1194TIP3    H254051   3.964   3.692  12.807
 1195TIP3   OH254052   4.184   3.574  12.655
 1195TIP3    H154053   4.122   3.563  12.727
 1195TIP3    H254054   4.158   3.656  12.613
 1196TIP3   OH254055   4.473   3.524  12.746
 1196TIP3    H154056   4.569   3.527  12.747
 1196TIP3    H254057   4.446   3.591  12.809
 1197TIP3   OH254058   4.840   2.100  12.714
 1197TIP3    H154059   4.745   2.107  12.701
 1197TIP3    H254060   4.876   2.094  12.626
 1198TIP3   OH254061   5.330   2.059  12.698
 1198TIP3    H154062   5.403   2.039  12.640
 1198TIP3    H254063   5.256   2.010  12.662
 1199TIP3   OH254064   5.503   2.056  12.459
 1199TIP3    H154065   5.471   1.966  12.449
 1199TIP3    H254066   5.597   2.051  12.441
 1200TIP3   OH254067   5.140   1.926  12.547
 1200TIP3    H154068   5.101   1.949  12.463
 1200TIP3    H254069   5.078   1.866  12.587
 1201TIP3   OH254070   5.123   1.940  12.251
 1201TIP3    H154071   5.093   1.979  12.169
 1201TIP3    H254072   5.105   1.846  12.241
 1202TIP3   OH254073   3.789   3.733  12.099
 1202TIP3    H154074   3.777   3.661  12.161
 1202TIP3    H254075   3.718   3.722  12.035
 1203TIP3   OH254076   4.074   3.801  12.011
 1203TIP3    H154077   4.097   3.732  11.948
 1203TIP3    H254078   4.148   3.862  12.009
 1204TIP3   OH254079   5.115   1.918  13.525
 1204TIP3    H154080   5.095   1.869  13.605
 1204TIP3    H254081   5.053   1.884  13.460
 1205TIP3   OH254082   6.740   2.873  12.484
 1205TIP3    H154083   6.763   2.952  12.435
 1205TIP3    H254084   6.675   2.829  12.430
 1206TIP3   OH254085   6.724   2.826  12.751
 1206TIP3    H154086   6.666   2.750  12.746
 1206TIP3    H254087   6.743   2.847  12.659
 1207TIP3   OH254088   5.990   3.287  12.855
 1207TIP3    H154089   5.993   3.191  12.859
 1207TIP3    H254090   6.070   3.311  12.809
 1208TIP3   OH254091   6.878   2.482  12.802
 1208TIP3    H154092   6.871   2.391  12.774
 1208TIP3    H254093   6.883   2.532  12.721
 1209TIP3   OH254094   6.997   2.349  12.431
 1209TIP3    H154095   7.050   2.313  12.502
 1209TIP3    H254096   7.056   2.354  12.356
 1210TIP3   OH254097   6.773   3.095  12.311
 1210TIP3    H154098   6.844   3.071  12.251
 1210TIP3    H254099   6.733   3.173  12.272
 1211TIP3   OH254100   6.333   3.037  12.997
 1211TIP3    H154101   6.294   3.089  13.068
 1211TIP3    H254102   6.261   2.983  12.965
 1212TIP3   OH254103   6.174   3.196  13.152
 1212TIP3    H154104   6.160   3.263  13.085
 1212TIP3    H254105   6.089   3.154  13.162
 1213TIP3   OH254106   7.032   3.389  12.844
 1213TIP3    H154107   6.972   3.402  12.770
 1213TIP3    H254108   7.116   3.423  12.812
 1214TIP3   OH254109   7.149   2.133  12.954
 1214TIP3    H154110   7.157   2.113  12.861
 1214TIP3    H254111   7.232   2.175  12.977
 1215TIP3   OH254112   6.410   1.935  12.773
 1215TIP3    H154113   6.377   1.848  12.747
 1215TIP3    H254114   6.331   1.986  12.790
 1216TIP3   OH254115   6.680   2.678  11.792
 1216TIP3    H154116   6.770   2.665  11.821
 1216TIP3    H254117   6.685   2.677  11.696
 1217TIP3   OH254118   6.113   3.502  13.285
 1217TIP3    H154119   6.196   3.458  13.264
 1217TIP3    H254120   6.073   3.446  13.352
 1218TIP3   OH254121   7.309   2.028  11.961
 1218TIP3    H154122   7.247   2.091  11.924
 1218TIP3    H254123   7.382   2.081  11.992
 1219TIP3   OH254124   7.436   3.413  11.960
 1219TIP3    H154125   7.468   3.494  11.920
 1219TIP3    H254126   7.494   3.345  11.927
 1220TIP3   OH254127   5.752   3.360  12.708
 1220TIP3    H154128   5.823   3.335  12.767
 1220TIP3    H254129   5.691   3.408  12.763
 1221TIP3   OH254130   7.496   3.423  13.421
 1221TIP3    H154131   7.487   3.393  13.331
 1221TIP3    H254132   7.422   3.482  13.435
 1222TIP3   OH254133   6.674   2.023  13.123
 1222TIP3    H154134   6.700   1.983  13.040
 1222TIP3    H254135   6.588   2.062  13.105
 1223TIP3   OH254136   7.060   2.554  13.178
 1223TIP3    H154137   7.141   2.507  13.199
 1223TIP3    H254138   7.059   2.629  13.237
 1224TIP3   OH254139   6.747   2.121  11.949
 1224TIP3    H154140   6.674   2.176  11.978
 1224TIP3    H254141   6.797   2.178  11.890
 1225TIP3   OH254142   6.696   2.627  13.399
 1225TIP3    H154143   6.610   2.670  13.395
 1225TIP3    H254144   6.756   2.695  13.429
 1226TIP3   OH254145   6.911   2.603  12.559
 1226TIP3    H154146   6.879   2.680  12.512
 1226TIP3    H254147   6.912   2.533  12.493
 1227TIP3   OH254148   6.790   2.705  12.985
 1227TIP3    H154149   6.786   2.758  12.906
 1227TIP3    H254150   6.704   2.717  13.027
 1228TIP3   OH254151   6.853   2.209  12.779
 1228TIP3    H154152   6.766   2.177  12.755
 1228TIP3    H254153   6.913   2.152  12.732
 1229TIP3   OH254154   7.291   3.856  13.411
 1229TIP3    H154155   7.332   3.820  13.333
 1229TIP3    H254156   7.314   3.949  13.410
 1230TIP3   OH254157   6.574   2.585  12.752
 1230TIP3    H154158   6.595   2.520  12.686
 1230TIP3    H254159   6.483   2.610  12.733
 1231TIP3   OH254160   6.441   2.438  12.986
 1231TIP3    H154161   6.385   2.361  12.979
 1231TIP3    H254162   6.486   2.442  12.901
 1232TIP3   OH254163   6.593   3.133  13.118
 1232TIP3    H154164   6.655   3.109  13.186
 1232TIP3    H254165   6.587   3.229  13.124
 1233TIP3   OH254166   6.453   2.765  13.339
 1233TIP3    H154167   6.361   2.741  13.343
 1233TIP3    H254168   6.478   2.752  13.248
 1234TIP3   OH254169   7.221   3.402  12.136
 1234TIP3    H154170   7.153   3.405  12.068
 1234TIP3    H254171   7.303   3.411  12.087
 1235TIP3   OH254172   6.723   3.089  12.850
 1235TIP3    H154173   6.799   3.146  12.854
 1235TIP3    H254174   6.756   3.008  12.810
 1236TIP3   OH254175   7.057   3.327  11.900
 1236TIP3    H154176   7.136   3.285  11.866
 1236TIP3    H254177   7.012   3.257  11.947
 1237TIP3   OH254178   7.182   3.543  13.171
 1237TIP3    H154179   7.115   3.489  13.130
 1237TIP3    H254180   7.187   3.621  13.116
 1238TIP3   OH254181   5.914   3.475  13.057
 1238TIP3    H154182   5.819   3.468  13.066
 1238TIP3    H254183   5.936   3.410  12.990
 1239TIP3   OH254184   6.374   3.234  11.680
 1239TIP3    H154185   6.469   3.232  11.690
 1239TIP3    H254186   6.340   3.234  11.769
 1240TIP3   OH254187   6.354   3.250  11.950
 1240TIP3    H154188   6.436   3.237  11.998
 1240TIP3    H254189   6.322   3.335  11.981
 1241TIP3   OH254190   6.949   2.305  13.014
 1241TIP3    H154191   7.030   2.254  13.024
 1241TIP3    H254192   6.900   2.260  12.946
 1242TIP3   OH254193   6.843   2.291  12.206
 1242TIP3    H154194   6.856   2.362  12.143
 1242TIP3    H254195   6.889   2.321  12.285
 1243TIP3   OH254196   6.764   2.485  13.172
 1243TIP3    H154197   6.738   2.549  13.238
 1243TIP3    H254198   6.729   2.402  13.202
 1244TIP3   OH254199   6.686   2.155  12.392
 1244TIP3    H154200   6.644   2.229  12.436
 1244TIP3    H254201   6.752   2.195  12.335
 1245TIP3   OH254202   6.255   3.490  12.038
 1245TIP3    H154203   6.211   3.564  11.998
 1245TIP3    H254204   6.244   3.503  12.132
 1246TIP3   OH254205   5.949   3.229  11.913
 1246TIP3    H154206   6.009   3.300  11.935
 1246TIP3    H254207   6.005   3.155  11.890
 1247TIP3   OH254208   7.248   3.523  12.715
 1247TIP3    H154209   7.228   3.617  12.710
 1247TIP3    H254210   7.215   3.487  12.634
 1248TIP3   OH254211   5.894   3.446  12.331
 1248TIP3    H154212   5.857   3.486  12.252
 1248TIP3    H254213   5.988   3.450  12.318
 1249TIP3   OH254214   5.843   3.618  13.314
 1249TIP3    H154215   5.837   3.631  13.409
 1249TIP3    H254216   5.765   3.567  13.292
 1250TIP3   OH254217   6.623   3.497  11.761
 1250TIP3    H154218   6.577   3.502  11.678
 1250TIP3    H254219   6.633   3.403  11.778
 1251TIP3   OH254220   6.940   3.556  11.796
 1251TIP3    H154221   6.977   3.480  11.840
 1251TIP3    H254222   7.002   3.576  11.726
 1252TIP3   OH254223   6.155   3.052  11.854
 1252TIP3    H154224   6.137   2.965  11.891
 1252TIP3    H254225   6.234   3.082  11.898
 1253TIP3   OH254226   6.426   3.032  13.490
 1253TIP3    H154227   6.418   3.094  13.418
 1253TIP3    H254228   6.447   2.949  13.448
 1254TIP3   OH254229   6.645   3.224  11.714
 1254TIP3    H154230   6.701   3.156  11.750
 1254TIP3    H254231   6.667   3.228  11.621
 1255TIP3   OH254232   6.428   2.555  11.797
 1255TIP3    H154233   6.375   2.634  11.811
 1255TIP3    H254234   6.519   2.587  11.795
 1256TIP3   OH254235   6.872   2.822  13.492
 1256TIP3    H154236   6.945   2.795  13.436
 1256TIP3    H254237   6.880   2.917  13.497
 1257TIP3   OH254238   6.503   2.698  13.068
 1257TIP3    H154239   6.495   2.606  13.044
 1257TIP3    H254240   6.420   2.737  13.043
 1258TIP3   OH254241   6.981   2.564  13.592
 1258TIP3    H154242   6.950   2.635  13.535
 1258TIP3    H254243   7.072   2.551  13.566
 1259TIP3   OH254244   6.401   2.043  13.094
 1259TIP3    H154245   6.368   2.122  13.051
 1259TIP3    H254246   6.356   1.971  13.049
 1260TIP3   OH254247   6.522   2.298  13.600
 1260TIP3    H154248   6.436   2.328  13.570
 1260TIP3    H254249   6.579   2.311  13.524
 1261TIP3   OH254250   6.722   2.336  13.414
 1261TIP3    H154251   6.732   2.431  13.425
 1261TIP3    H254252   6.798   2.299  13.458
 1262TIP3   OH254253   6.928   2.204  13.547
 1262TIP3    H154254   7.016   2.195  13.509
 1262TIP3    H254255   6.944   2.245  13.632
 1263TIP3   OH254256   6.503   1.979  13.337
 1263TIP3    H154257   6.433   1.984  13.402
 1263TIP3    H254258   6.462   2.004  13.255
 1264TIP3   OH254259   5.681   3.162  11.893
 1264TIP3    H154260   5.772   3.191  11.897
 1264TIP3    H254261   5.682   3.087  11.833
 1265TIP3   OH254262   5.734   3.666  12.573
 1265TIP3    H154263   5.647   3.705  12.581
 1265TIP3    H254264   5.785   3.732  12.525
 1266TIP3   OH254265   7.488   3.673  12.788
 1266TIP3    H154266   7.430   3.598  12.778
 1266TIP3    H254267   7.442   3.746  12.746
 1267TIP3   OH254268   7.623   3.694  13.040
 1267TIP3    H154269   7.592   3.612  13.079
 1267TIP3    H254270   7.573   3.762  13.085
 1268TIP3   OH254271   7.281   3.105  13.545
 1268TIP3    H154272   7.253   3.040  13.610
 1268TIP3    H254273   7.237   3.079  13.464
 1269TIP3   OH254274   7.422   3.391  13.161
 1269TIP3    H154275   7.342   3.444  13.157
 1269TIP3    H254276   7.401   3.311  13.114
 1270TIP3   OH254277   7.189   2.274  11.881
 1270TIP3    H154278   7.275   2.309  11.858
 1270TIP3    H254279   7.127   2.328  11.831
 1271TIP3   OH254280   7.474   2.131  13.440
 1271TIP3    H154281   7.426   2.116  13.358
 1271TIP3    H254282   7.556   2.172  13.412
 1272TIP3   OH254283   7.538   2.182  12.000
 1272TIP3    H154284   7.529   2.267  11.958
 1272TIP3    H254285   7.589   2.199  12.080
 1273TIP3   OH254286   5.629   2.061  13.029
 1273TIP3    H154287   5.569   2.028  13.095
 1273TIP3    H254288   5.648   1.985  12.974
 1274TIP3   OH254289   5.936   3.361  13.494
 1274TIP3    H154290   5.862   3.351  13.435
 1274TIP3    H254291   5.922   3.296  13.562
 1275TIP3   OH254292   7.377   2.063  13.195
 1275TIP3    H154293   7.367   2.138  13.137
 1275TIP3    H254294   7.454   2.016  13.161
 1276TIP3   OH254295   5.867   3.776  13.038
 1276TIP3    H154296   5.865   3.759  12.944
 1276TIP3    H254297   5.794   3.837  13.054
 1277TIP3   OH254298   6.178   3.663  13.024
 1277TIP3    H154299   6.205   3.729  12.959
 1277TIP3    H254300   6.240   3.591  13.012
 1278TIP3   OH254301   7.184   3.761  12.994
 1278TIP3    H154302   7.123   3.834  13.000
 1278TIP3    H254303   7.200   3.751  12.900
 1279TIP3   OH254304   5.913   3.673  12.787
 1279TIP3    H154305   5.839   3.667  12.727
 1279TIP3    H254306   5.983   3.625  12.743
 1280TIP3   OH254307   6.631   2.088  12.687
 1280TIP3    H154308   6.541   2.063  12.709
 1280TIP3    H254309   6.632   2.091  12.591
 1281TIP3   OH254310   5.939   2.124  12.045
 1281TIP3    H154311   5.926   2.120  12.140
 1281TIP3    H254312   5.856   2.094  12.008
 1282TIP3   OH254313   6.426   1.927  12.370
 1282TIP3    H154314   6.408   2.005  12.422
 1282TIP3    H254315   6.375   1.858  12.412
 1283TIP3   OH254316   6.969   2.006  12.637
 1283TIP3    H154317   7.039   1.978  12.578
 1283TIP3    H254318   6.914   1.928  12.648
 1284TIP3   OH254319   6.979   2.063  12.109
 1284TIP3    H154320   6.958   2.152  12.134
 1284TIP3    H254321   7.075   2.057  12.117
 1285TIP3   OH254322   5.739   3.568  12.135
 1285TIP3    H154323   5.647   3.584  12.113
 1285TIP3    H254324   5.787   3.640  12.092
 1286TIP3   OH254325   6.096   2.316  11.836
 1286TIP3    H154326   6.099   2.344  11.744
 1286TIP3    H254327   6.086   2.397  11.885
 1287TIP3   OH254328   6.031   1.895  13.288
 1287TIP3    H154329   5.993   1.940  13.212
 1287TIP3    H254330   6.094   1.958  13.323
 1288TIP3   OH254331   6.105   3.689  11.915
 1288TIP3    H154332   6.039   3.654  11.857
 1288TIP3    H254333   6.144   3.762  11.867
 1289TIP3   OH254334   6.929   1.934  13.410
 1289TIP3    H154335   6.938   1.912  13.502
 1289TIP3    H254336   7.019   1.944  13.378
 1290TIP3   OH254337   7.275   3.582  13.438
 1290TIP3    H154338   7.234   3.562  13.354
 1290TIP3    H254339   7.278   3.678  13.441
 1291TIP3   OH254340   8.017   2.326  12.707
 1291TIP3    H154341   8.056   2.356  12.624
 1291TIP3    H254342   7.935   2.375  12.713
 1292TIP3   OH254343   8.129   3.192  13.051
 1292TIP3    H154344   8.107   3.277  13.088
 1292TIP3    H254345   8.111   3.201  12.957
 1293TIP3   OH254346   8.043   2.837  13.096
 1293TIP3    H154347   7.947   2.835  13.102
 1293TIP3    H254348   8.065   2.755  13.052
 1294TIP3   OH254349   8.075   3.300  13.369
 1294TIP3    H154350   8.070   3.355  13.291
 1294TIP3    H254351   8.044   3.355  13.440
 1295TIP3   OH254352   7.766   3.151  13.260
 1295TIP3    H154353   7.789   3.152  13.167
 1295TIP3    H254354   7.693   3.089  13.266
 1296TIP3   OH254355   0.026   2.144  12.845
 1296TIP3    H154356   8.112   2.068  12.842
 1296TIP3    H254357   8.119   2.214  12.803
 1297TIP3   OH254358   8.134   2.625  12.955
 1297TIP3    H154359   8.121   2.587  12.868
 1297TIP3    H254360   0.067   2.680  12.945
 1298TIP3   OH254361   0.118   2.422  11.798
 1298TIP3    H154362   0.068   2.409  11.718
 1298TIP3    H254363   0.053   2.416  11.868
 1299TIP3   OH254364   8.127   3.038  13.286
 1299TIP3    H154365   8.107   3.128  13.313
 1299TIP3    H254366   8.087   2.983  13.354
 1300TIP3   OH254367   7.992   2.107  12.364
 1300TIP3    H154368   7.918   2.089  12.422
 1300TIP3    H254369   7.960   2.178  12.307
 1301TIP3   OH254370   7.747   3.464  12.900
 1301TIP3    H154371   7.752   3.389  12.841
 1301TIP3    H254372   7.838   3.481  12.924
 1302TIP3   OH254373   8.107   2.388  12.021
 1302TIP3    H154374   8.029   2.374  12.073
 1302TIP3    H254375   0.018   2.445  12.075
 1303TIP3   OH254376   8.077   3.218  11.851
 1303TIP3    H154377   7.982   3.205  11.861
 1303TIP3    H254378   8.099   3.169  11.771
 1304TIP3   OH254379   7.697   1.958  12.751
 1304TIP3    H154380   7.713   1.996  12.665
 1304TIP3    H254381   7.631   2.015  12.791
 1305TIP3   OH254382   7.517   2.973  13.493
 1305TIP3    H154383   7.488   2.890  13.454
 1305TIP3    H254384   7.436   3.023  13.505
 1306TIP3   OH254385   0.016   3.063  11.638
 1306TIP3    H154386   8.144   2.970  11.649
 1306TIP3    H254387   0.063   3.070  11.555
 1307TIP3   OH254388   8.028   2.428  13.640
 1307TIP3    H154389   7.950   2.460  13.594
 1307TIP3    H254390   8.091   2.410  13.571
 1308TIP3   OH254391   7.585   3.152  11.946
 1308TIP3    H154392   7.566   3.159  12.040
 1308TIP3    H254393   7.572   3.059  11.927
 1309TIP3   OH254394   7.433   3.751  12.340
 1309TIP3    H154395   7.347   3.771  12.304
 1309TIP3    H254396   7.488   3.732  12.264
 1310TIP3   OH254397   7.711   3.568  12.637
 1310TIP3    H154398   7.651   3.505  12.597
 1310TIP3    H254399   7.777   3.585  12.571
 1311TIP3   OH254400   7.774   3.370  13.424
 1311TIP3    H154401   7.770   3.434  13.354
 1311TIP3    H254402   7.796   3.288  13.380
 1312TIP3   OH254403   8.066   3.456  13.149
 1312TIP3    H154404   7.994   3.509  13.116
 1312TIP3    H254405   0.000   3.498  13.115
 1313TIP3   OH254406   7.747   2.014  12.456
 1313TIP3    H154407   7.718   2.066  12.380
 1313TIP3    H254408   7.774   1.930  12.419
 1314TIP3   OH254409   7.701   1.979  11.898
 1314TIP3    H154410   7.785   2.023  11.912
 1314TIP3    H254411   7.636   2.041  11.931
 1315TIP3   OH254412   7.901   2.161  11.957
 1315TIP3    H154413   7.971   2.221  11.932
 1315TIP3    H254414   7.868   2.196  12.039
 1316TIP3   OH254415   0.217   2.048  13.328
 1316TIP3    H154416   0.176   2.063  13.243
 1316TIP3    H254417   0.148   2.008  13.382
 1317TIP3   OH254418   7.923   3.607  11.596
 1317TIP3    H154419   7.923   3.627  11.690
 1317TIP3    H254420   8.015   3.591  11.575
 1318TIP3   OH254421   1.011   4.665  12.789
 1318TIP3    H154422   1.000   4.584  12.739
 1318TIP3    H254423   1.056   4.724  12.729
 1319TIP3   OH254424   8.141   4.690  12.244
 1319TIP3    H154425   0.035   4.775  12.266
 1319TIP3    H254426   8.050   4.696  12.271
 1320TIP3   OH254427   0.974   5.119  12.705
 1320TIP3    H154428   0.882   5.109  12.681
 1320TIP3    H254429   1.021   5.109  12.622
 1321TIP3   OH254430   1.194   4.391  12.871
 1321TIP3    H154431   1.186   4.303  12.834
 1321TIP3    H254432   1.234   4.443  12.801
 1322TIP3   OH254433   0.616   4.197  12.621
 1322TIP3    H154434   0.605   4.233  12.532
 1322TIP3    H254435   0.687   4.134  12.612
 1323TIP3   OH254436   0.285   4.495  12.632
 1323TIP3    H154437   0.300   4.422  12.571
 1323TIP3    H254438   0.250   4.565  12.577
 1324TIP3   OH254439   0.715   4.507  12.696
 1324TIP3    H154440   0.808   4.504  12.675
 1324TIP3    H254441   0.671   4.492  12.613
 1325TIP3   OH254442   0.486   4.087  12.833
 1325TIP3    H154443   0.443   4.004  12.815
 1325TIP3    H254444   0.526   4.112  12.750
 1326TIP3   OH254445   0.467   4.356  12.790
 1326TIP3    H154446   0.416   4.428  12.752
 1326TIP3    H254447   0.513   4.317  12.716
 1327TIP3   OH254448   1.672   5.057  13.309
 1327TIP3    H154449   1.720   5.066  13.226
 1327TIP3    H254450   1.694   5.137  13.357
 1328TIP3   OH254451   1.183   4.730  12.088
 1328TIP3    H154452   1.163   4.639  12.111
 1328TIP3    H254453   1.248   4.757  12.153
 1329TIP3   OH254454   1.121   4.638  11.795
 1329TIP3    H154455   1.137   4.544  11.807
 1329TIP3    H254456   1.096   4.646  11.703
 1330TIP3   OH254457   1.774   4.656  13.037
 1330TIP3    H154458   1.717   4.732  13.025
 1330TIP3    H254459   1.834   4.660  12.963
 1331TIP3   OH254460   1.363   4.554  13.154
 1331TIP3    H154461   1.451   4.517  13.150
 1331TIP3    H254462   1.366   4.629  13.094
 1332TIP3   OH254463   0.552   4.704  12.331
 1332TIP3    H154464   0.537   4.775  12.268
 1332TIP3    H254465   0.612   4.741  12.396
 1333TIP3   OH254466   1.189   5.403  12.902
 1333TIP3    H154467   1.187   5.480  12.959
 1333TIP3    H254468   1.254   5.424  12.835
 1334TIP3   OH254469   0.929   5.308  12.973
 1334TIP3    H154470   0.939   5.401  12.991
 1334TIP3    H254471   0.841   5.286  13.005
 1335TIP3   OH254472   1.518   4.323  13.362
 1335TIP3    H154473   1.560   4.360  13.285
 1335TIP3    H254474   1.563   4.239  13.376
 1336TIP3   OH254475   1.244   4.341  13.277
 1336TIP3    H154476   1.326   4.300  13.306
 1336TIP3    H254477   1.272   4.416  13.225
 1337TIP3   OH254478   1.352   4.802  11.780
 1337TIP3    H154479   1.360   4.726  11.721
 1337TIP3    H254480   1.441   4.838  11.784
 1338TIP3   OH254481   0.899   4.173  11.906
 1338TIP3    H154482   0.957   4.160  11.981
 1338TIP3    H254483   0.956   4.168  11.829
 1339TIP3   OH254484   0.548   4.646  12.967
 1339TIP3    H154485   0.487   4.720  12.971
 1339TIP3    H254486   0.583   4.649  12.878
 1340TIP3   OH254487   0.625   4.452  12.438
 1340TIP3    H154488   0.586   4.531  12.401
 1340TIP3    H254489   0.656   4.403  12.362
 1341TIP3   OH254490   1.094   4.476  13.498
 1341TIP3    H154491   1.067   4.451  13.410
 1341TIP3    H254492   1.182   4.440  13.508
 1342TIP3   OH254493   1.239   4.432  12.574
 1342TIP3    H154494   1.299   4.463  12.506
 1342TIP3    H254495   1.260   4.340  12.585
 1343TIP3   OH254496   0.409   4.428  13.051
 1343TIP3    H154497   0.448   4.510  13.022
 1343TIP3    H254498   0.318   4.449  13.068
 1344TIP3   OH254499   0.793   4.094  11.606
 1344TIP3    H154500   0.702   4.072  11.625
 1344TIP3    H254501   0.826   4.133  11.688
 1345TIP3   OH254502   7.997   4.165  12.504
 1345TIP3    H154503   7.960   4.251  12.484
 1345TIP3    H254504   7.975   4.111  12.428
 1346TIP3   OH254505   0.334   4.322  11.939
 1346TIP3    H154506   0.259   4.269  11.912
 1346TIP3    H254507   0.398   4.258  11.972
 1347TIP3   OH254508   1.023   4.539  13.031
 1347TIP3    H154509   1.007   4.589  12.951
 1347TIP3    H254510   1.096   4.481  13.009
 1348TIP3   OH254511   0.468   4.541  12.116
 1348TIP3    H154512   0.478   4.604  12.187
 1348TIP3    H254513   0.548   4.488  12.119
 1349TIP3   OH254514   0.702   4.402  12.109
 1349TIP3    H154515   0.740   4.314  12.111
 1349TIP3    H254516   0.741   4.443  12.031
 1350TIP3   OH254517   0.506   4.545  11.812
 1350TIP3    H154518   0.511   4.588  11.727
 1350TIP3    H254519   0.596   4.526  11.835
 1351TIP3   OH254520   0.975   4.426  12.644
 1351TIP3    H154521   1.064   4.438  12.613
 1351TIP3    H254522   0.952   4.336  12.621
 1352TIP3   OH254523   0.557   4.141  12.300
 1352TIP3    H154524   0.556   4.120  12.207
 1352TIP3    H254525   0.646   4.118  12.329
 1353TIP3   OH254526   0.733   4.318  12.893
 1353TIP3    H154527   0.730   4.388  12.828
 1353TIP3    H254528   0.821   4.280  12.884
 1354TIP3   OH254529   0.944   4.844  11.948
 1354TIP3    H154530   0.900   4.915  11.901
 1354TIP3    H254531   0.889   4.827  12.024
 1355TIP3   OH254532   1.572   4.869  13.013
 1355TIP3    H154533   1.631   4.945  13.015
 1355TIP3    H254534   1.572   4.841  12.922
 1356TIP3   OH254535   1.064   5.047  13.028
 1356TIP3    H154536   1.120   5.036  13.104
 1356TIP3    H254537   1.003   4.973  13.033
 1357TIP3   OH254538   1.116   5.069  11.966
 1357TIP3    H154539   1.158   5.131  12.026
 1357TIP3    H254540   1.046   5.119  11.924
 1358TIP3   OH254541   0.109   4.655  13.224
 1358TIP3    H154542   0.139   4.722  13.163
 1358TIP3    H254543   0.052   4.599  13.173
 1359TIP3   OH254544   0.809   4.611  13.440
 1359TIP3    H154545   0.745   4.619  13.369
 1359TIP3    H254546   0.886   4.574  13.398
 1360TIP3   OH254547   1.796   4.444  12.118
 1360TIP3    H154548   1.827   4.367  12.069
 1360TIP3    H254549   1.813   4.518  12.060
 1361TIP3   OH254550   0.333   4.764  11.939
 1361TIP3    H154551   0.421   4.803  11.931
 1361TIP3    H254552   0.273   4.838  11.929
 1362TIP3   OH254553   1.278   5.077  12.843
 1362TIP3    H154554   1.300   4.999  12.893
 1362TIP3    H254555   1.352   5.088  12.782
 1363TIP3   OH254556   0.374   4.147  13.103
 1363TIP3    H154557   0.323   4.184  13.175
 1363TIP3    H254558   0.314   4.085  13.061
 1364TIP3   OH254559   0.846   5.078  11.853
 1364TIP3    H154560   0.867   5.170  11.841
 1364TIP3    H254561   0.784   5.077  11.926
 1365TIP3   OH254562   0.972   4.384  13.255
 1365TIP3    H154563   0.972   4.440  13.177
 1365TIP3    H254564   1.057   4.341  13.253
 1366TIP3   OH254565   0.649   4.085  12.001
 1366TIP3    H154566   0.725   4.125  11.959
 1366TIP3    H254567   0.674   3.993  12.014
 1367TIP3   OH254568   0.173   4.548  11.783
 1367TIP3    H154569   0.155   4.620  11.722
 1367TIP3    H254570   0.094   4.494  11.779
 1368TIP3   OH254571   0.411   3.858  12.697
 1368TIP3    H154572   0.452   3.832  12.615
 1368TIP3    H254573   0.344   3.921  12.672
 1369TIP3   OH254574   0.985   5.315  11.869
 1369TIP3    H154575   0.956   5.390  11.818
 1369TIP3    H254576   1.026   5.353  11.947
 1370TIP3   OH254577   0.582   4.856  11.876
 1370TIP3    H154578   0.612   4.896  11.958
 1370TIP3    H254579   0.584   4.927  11.812
 1371TIP3   OH254580   0.788   4.885  13.516
 1371TIP3    H154581   0.861   4.924  13.566
 1371TIP3    H254582   0.822   4.800  13.488
 1372TIP3   OH254583   1.092   4.942  11.705
 1372TIP3    H154584   1.015   5.000  11.703
 1372TIP3    H254585   1.127   4.946  11.617
 1373TIP3   OH254586   1.419   4.948  13.231
 1373TIP3    H154587   1.484   5.011  13.263
 1373TIP3    H254588   1.460   4.907  13.155
 1374TIP3   OH254589   0.256   4.642  13.451
 1374TIP3    H154590   0.195   4.643  13.378
 1374TIP3    H254591   0.322   4.707  13.428
 1375TIP3   OH254592   0.612   4.628  13.236
 1375TIP3    H154593   0.571   4.707  13.271
 1375TIP3    H254594   0.601   4.635  13.141
 1376TIP3   OH254595   0.787   4.509  11.865
 1376TIP3    H154596   0.825   4.595  11.849
 1376TIP3    H254597   0.848   4.447  11.824
 1377TIP3   OH254598   1.174   4.743  13.576
 1377TIP3    H154599   1.257   4.767  13.534
 1377TIP3    H254600   1.142   4.669  13.525
 1378TIP3   OH254601   1.615   4.872  11.801
 1378TIP3    H154602   1.679   4.809  11.767
 1378TIP3    H254603   1.669   4.944  11.833
 1379TIP3   OH254604   0.648   4.333  13.170
 1379TIP3    H154605   0.739   4.318  13.195
 1379TIP3    H254606   0.628   4.420  13.204
 1380TIP3   OH254607   0.677   4.057  13.033
 1380TIP3    H154608   0.770   4.034  13.024
 1380TIP3    H254609   0.630   3.978  13.010
 1381TIP3   OH254610   0.918   4.808  13.074
 1381TIP3    H154611   0.964   4.724  13.078
 1381TIP3    H254612   0.836   4.789  13.029
 1382TIP3   OH254613   1.335   4.360  13.571
 1382TIP3    H154614   1.329   4.266  13.552
 1382TIP3    H254615   1.402   4.392  13.511
 1383TIP3   OH254616   1.421   4.801  13.467
 1383TIP3    H154617   1.399   4.848  13.387
 1383TIP3    H254618   1.514   4.779  13.459
 1384TIP3   OH254619   0.449   4.383  13.650
 1384TIP3    H154620   0.425   4.298  13.614
 1384TIP3    H254621   0.450   4.443  13.575
 1385TIP3   OH254622   0.907   4.177  13.552
 1385TIP3    H154623   0.902   4.272  13.565
 1385TIP3    H254624   0.928   4.167  13.460
 1386TIP3   OH254625   0.367   4.129  13.525
 1386TIP3    H154626   0.306   4.176  13.468
 1386TIP3    H254627   0.389   4.050  13.477
 1387TIP3   OH254628   0.209   4.996  11.877
 1387TIP3    H154629   0.254   5.081  11.879
 1387TIP3    H254630   0.135   5.010  11.818
 1388TIP3   OH254631   0.045   5.559  12.522
 1388TIP3    H154632   8.102   5.565  12.483
 1388TIP3    H254633   0.103   5.600  12.458
 1389TIP3   OH254634   1.660   5.097  13.610
 1389TIP3    H154635   1.627   5.051  13.532
 1389TIP3    H254636   1.704   5.175  13.575
 1390TIP3   OH254637   1.899   4.639  11.935
 1390TIP3    H154638   1.948   4.621  11.855
 1390TIP3    H254639   1.964   4.671  11.997
 1391TIP3   OH254640   1.698   4.806  13.425
 1391TIP3    H154641   1.770   4.760  13.382
 1391TIP3    H254642   1.696   4.892  13.384
 1392TIP3   OH254643   1.863   4.492  13.501
 1392TIP3    H154644   1.818   4.538  13.430
 1392TIP3    H254645   1.949   4.536  13.507
 1393TIP3   OH254646   1.590   4.288  12.309
 1393TIP3    H154647   1.613   4.196  12.299
 1393TIP3    H254648   1.645   4.334  12.246
 1394TIP3   OH254649   1.646   4.341  12.869
 1394TIP3    H154650   1.614   4.337  12.779
 1394TIP3    H254651   1.740   4.359  12.860
 1395TIP3   OH254652   1.617   4.445  13.126
 1395TIP3    H154653   1.619   4.396  13.044
 1395TIP3    H254654   1.679   4.517  13.112
 1396TIP3   OH254655   0.189   4.242  13.332
 1396TIP3    H154656   0.163   4.301  13.402
 1396TIP3    H254657   0.113   4.240  13.273
 1397TIP3   OH254658   1.953   3.967  13.483
 1397TIP3    H154659   1.886   3.921  13.433
 1397TIP3    H254660   1.906   4.004  13.558
 1398TIP3   OH254661   0.168   4.239  12.835
 1398TIP3    H154662   0.237   4.296  12.802
 1398TIP3    H254663   0.088   4.290  12.824
 1399TIP3   OH254664   0.116   4.568  12.842
 1399TIP3    H154665   0.183   4.550  12.776
 1399TIP3    H254666   0.105   4.663  12.841
 1400TIP3   OH254667   0.123   4.162  11.882
 1400TIP3    H154668   0.033   4.195  11.883
 1400TIP3    H254669   0.122   4.088  11.943
 1401TIP3   OH254670   0.187   3.977  12.981
 1401TIP3    H154671   0.116   3.912  12.977
 1401TIP3    H254672   0.159   4.048  12.924
 1402TIP3   OH254673   0.460   3.767  12.437
 1402TIP3    H154674   0.415   3.812  12.366
 1402TIP3    H254675   0.539   3.730  12.396
 1403TIP3   OH254676   0.133   3.801  11.832
 1403TIP3    H154677   0.158   3.861  11.903
 1403TIP3    H254678   0.087   3.857  11.769
 1404TIP3   OH254679   0.547   4.057  11.718
 1404TIP3    H154680   0.458   4.078  11.689
 1404TIP3    H254681   0.543   4.060  11.814
 1405TIP3   OH254682   0.399   3.881  13.385
 1405TIP3    H154683   0.311   3.844  13.380
 1405TIP3    H254684   0.432   3.878  13.295
 1406TIP3   OH254685   0.582   3.829  13.584
 1406TIP3    H154686   0.658   3.885  13.572
 1406TIP3    H254687   0.525   3.849  13.510
 1407TIP3   OH254688   2.120   4.704  12.999
 1407TIP3    H154689   2.156   4.639  13.060
 1407TIP3    H254690   2.133   4.787  13.043
 1408TIP3   OH254691   3.279   5.099  12.510
 1408TIP3    H154692   3.207   5.044  12.479
 1408TIP3    H254693   3.314   5.052  12.586
 1409TIP3   OH254694   1.995   4.530  12.306
 1409TIP3    H154695   2.062   4.537  12.237
 1409TIP3    H254696   1.918   4.497  12.261
 1410TIP3   OH254697   2.050   4.673  12.544
 1410TIP3    H154698   2.016   4.626  12.467
 1410TIP3    H254699   2.129   4.716  12.513
 1411TIP3   OH254700   3.328   4.092  12.388
 1411TIP3    H154701   3.235   4.100  12.367
 1411TIP3    H254702   3.366   4.175  12.359
 1412TIP3   OH254703   2.114   4.348  12.627
 1412TIP3    H154704   2.200   4.384  12.648
 1412TIP3    H254705   2.093   4.385  12.541
 1413TIP3   OH254706   3.611   4.287  13.068
 1413TIP3    H154707   3.650   4.250  12.990
 1413TIP3    H254708   3.678   4.347  13.102
 1414TIP3   OH254709   2.338   4.012  13.056
 1414TIP3    H154710   2.337   4.023  12.961
 1414TIP3    H254711   2.424   4.042  13.083
 1415TIP3   OH254712   3.457   4.191  12.665
 1415TIP3    H154713   3.455   4.120  12.602
 1415TIP3    H254714   3.528   4.248  12.635
 1416TIP3   OH254715   3.393   5.227  12.852
 1416TIP3    H154716   3.300   5.229  12.875
 1416TIP3    H254717   3.397   5.266  12.764
 1417TIP3   OH254718   3.327   4.209  12.895
 1417TIP3    H154719   3.244   4.162  12.884
 1417TIP3    H254720   3.372   4.199  12.811
 1418TIP3   OH254721   2.676   3.874  12.848
 1418TIP3    H154722   2.669   3.852  12.755
 1418TIP3    H254723   2.724   3.957  12.849
 1419TIP3   OH254724   3.290   5.379  12.472
 1419TIP3    H154725   3.293   5.285  12.492
 1419TIP3    H254726   3.221   5.387  12.407
 1420TIP3   OH254727   3.343   5.093  12.230
 1420TIP3    H154728   3.255   5.067  12.201
 1420TIP3    H254729   3.336   5.099  12.325
 1421TIP3   OH254730   3.456   5.033  13.198
 1421TIP3    H154731   3.463   4.971  13.126
 1421TIP3    H254732   3.467   5.119  13.156
 1422TIP3   OH254733   3.718   4.594  13.131
 1422TIP3    H154734   3.703   4.655  13.059
 1422TIP3    H254735   3.778   4.529  13.096
 1423TIP3   OH254736   3.290   4.559  13.067
 1423TIP3    H154737   3.272   4.622  13.137
 1423TIP3    H254738   3.274   4.609  12.986
 1424TIP3   OH254739   3.128   5.258  12.914
 1424TIP3    H154740   3.087   5.305  12.986
 1424TIP3    H254741   3.055   5.233  12.857
 1425TIP3   OH254742   2.409   5.379  13.457
 1425TIP3    H154743   2.494   5.374  13.412
 1425TIP3    H254744   2.354   5.314  13.413
 1426TIP3   OH254745   3.697   5.147  11.808
 1426TIP3    H154746   3.738   5.233  11.817
 1426TIP3    H254747   3.766   5.091  11.771
 1427TIP3   OH254748   3.711   5.320  13.482
 1427TIP3    H154749   3.717   5.236  13.436
 1427TIP3    H254750   3.630   5.359  13.450
 1428TIP3   OH254751   3.445   4.423  13.265
 1428TIP3    H154752   3.413   4.503  13.306
 1428TIP3    H254753   3.532   4.409  13.303
 1429TIP3   OH254754   2.410   3.988  12.783
 1429TIP3    H154755   2.417   4.054  12.714
 1429TIP3    H254756   2.500   3.963  12.801
 1430TIP3   OH254757   2.858   3.855  13.206
 1430TIP3    H154758   2.884   3.821  13.120
 1430TIP3    H254759   2.832   3.946  13.189
 1431TIP3   OH254760   3.159   4.302  13.110
 1431TIP3    H154761   3.130   4.239  13.176
 1431TIP3    H254762   3.084   4.311  13.051
 1432TIP3   OH254763   3.355   4.873  11.797
 1432TIP3    H154764   3.286   4.877  11.730
 1432TIP3    H254765   3.345   4.786  11.836
 1433TIP3   OH254766   2.745   4.204  11.710
 1433TIP3    H154767   2.745   4.191  11.805
 1433TIP3    H254768   2.834   4.182  11.683
 1434TIP3   OH254769   2.247   4.334  13.155
 1434TIP3    H154770   2.235   4.426  13.179
 1434TIP3    H254771   2.325   4.333  13.101
 1435TIP3   OH254772   2.486   4.300  11.623
 1435TIP3    H154773   2.473   4.244  11.699
 1435TIP3    H254774   2.414   4.363  11.628
 1436TIP3   OH254775   1.818   4.141  12.583
 1436TIP3    H154776   1.896   4.152  12.637
 1436TIP3    H254777   1.833   4.198  12.507
 1437TIP3   OH254778   3.086   4.088  12.886
 1437TIP3    H154779   3.023   4.150  12.923
 1437TIP3    H254780   3.039   4.046  12.814
 1438TIP3   OH254781   3.522   5.723  13.539
 1438TIP3    H154782   3.494   5.711  13.448
 1438TIP3    H254783   3.618   5.728  13.533
 1439TIP3   OH254784   3.464   4.859  12.985
 1439TIP3    H154785   3.538   4.878  12.928
 1439TIP3    H254786   3.399   4.819  12.928
 1440TIP3   OH254787   3.236   4.256  11.903
 1440TIP3    H154788   3.171   4.187  11.887
 1440TIP3    H254789   3.201   4.304  11.978
 1441TIP3   OH254790   1.898   4.679  13.290
 1441TIP3    H154791   1.986   4.716  13.293
 1441TIP3    H254792   1.880   4.664  13.197
 1442TIP3   OH254793   3.056   5.214  13.237
 1442TIP3    H154794   3.017   5.138  13.193
 1442TIP3    H254795   2.982   5.262  13.272
 1443TIP3   OH254796   3.639   4.312  12.031
 1443TIP3    H154797   3.650   4.364  11.951
 1443TIP3    H254798   3.698   4.353  12.095
 1444TIP3   OH254799   3.680   5.073  13.357
 1444TIP3    H154800   3.604   5.062  13.300
 1444TIP3    H254801   3.753   5.036  13.308
 1445TIP3   OH254802   3.542   5.152  12.049
 1445TIP3    H154803   3.476   5.150  12.118
 1445TIP3    H254804   3.623   5.177  12.095
 1446TIP3   OH254805   3.253   4.715  12.842
 1446TIP3    H154806   3.168   4.740  12.806
 1446TIP3    H254807   3.292   4.657  12.777
 1447TIP3   OH254808   3.018   4.945  13.100
 1447TIP3    H154809   2.928   4.911  13.102
 1447TIP3    H254810   3.036   4.958  13.007
 1448TIP3   OH254811   3.323   5.149  11.854
 1448TIP3    H154812   3.252   5.105  11.901
 1448TIP3    H254813   3.284   5.229  11.819
 1449TIP3   OH254814   3.269   5.385  13.224
 1449TIP3    H154815   3.208   5.312  13.233
 1449TIP3    H254816   3.218   5.453  13.180
 1450TIP3   OH254817   3.652   5.505  11.833
 1450TIP3    H154818   3.746   5.493  11.820
 1450TIP3    H254819   3.646   5.580  11.893
 1451TIP3   OH254820   2.026   4.186  13.086
 1451TIP3    H154821   2.095   4.252  13.089
 1451TIP3    H254822   2.008   4.175  12.992
 1452TIP3   OH254823   3.497   4.880  12.042
 1452TIP3    H154824   3.425   4.892  12.104
 1452TIP3    H254825   3.551   4.812  12.083
 1453TIP3   OH254826   2.138   5.443  13.235
 1453TIP3    H154827   2.194   5.373  13.202
 1453TIP3    H254828   2.080   5.400  13.298
 1454TIP3   OH254829   2.749   5.058  11.773
 1454TIP3    H154830   2.758   4.982  11.829
 1454TIP3    H254831   2.693   5.118  11.822
 1455TIP3   OH254832   2.474   4.151  11.992
 1455TIP3    H154833   2.452   4.220  12.054
 1455TIP3    H254834   2.570   4.149  11.991
 1456TIP3   OH254835   3.405   4.139  13.162
 1456TIP3    H154836   3.364   4.059  13.131
 1456TIP3    H254837   3.498   4.126  13.147
 1457TIP3   OH254838   3.346   4.519  12.674
 1457TIP3    H154839   3.255   4.505  12.647
 1457TIP3    H254840   3.396   4.517  12.593
 1458TIP3   OH254841   2.381   5.142  12.014
 1458TIP3    H154842   2.385   5.181  11.927
 1458TIP3    H254843   2.434   5.062  12.007
 1459TIP3   OH254844   3.492   5.553  12.820
 1459TIP3    H154845   3.460   5.552  12.730
 1459TIP3    H254846   3.583   5.522  12.814
 1460TIP3   OH254847   2.154   3.867  12.685
 1460TIP3    H154848   2.140   3.861  12.590
 1460TIP3    H254849   2.245   3.893  12.695
 1461TIP3   OH254850   3.054   5.255  13.511
 1461TIP3    H154851   2.977   5.300  13.476
 1461TIP3    H254852   3.100   5.224  13.433
 1462TIP3   OH254853   3.427   5.479  11.672
 1462TIP3    H154854   3.359   5.443  11.729
 1462TIP3    H254855   3.507   5.474  11.724
 1463TIP3   OH254856   2.037   4.914  13.497
 1463TIP3    H154857   2.081   4.874  13.422
 1463TIP3    H254858   2.023   5.005  13.471
 1464TIP3   OH254859   3.226   4.886  13.278
 1464TIP3    H154860   3.297   4.944  13.250
 1464TIP3    H254861   3.153   4.907  13.220
 1465TIP3   OH254862   2.089   4.634  13.555
 1465TIP3    H154863   2.171   4.631  13.506
 1465TIP3    H254864   2.053   4.720  13.536
 1466TIP3   OH254865   3.038   4.820  13.562
 1466TIP3    H154866   3.049   4.853  13.472
 1466TIP3    H254867   2.975   4.748  13.554
 1467TIP3   OH254868   3.624   4.897  11.709
 1467TIP3    H154869   3.610   4.842  11.632
 1467TIP3    H254870   3.718   4.918  11.706
 1468TIP3   OH254871   3.182   4.453  13.559
 1468TIP3    H154872   3.251   4.397  13.592
 1468TIP3    H254873   3.226   4.534  13.534
 1469TIP3   OH254874   3.368   4.669  13.374
 1469TIP3    H154875   3.311   4.741  13.347
 1469TIP3    H254876   3.457   4.703  13.365
 1470TIP3   OH254877   2.615   4.017  13.106
 1470TIP3    H154878   2.637   4.108  13.090
 1470TIP3    H254879   2.647   3.971  13.029
 1471TIP3   OH254880   3.258   4.100  13.666
 1471TIP3    H154881   3.254   4.046  13.588
 1471TIP3    H254882   3.168   4.127  13.682
 1472TIP3   OH254883   2.165   4.196  13.369
 1472TIP3    H154884   2.203   4.251  13.300
 1472TIP3    H254885   2.215   4.219  13.448
 1473TIP3   OH254886   2.587   3.859  13.344
 1473TIP3    H154887   2.670   3.815  13.330
 1473TIP3    H254888   2.580   3.922  13.273
 1474TIP3   OH254889   3.763   5.493  12.772
 1474TIP3    H154890   3.830   5.515  12.837
 1474TIP3    H254891   3.796   5.530  12.691
 1475TIP3   OH254892   3.694   5.465  13.182
 1475TIP3    H154893   3.630   5.402  13.150
 1475TIP3    H254894   3.778   5.437  13.145
 1476TIP3   OH254895   3.498   5.062  13.567
 1476TIP3    H154896   3.425   5.070  13.506
 1476TIP3    H254897   3.576   5.071  13.512
 1477TIP3   OH254898   3.761   4.944  12.891
 1477TIP3    H154899   3.798   4.899  12.815
 1477TIP3    H254900   3.770   5.037  12.871
 1478TIP3   OH254901   3.496   5.291  13.097
 1478TIP3    H154902   3.415   5.330  13.130
 1478TIP3    H254903   3.478   5.271  13.005
 1479TIP3   OH254904   3.653   4.404  11.757
 1479TIP3    H154905   3.566   4.427  11.725
 1479TIP3    H254906   3.712   4.434  11.688
 1480TIP3   OH254907   1.937   4.677  12.804
 1480TIP3    H154908   1.972   4.686  12.715
 1480TIP3    H254909   2.013   4.690  12.861
 1481TIP3   OH254910   3.634   4.752  13.342
 1481TIP3    H154911   3.657   4.697  13.267
 1481TIP3    H254912   3.685   4.832  13.329
 1482TIP3   OH254913   3.716   4.426  13.365
 1482TIP3    H154914   3.716   4.507  13.314
 1482TIP3    H254915   3.798   4.382  13.341
 1483TIP3   OH254916   3.501   4.044  11.548
 1483TIP3    H154917   3.543   4.066  11.631
 1483TIP3    H254918   3.408   4.058  11.563
 1484TIP3   OH254919   3.438   4.320  12.290
 1484TIP3    H154920   3.429   4.323  12.195
 1484TIP3    H254921   3.522   4.362  12.308
 1485TIP3   OH254922   3.489   4.453  12.889
 1485TIP3    H154923   3.444   4.476  12.807
 1485TIP3    H254924   3.580   4.441  12.863
 1486TIP3   OH254925   1.868   4.237  13.400
 1486TIP3    H154926   1.861   4.328  13.429
 1486TIP3    H254927   1.779   4.202  13.410
 1487TIP3   OH254928   3.713   3.825  13.588
 1487TIP3    H154929   3.756   3.771  13.521
 1487TIP3    H254930   3.699   3.909  13.545
 1488TIP3   OH254931   3.536   3.938  12.264
 1488TIP3    H154932   3.461   3.992  12.291
 1488TIP3    H254933   3.497   3.861  12.223
 1489TIP3   OH254934   2.054   4.119  12.786
 1489TIP3    H154935   2.087   4.041  12.742
 1489TIP3    H254936   2.088   4.192  12.735
 1490TIP3   OH254937   1.903   4.406  12.803
 1490TIP3    H154938   1.973   4.380  12.744
 1490TIP3    H254939   1.909   4.502  12.807
 1491TIP3   OH254940   3.686   4.064  13.459
 1491TIP3    H154941   3.610   4.062  13.400
 1491TIP3    H254942   3.754   4.108  13.409
 1492TIP3   OH254943   3.646   4.128  11.809
 1492TIP3    H154944   3.670   4.213  11.770
 1492TIP3    H254945   3.602   4.152  11.891
 1493TIP3   OH254946   3.461   5.598  12.462
 1493TIP3    H154947   3.512   5.578  12.384
 1493TIP3    H254948   3.402   5.523  12.472
 1494TIP3   OH254949   2.062   5.680  13.123
 1494TIP3    H154950   2.117   5.659  13.048
 1494TIP3    H254951   2.058   5.599  13.173
 1495TIP3   OH254952   3.053   5.507  13.099
 1495TIP3    H154953   2.994   5.476  13.169
 1495TIP3    H254954   2.996   5.551  13.037
 1496TIP3   OH254955   3.385   5.685  13.037
 1496TIP3    H154956   3.292   5.663  13.031
 1496TIP3    H254957   3.426   5.638  12.964
 1497TIP3   OH254958   3.477   3.900  12.608
 1497TIP3    H154959   3.448   3.857  12.688
 1497TIP3    H254960   3.397   3.905  12.554
 1498TIP3   OH254961   3.714   3.925  12.465
 1498TIP3    H154962   3.655   3.937  12.391
 1498TIP3    H254963   3.656   3.921  12.542
 1499TIP3   OH254964   2.129   3.826  12.412
 1499TIP3    H154965   2.116   3.856  12.322
 1499TIP3    H254966   2.180   3.746  12.404
 1500TIP3   OH254967   2.074   3.832  12.118
 1500TIP3    H154968   2.151   3.874  12.080
 1500TIP3    H254969   2.006   3.841  12.051
 1501TIP3   OH254970   2.623   3.804  12.580
 1501TIP3    H154971   2.677   3.758  12.514
 1501TIP3    H254972   2.617   3.893  12.547
 1502TIP3   OH254973   2.052   5.493  12.155
 1502TIP3    H154974   1.972   5.448  12.129
 1502TIP3    H254975   2.120   5.456  12.099
 1503TIP3   OH254976   2.275   3.954  11.981
 1503TIP3    H154977   2.294   3.914  11.896
 1503TIP3    H254978   2.339   4.025  11.989
 1504TIP3   OH254979   2.759   4.150  11.985
 1504TIP3    H154980   2.779   4.059  12.008
 1504TIP3    H254981   2.815   4.202  12.042
 1505TIP3   OH254982   3.578   5.536  12.215
 1505TIP3    H154983   3.544   5.454  12.181
 1505TIP3    H254984   3.591   5.591  12.138
 1506TIP3   OH254985   2.128   3.936  13.212
 1506TIP3    H154986   2.106   3.856  13.163
 1506TIP3    H254987   2.211   3.965  13.174
 1507TIP3   OH254988   2.436   3.824  13.580
 1507TIP3    H154989   2.483   3.853  13.502
 1507TIP3    H254990   2.437   3.728  13.574
 1508TIP3   OH254991   3.460   5.435  13.419
 1508TIP3    H154992   3.391   5.404  13.361
 1508TIP3    H254993   3.499   5.509  13.372
 1509TIP3   OH254994   5.567   4.155  12.933
 1509TIP3    H154995   5.502   4.208  12.887
 1509TIP3    H254996   5.643   4.155  12.875
 1510TIP3   OH254997   5.708   4.350  13.194
 1510TIP3    H154998   5.731   4.393  13.112
 1510TIP3    H254999   5.618   4.378  13.211
 1511TIP3   OH255000   5.627   4.741  12.973
 1511TIP3    H155001   5.639   4.834  12.990
 1511TIP3    H255002   5.565   4.738  12.900
 1512TIP3   OH255003   4.257   5.274  13.382
 1512TIP3    H155004   4.338   5.253  13.336
 1512TIP3    H255005   4.204   5.195  13.376
 1513TIP3   OH255006   3.829   4.931  13.176
 1513TIP3    H155007   3.812   4.931  13.082
 1513TIP3    H255008   3.925   4.932  13.183
 1514TIP3   OH255009   3.824   5.216  12.817
 1514TIP3    H155010   3.877   5.198  12.739
 1514TIP3    H255011   3.776   5.296  12.795
 1515TIP3   OH255012   5.314   4.402  13.485
 1515TIP3    H155013   5.312   4.487  13.440
 1515TIP3    H255014   5.242   4.353  13.446
 1516TIP3   OH255015   4.332   3.915  12.778
 1516TIP3    H155016   4.346   3.948  12.689
 1516TIP3    H255017   4.284   3.986  12.822
 1517TIP3   OH255018   5.121   4.281  13.333
 1517TIP3    H155019   5.035   4.240  13.324
 1517TIP3    H255020   5.103   4.375  13.327
 1518TIP3   OH255021   4.387   4.284  11.717
 1518TIP3    H155022   4.426   4.291  11.804
 1518TIP3    H255023   4.344   4.368  11.703
 1519TIP3   OH255024   5.403   5.661  13.450
 1519TIP3    H155025   5.430   5.669  13.359
 1519TIP3    H255026   5.324   5.608  13.448
 1520TIP3   OH255027   5.559   4.341  12.132
 1520TIP3    H155028   5.519   4.254  12.137
 1520TIP3    H255029   5.488   4.398  12.104
 1521TIP3   OH255030   5.197   5.473  13.285
 1521TIP3    H155031   5.225   5.391  13.245
 1521TIP3    H255032   5.136   5.511  13.221
 1522TIP3   OH255033   5.615   5.530  11.729
 1522TIP3    H155034   5.551   5.576  11.784
 1522TIP3    H255035   5.657   5.468  11.787
 1523TIP3   OH255036   3.910   5.346  13.054
 1523TIP3    H155037   3.882   5.289  12.982
 1523TIP3    H255038   3.993   5.309  13.083
 1524TIP3   OH255039   4.638   5.194  11.781
 1524TIP3    H155040   4.582   5.145  11.721
 1524TIP3    H255041   4.591   5.192  11.865
 1525TIP3   OH255042   4.437   5.111  11.979
 1525TIP3    H155043   4.419   5.018  11.972
 1525TIP3    H255044   4.350   5.151  11.992
 1526TIP3   OH255045   4.832   4.428  13.333
 1526TIP3    H155046   4.917   4.472  13.344
 1526TIP3    H255047   4.799   4.459  13.249
 1527TIP3   OH255048   5.362   4.184  13.243
 1527TIP3    H155049   5.276   4.213  13.272
 1527TIP3    H255050   5.391   4.252  13.182
 1528TIP3   OH255051   4.068   3.855  12.582
 1528TIP3    H155052   4.118   3.936  12.595
 1528TIP3    H255053   3.979   3.878  12.609
 1529TIP3   OH255054   3.925   5.506  13.488
 1529TIP3    H155055   4.001   5.457  13.456
 1529TIP3    H255056   3.852   5.446  13.475
 1530TIP3   OH255057   4.365   5.251  13.638
 1530TIP3    H155058   4.433   5.191  13.605
 1530TIP3    H255059   4.312   5.272  13.562
 1531TIP3   OH255060   4.920   5.240  11.728
 1531TIP3    H155061   4.827   5.228  11.747
 1531TIP3    H255062   4.964   5.208  11.806
 1532TIP3   OH255063   5.001   5.272  13.540
 1532TIP3    H155064   4.975   5.180  13.533
 1532TIP3    H255065   5.036   5.293  13.453
 1533TIP3   OH255066   5.286   5.309  11.786
 1533TIP3    H155067   5.221   5.290  11.853
 1533TIP3    H255068   5.282   5.234  11.726
 1534TIP3   OH255069   5.584   4.748  11.678
 1534TIP3    H155070   5.533   4.674  11.645
 1534TIP3    H255071   5.522   4.821  11.681
 1535TIP3   OH255072   4.473   4.235  13.388
 1535TIP3    H155073   4.484   4.185  13.307
 1535TIP3    H255074   4.430   4.316  13.360
 1536TIP3   OH255075   4.721   4.264  13.517
 1536TIP3    H155076   4.632   4.256  13.482
 1536TIP3    H255077   4.764   4.327  13.459
 1537TIP3   OH255078   4.905   4.057  13.405
 1537TIP3    H155079   4.838   4.125  13.411
 1537TIP3    H255080   4.857   3.977  13.382
 1538TIP3   OH255081   5.096   4.079  13.612
 1538TIP3    H155082   5.069   4.070  13.520
 1538TIP3    H255083   5.016   4.099  13.659
 1539TIP3   OH255084   5.704   5.669  12.916
 1539TIP3    H155085   5.648   5.599  12.952
 1539TIP3    H255086   5.759   5.624  12.852
 1540TIP3   OH255087   5.587   5.476  13.080
 1540TIP3    H155088   5.564   5.396  13.033
 1540TIP3    H255089   5.678   5.463  13.107
 1541TIP3   OH255090   5.566   4.581  13.447
 1541TIP3    H155091   5.494   4.641  13.467
 1541TIP3    H255092   5.529   4.519  13.384
 1542TIP3   OH255093   5.356   4.253  11.649
 1542TIP3    H155094   5.317   4.176  11.690
 1542TIP3    H255095   5.330   4.326  11.704
 1543TIP3   OH255096   5.395   4.326  12.786
 1543TIP3    H155097   5.410   4.404  12.734
 1543TIP3    H255098   5.302   4.305  12.772
 1544TIP3   OH255099   5.468   4.484  13.187
 1544TIP3    H155100   5.399   4.527  13.238
 1544TIP3    H255101   5.457   4.518  13.098
 1545TIP3   OH255102   5.618   3.882  13.606
 1545TIP3    H155103   5.561   3.808  13.582
 1545TIP3    H255104   5.608   3.944  13.535
 1546TIP3   OH255105   5.552   4.049  13.401
 1546TIP3    H155106   5.493   4.122  13.383
 1546TIP3    H255107   5.530   3.983  13.335
 1547TIP3   OH255108   5.617   4.086  11.933
 1547TIP3    H155109   5.606   4.053  11.844
 1547TIP3    H255110   5.529   4.112  11.961
 1548TIP3   OH255111   3.848   4.020  13.109
 1548TIP3    H155112   3.776   4.004  13.048
 1548TIP3    H255113   3.903   4.085  13.065
 1549TIP3   OH255114   3.997   5.146  13.535
 1549TIP3    H155115   3.942   5.188  13.469
 1549TIP3    H255116   4.060   5.095  13.485
 1550TIP3   OH255117   5.403   3.909  13.204
 1550TIP3    H155118   5.378   4.002  13.204
 1550TIP3    H255119   5.324   3.863  13.176
 1551TIP3   OH255120   5.016   5.594  13.105
 1551TIP3    H155121   4.946   5.541  13.066
 1551TIP3    H255122   4.971   5.655  13.162
 1552TIP3   OH255123   5.251   5.713  13.012
 1552TIP3    H155124   5.167   5.687  13.049
 1552TIP3    H255125   5.273   5.643  12.950
 1553TIP3   OH255126   3.930   3.865  12.318
 1553TIP3    H155127   3.854   3.887  12.372
 1553TIP3    H255128   4.000   3.846  12.381
 1554TIP3   OH255129   3.862   3.985  11.894
 1554TIP3    H155130   3.925   4.000  11.824
 1554TIP3    H255131   3.781   4.025  11.863
 1555TIP3   OH255132   4.033   3.894  13.432
 1555TIP3    H155133   3.969   3.828  13.406
 1555TIP3    H255134   4.008   3.973  13.384
 1556TIP3   OH255135   4.275   3.784  13.516
 1556TIP3    H155136   4.337   3.781  13.444
 1556TIP3    H255137   4.200   3.833  13.481
 1557TIP3   OH255138   4.083   5.614  11.856
 1557TIP3    H155139   4.049   5.624  11.945
 1557TIP3    H255140   4.148   5.545  11.862
 1558TIP3   OH255141   6.047   4.721  12.987
 1558TIP3    H155142   5.982   4.773  12.940
 1558TIP3    H255143   6.128   4.733  12.936
 1559TIP3   OH255144   6.063   5.134  12.840
 1559TIP3    H155145   5.967   5.129  12.843
 1559TIP3    H255146   6.089   5.054  12.794
 1560TIP3   OH255147   5.794   4.457  12.224
 1560TIP3    H155148   5.760   4.540  12.258
 1560TIP3    H255149   5.717   4.409  12.195
 1561TIP3   OH255150   6.219   4.175  12.535
 1561TIP3    H155151   6.258   4.245  12.482
 1561TIP3    H255152   6.159   4.131  12.475
 1562TIP3   OH255153   5.842   4.316  12.586
 1562TIP3    H155154   5.926   4.331  12.629
 1562TIP3    H255155   5.815   4.402  12.554
 1563TIP3   OH255156   6.435   4.570  12.627
 1563TIP3    H155157   6.488   4.609  12.697
 1563TIP3    H255158   6.498   4.549  12.558
 1564TIP3   OH255159   6.100   4.231  12.992
 1564TIP3    H155160   6.076   4.238  12.900
 1564TIP3    H255161   6.030   4.178  13.031
 1565TIP3   OH255162   6.463   4.771  13.104
 1565TIP3    H155163   6.436   4.862  13.086
 1565TIP3    H255164   6.552   4.765  13.069
 1566TIP3   OH255165   6.087   4.320  12.725
 1566TIP3    H155166   6.145   4.395  12.729
 1566TIP3    H255167   6.131   4.259  12.665
 1567TIP3   OH255168   6.154   5.070  13.116
 1567TIP3    H155169   6.162   5.097  13.025
 1567TIP3    H255170   6.060   5.054  13.128
 1568TIP3   OH255171   7.078   4.291  12.868
 1568TIP3    H155172   7.094   4.233  12.793
 1568TIP3    H255173   7.094   4.236  12.945
 1569TIP3   OH255174   7.442   4.687  13.083
 1569TIP3    H155175   7.452   4.781  13.067
 1569TIP3    H255176   7.422   4.649  12.998
 1570TIP3   OH255177   6.246   4.690  12.454
 1570TIP3    H155178   6.287   4.773  12.430
 1570TIP3    H255179   6.299   4.656  12.526
 1571TIP3   OH255180   6.410   5.158  12.681
 1571TIP3    H155181   6.351   5.155  12.606
 1571TIP3    H255182   6.463   5.079  12.673
 1572TIP3   OH255183   6.303   4.704  12.870
 1572TIP3    H155184   6.311   4.738  12.781
 1572TIP3    H255185   6.387   4.722  12.911
 1573TIP3   OH255186   6.261   5.107  13.371
 1573TIP3    H155187   6.232   5.199  13.371
 1573TIP3    H255188   6.239   5.076  13.283
 1574TIP3   OH255189   5.991   4.764  13.271
 1574TIP3    H155190   6.015   4.803  13.186
 1574TIP3    H255191   5.903   4.731  13.258
 1575TIP3   OH255192   6.150   5.365  13.389
 1575TIP3    H155193   6.186   5.406  13.311
 1575TIP3    H255194   6.065   5.332  13.362
 1576TIP3   OH255195   6.035   4.743  12.266
 1576TIP3    H155196   6.105   4.716  12.326
 1576TIP3    H255197   5.962   4.767  12.323
 1577TIP3   OH255198   6.552   5.315  13.313
 1577TIP3    H155199   6.519   5.359  13.234
 1577TIP3    H255200   6.595   5.236  13.279
 1578TIP3   OH255201   6.641   5.682  12.158
 1578TIP3    H155202   6.730   5.696  12.124
 1578TIP3    H255203   6.645   5.717  12.248
 1579TIP3   OH255204   6.090   5.446  12.410
 1579TIP3    H155205   6.078   5.438  12.504
 1579TIP3    H255206   6.018   5.397  12.372
 1580TIP3   OH255207   7.262   4.380  13.287
 1580TIP3    H155208   7.286   4.460  13.333
 1580TIP3    H255209   7.342   4.327  13.286
 1581TIP3   OH255210   5.885   5.033  13.122
 1581TIP3    H155211   5.797   5.018  13.155
 1581TIP3    H255212   5.873   5.052  13.029
 1582TIP3   OH255213   6.907   4.385  13.074
 1582TIP3    H155214   6.923   4.369  13.167
 1582TIP3    H255215   6.821   4.348  13.057
 1583TIP3   OH255216   6.319   4.441  12.929
 1583TIP3    H155217   6.301   4.531  12.902
 1583TIP3    H255218   6.404   4.421  12.891
 1584TIP3   OH255219   6.244   4.422  12.362
 1584TIP3    H155220   6.233   4.511  12.397
 1584TIP3    H255221   6.333   4.422  12.325
 1585TIP3   OH255222   6.022   4.477  13.108
 1585TIP3    H155223   6.023   4.567  13.074
 1585TIP3    H255224   5.930   4.449  13.098
 1586TIP3   OH255225   5.757   4.098  12.426
 1586TIP3    H155226   5.782   4.175  12.477
 1586TIP3    H255227   5.671   4.074  12.460
 1587TIP3   OH255228   5.930   4.207  11.946
 1587TIP3    H155229   5.917   4.148  11.872
 1587TIP3    H255230   5.850   4.197  11.998
 1588TIP3   OH255231   6.059   4.377  12.155
 1588TIP3    H155232   5.971   4.407  12.179
 1588TIP3    H255233   6.111   4.389  12.233
 1589TIP3   OH255234   6.338   4.297  12.082
 1589TIP3    H155235   6.376   4.242  12.150
 1589TIP3    H255236   6.413   4.338  12.038
 1590TIP3   OH255237   6.290   4.375  11.807
 1590TIP3    H155238   6.304   4.301  11.748
 1590TIP3    H255239   6.347   4.444  11.773
 1591TIP3   OH255240   7.275   5.712  13.463
 1591TIP3    H155241   7.259   5.662  13.383
 1591TIP3    H255242   7.366   5.741  13.457
 1592TIP3   OH255243   5.973   4.952  13.476
 1592TIP3    H155244   6.059   4.929  13.512
 1592TIP3    H255245   5.966   4.901  13.396
 1593TIP3   OH255246   6.045   4.077  12.347
 1593TIP3    H155247   5.954   4.105  12.339
 1593TIP3    H255248   6.073   4.061  12.257
 1594TIP3   OH255249   6.083   4.885  12.699
 1594TIP3    H155250   6.130   4.899  12.617
 1594TIP3    H255251   5.991   4.896  12.677
 1595TIP3   OH255252   5.737   4.680  13.226
 1595TIP3    H155253   5.662   4.641  13.271
 1595TIP3    H255254   5.701   4.713  13.144
 1596TIP3   OH255255   6.246   5.204  12.458
 1596TIP3    H155256   6.326   5.205  12.406
 1596TIP3    H255257   6.205   5.289  12.440
 1597TIP3   OH255258   5.802   4.803  11.837
 1597TIP3    H155259   5.788   4.731  11.899
 1597TIP3    H255260   5.735   4.789  11.770
 1598TIP3   OH255261   6.507   5.401  13.030
 1598TIP3    H155262   6.540   5.483  12.995
 1598TIP3    H255263   6.553   5.333  12.980
 1599TIP3   OH255264   6.244   5.695  12.241
 1599TIP3    H155265   6.184   5.629  12.275
 1599TIP3    H255266   6.306   5.710  12.313
 1600TIP3   OH255267   7.119   5.462  13.297
 1600TIP3    H155268   7.161   5.380  13.323
 1600TIP3    H255269   7.173   5.495  13.225
 1601TIP3   OH255270   5.872   4.131  13.134
 1601TIP3    H155271   5.818   4.208  13.154
 1601TIP3    H255272   5.809   4.063  13.111
 1602TIP3   OH255273   5.845   5.368  13.061
 1602TIP3    H155274   5.769   5.320  13.027
 1602TIP3    H255275   5.920   5.311  13.044
 1603TIP3   OH255276   6.324   5.101  11.760
 1603TIP3    H155277   6.401   5.081  11.706
 1603TIP3    H255278   6.361   5.128  11.845
 1604TIP3   OH255279   6.342   5.189  12.028
 1604TIP3    H155280   6.404   5.148  12.088
 1604TIP3    H255281   6.354   5.283  12.041
 1605TIP3   OH255282   5.931   4.923  12.095
 1605TIP3    H155283   5.867   4.952  12.161
 1605TIP3    H255284   5.985   4.860  12.142
 1606TIP3   OH255285   6.370   5.465  12.065
 1606TIP3    H155286   6.459   5.485  12.037
 1606TIP3    H255287   6.363   5.501  12.153
 1607TIP3   OH255288   6.090   5.132  11.890
 1607TIP3    H155289   6.127   5.179  11.965
 1607TIP3    H255290   6.161   5.129  11.826
 1608TIP3   OH255291   6.023   4.452  11.845
 1608TIP3    H155292   6.066   4.488  11.767
 1608TIP3    H255293   5.932   4.441  11.818
 1609TIP3   OH255294   5.963   3.937  12.697
 1609TIP3    H155295   5.952   3.919  12.603
 1609TIP3    H255296   5.967   3.850  12.737
 1610TIP3   OH255297   5.888   5.329  12.256
 1610TIP3    H155298   5.813   5.277  12.229
 1610TIP3    H255299   5.873   5.415  12.217
 1611TIP3   OH255300   5.781   5.543  13.471
 1611TIP3    H155301   5.868   5.532  13.433
 1611TIP3    H255302   5.727   5.476  13.428
 1612TIP3   OH255303   6.217   5.370  13.659
 1612TIP3    H155304   6.302   5.330  13.636
 1612TIP3    H255305   6.172   5.379  13.575
 1613TIP3   OH255306   6.631   5.342  11.674
 1613TIP3    H155307   6.616   5.435  11.692
 1613TIP3    H255308   6.693   5.314  11.741
 1614TIP3   OH255309   6.103   4.863  11.777
 1614TIP3    H155310   6.175   4.821  11.824
 1614TIP3    H255311   6.132   4.864  11.686
 1615TIP3   OH255312   6.709   5.014  11.550
 1615TIP3    H155313   6.754   4.974  11.625
 1615TIP3    H255314   6.679   4.940  11.498
 1616TIP3   OH255315   5.824   4.613  13.553
 1616TIP3    H155316   5.871   4.657  13.482
 1616TIP3    H255317   5.735   4.603  13.520
 1617TIP3   OH255318   6.316   4.740  11.892
 1617TIP3    H155319   6.381   4.753  11.962
 1617TIP3    H255320   6.363   4.689  11.826
 1618TIP3   OH255321   6.272   4.583  13.181
 1618TIP3    H155322   6.206   4.649  13.203
 1618TIP3    H255323   6.349   4.633  13.154
 1619TIP3   OH255324   6.458   4.576  11.721
 1619TIP3    H155325   6.462   4.590  11.627
 1619TIP3    H255326   6.549   4.557  11.747
 1620TIP3   OH255327   6.234   4.307  13.529
 1620TIP3    H155328   6.163   4.293  13.466
 1620TIP3    H255329   6.307   4.256  13.494
 1621TIP3   OH255330   6.977   4.040  13.687
 1621TIP3    H155331   7.002   3.953  13.656
 1621TIP3    H255332   6.989   4.097  13.611
 1622TIP3   OH255333   6.028   4.072  13.431
 1622TIP3    H155334   6.096   4.106  13.373
 1622TIP3    H255335   5.950   4.122  13.409
 1623TIP3   OH255336   6.437   5.756  11.998
 1623TIP3    H155337   6.508   5.720  12.051
 1623TIP3    H255338   6.480   5.813  11.935
 1624TIP3   OH255339   5.760   5.103  11.900
 1624TIP3    H155340   5.738   5.151  11.979
 1624TIP3    H255341   5.681   5.107  11.846
 1625TIP3   OH255342   5.653   5.674  12.301
 1625TIP3    H155343   5.650   5.596  12.245
 1625TIP3    H255344   5.685   5.641  12.385
 1626TIP3   OH255345   5.689   5.588  12.568
 1626TIP3    H155346   5.619   5.525  12.587
 1626TIP3    H255347   5.758   5.567  12.630
 1627TIP3   OH255348   7.352   4.463  11.844
 1627TIP3    H155349   7.336   4.557  11.841
 1627TIP3    H255350   7.435   4.451  11.798
 1628TIP3   OH255351   7.337   4.656  13.339
 1628TIP3    H155352   7.363   4.668  13.248
 1628TIP3    H255353   7.306   4.742  13.367
 1629TIP3   OH255354   7.501   4.467  13.493
 1629TIP3    H155355   7.447   4.527  13.442
 1629TIP3    H255356   7.516   4.393  13.435
 1630TIP3   OH255357   7.208   4.550  12.800
 1630TIP3    H155358   7.253   4.479  12.755
 1630TIP3    H255359   7.234   4.629  12.753
 1631TIP3   OH255360   7.163   4.512  13.077
 1631TIP3    H155361   7.175   4.600  13.113
 1631TIP3    H255362   7.203   4.454  13.142
 1632TIP3   OH255363   5.777   4.218  13.429
 1632TIP3    H155364   5.764   4.278  13.355
 1632TIP3    H255365   5.703   4.157  13.423
 1633TIP3   OH255366   5.800   4.136  12.790
 1633TIP3    H155367   5.859   4.066  12.765
 1633TIP3    H255368   5.808   4.201  12.720
 1634TIP3   OH255369   5.760   4.488  12.965
 1634TIP3    H155370   5.727   4.453  12.883
 1634TIP3    H255371   5.725   4.577  12.969
 1635TIP3   OH255372   5.765   4.023  12.154
 1635TIP3    H155373   5.701   4.053  12.090
 1635TIP3    H255374   5.740   4.067  12.236
 1636TIP3   OH255375   5.656   3.947  13.085
 1636TIP3    H155376   5.575   3.914  13.123
 1636TIP3    H255377   5.628   4.019  13.028
 1637TIP3   OH255378   5.906   5.215  13.501
 1637TIP3    H155379   5.833   5.231  13.441
 1637TIP3    H255380   5.933   5.125  13.481
 1638TIP3   OH255381   6.258   5.466  13.156
 1638TIP3    H155382   6.226   5.538  13.102
 1638TIP3    H255383   6.334   5.433  13.108
 1639TIP3   OH255384   6.693   5.474  13.506
 1639TIP3    H155385   6.643   5.427  13.440
 1639TIP3    H255386   6.762   5.519  13.457
 1640TIP3   OH255387   6.883   5.591  13.344
 1640TIP3    H155388   6.960   5.539  13.321
 1640TIP3    H255389   6.858   5.634  13.263
 1641TIP3   OH255390   7.425   3.833  13.169
 1641TIP3    H155391   7.435   3.919  13.209
 1641TIP3    H255392   7.350   3.842  13.110
 1642TIP3   OH255393   5.927   5.727  13.123
 1642TIP3    H155394   5.915   5.801  13.064
 1642TIP3    H255395   5.882   5.654  13.080
 1643TIP3   OH255396   6.184   5.698  13.004
 1643TIP3    H155397   6.099   5.707  13.047
 1643TIP3    H255398   6.188   5.771  12.942
 1644TIP3   OH255399   6.590   5.635  12.902
 1644TIP3    H155400   6.519   5.666  12.846
 1644TIP3    H255401   6.670   5.657  12.853
 1645TIP3   OH255402   6.930   5.632  13.037
 1645TIP3    H155403   6.941   5.583  12.955
 1645TIP3    H255404   7.018   5.664  13.058
 1646TIP3   OH255405   7.189   5.711  13.095
 1646TIP3    H155406   7.207   5.804  13.105
 1646TIP3    H255407   7.272   5.673  13.064
 1647TIP3   OH255408   5.850   5.486  12.773
 1647TIP3    H155409   5.819   5.413  12.826
 1647TIP3    H255410   5.936   5.458  12.741
 1648TIP3   OH255411   6.088   5.375  12.687
 1648TIP3    H155412   6.075   5.288  12.727
 1648TIP3    H255413   6.177   5.400  12.712
 1649TIP3   OH255414   6.348   5.412  12.773
 1649TIP3    H155415   6.377   5.331  12.731
 1649TIP3    H255416   6.381   5.406  12.862
 1650TIP3   OH255417   7.217   3.794  12.694
 1650TIP3    H155418   7.216   3.782  12.599
 1650TIP3    H255419   7.169   3.875  12.708
 1651TIP3   OH255420   7.486   3.945  12.526
 1651TIP3    H155421   7.461   3.877  12.465
 1651TIP3    H255422   7.488   4.025  12.474
 1652TIP3   OH255423   5.893   3.847  12.439
 1652TIP3    H155424   5.841   3.926  12.422
 1652TIP3    H255425   5.972   3.858  12.386
 1653TIP3   OH255426   5.837   3.800  12.012
 1653TIP3    H155427   5.918   3.819  11.964
 1653TIP3    H255428   5.820   3.879  12.063
 1654TIP3   OH255429   6.758   5.530  11.837
 1654TIP3    H155430   6.782   5.574  11.919
 1654TIP3    H255431   6.840   5.494  11.805
 1655TIP3   OH255432   6.074   3.837  13.267
 1655TIP3    H155433   6.029   3.891  13.332
 1655TIP3    H255434   6.149   3.890  13.239
 1656TIP3   OH255435   6.175   5.641  11.957
 1656TIP3    H155436   6.112   5.602  11.897
 1656TIP3    H255437   6.242   5.573  11.969
 1657TIP3   OH255438   7.055   3.809  13.556
 1657TIP3    H155439   6.995   3.782  13.487
 1657TIP3    H255440   7.135   3.833  13.510
 1658TIP3   OH255441   7.850   4.631  13.045
 1658TIP3    H155442   7.783   4.566  13.068
 1658TIP3    H255443   7.826   4.661  12.958
 1659TIP3   OH255444   8.074   5.076  12.757
 1659TIP3    H155445   8.073   4.991  12.713
 1659TIP3    H255446   8.031   5.135  12.694
 1660TIP3   OH255447   8.090   5.165  13.060
 1660TIP3    H155448   8.092   5.254  13.096
 1660TIP3    H255449   8.026   5.120  13.114
 1661TIP3   OH255450   7.818   4.827  13.236
 1661TIP3    H155451   7.788   4.896  13.178
 1661TIP3    H255452   7.839   4.754  13.178
 1662TIP3   OH255453   7.986   5.247  13.342
 1662TIP3    H155454   8.056   5.310  13.356
 1662TIP3    H255455   7.912   5.299  13.312
 1663TIP3   OH255456   7.904   5.519  12.470
 1663TIP3    H155457   7.858   5.601  12.451
 1663TIP3    H255458   7.874   5.458  12.403
 1664TIP3   OH255459   7.715   5.076  13.293
 1664TIP3    H155460   7.741   5.165  13.271
 1664TIP3    H255461   7.620   5.082  13.308
 1665TIP3   OH255462   8.098   4.498  13.063
 1665TIP3    H155463   8.013   4.540  13.050
 1665TIP3    H255464   8.144   4.510  12.980
 1666TIP3   OH255465   7.943   4.997  13.463
 1666TIP3    H155466   8.023   4.997  13.515
 1666TIP3    H255467   7.947   5.078  13.412
 1667TIP3   OH255468   7.632   4.528  13.224
 1667TIP3    H155469   7.601   4.438  13.234
 1667TIP3    H255470   7.565   4.571  13.170
 1668TIP3   OH255471   7.767   4.733  11.894
 1668TIP3    H155472   7.813   4.800  11.945
 1668TIP3    H255473   7.674   4.756  11.902
 1669TIP3   OH255474   7.763   5.374  13.241
 1669TIP3    H155475   7.732   5.389  13.151
 1669TIP3    H255476   7.745   5.456  13.286
 1670TIP3   OH255477   7.846   4.957  12.041
 1670TIP3    H155478   7.756   4.984  12.024
 1670TIP3    H255479   7.900   5.019  11.992
 1671TIP3   OH255480   7.955   5.170  11.903
 1671TIP3    H155481   7.915   5.244  11.948
 1671TIP3    H255482   8.000   5.208  11.828
 1672TIP3   OH255483   7.827   5.319  12.296
 1672TIP3    H155484   7.752   5.324  12.236
 1672TIP3    H255485   7.904   5.328  12.239
 1673TIP3   OH255486   7.549   4.819  13.404
 1673TIP3    H155487   7.485   4.891  13.400
 1673TIP3    H255488   7.497   4.740  13.384
 1674TIP3   OH255489   8.143   5.051  11.711
 1674TIP3    H155490   8.058   5.026  11.746
 1674TIP3    H255491   8.135   5.144  11.691
 1675TIP3   OH255492   7.752   4.635  13.442
 1675TIP3    H155493   7.728   4.601  13.355
 1675TIP3    H255494   7.707   4.578  13.504
 1676TIP3   OH255495   8.030   4.397  13.436
 1676TIP3    H155496   7.949   4.348  13.444
 1676TIP3    H255497   8.020   4.449  13.356
 1677TIP3   OH255498   7.598   5.045  11.960
 1677TIP3    H155499   7.595   5.100  11.881
 1677TIP3    H255500   7.507   5.027  11.981
 1678TIP3   OH255501   7.560   5.302  13.525
 1678TIP3    H155502   7.506   5.244  13.472
 1678TIP3    H255503   7.576   5.378  13.470
 1679TIP3   OH255504   0.006   5.423  13.099
 1679TIP3    H155505   8.098   5.490  13.055
 1679TIP3    H255506   0.070   5.472  13.150
 1680TIP3   OH255507   8.024   5.634  12.981
 1680TIP3    H155508   7.969   5.677  13.046
 1680TIP3    H255509   8.057   5.705  12.926
 1681TIP3   OH255510   7.968   5.257  12.569
 1681TIP3    H155511   7.959   5.222  12.480
 1681TIP3    H255512   7.945   5.349  12.561
 1682TIP3   OH255513   1.055   6.743  12.506
 1682TIP3    H155514   1.104   6.798  12.444
 1682TIP3    H255515   1.034   6.664  12.456
 1683TIP3   OH255516   1.376   6.778  12.631
 1683TIP3    H155517   1.393   6.720  12.556
 1683TIP3    H255518   1.330   6.853  12.593
 1684TIP3   OH255519   1.182   7.398  12.642
 1684TIP3    H155520   1.252   7.362  12.587
 1684TIP3    H255521   1.102   7.361  12.607
 1685TIP3   OH255522   1.822   6.011  12.789
 1685TIP3    H155523   1.727   6.019  12.777
 1685TIP3    H255524   1.844   5.926  12.752
 1686TIP3   OH255525   1.344   6.195  12.887
 1686TIP3    H155526   1.311   6.112  12.922
 1686TIP3    H255527   1.326   6.190  12.793
 1687TIP3   OH255528   1.846   6.163  13.080
 1687TIP3    H155529   1.773   6.195  13.026
 1687TIP3    H255530   1.846   6.069  13.067
 1688TIP3   OH255531   1.202   6.903  12.334
 1688TIP3    H155532   1.275   6.853  12.297
 1688TIP3    H255533   1.165   6.951  12.260
 1689TIP3   OH255534   0.403   6.126  12.649
 1689TIP3    H155535   0.491   6.090  12.658
 1689TIP3    H255536   0.397   6.152  12.557
 1690TIP3   OH255537   1.551   7.021  12.937
 1690TIP3    H155538   1.469   7.069  12.928
 1690TIP3    H255539   1.604   7.048  12.862
 1691TIP3   OH255540   1.370   7.315  12.456
 1691TIP3    H155541   1.408   7.227  12.450
 1691TIP3    H255542   1.361   7.343  12.365
 1692TIP3   OH255543   1.481   7.071  12.377
 1692TIP3    H155544   1.471   7.071  12.282
 1692TIP3    H255545   1.543   7.000  12.394
 1693TIP3   OH255546   1.612   6.991  13.211
 1693TIP3    H155547   1.609   7.013  13.118
 1693TIP3    H255548   1.626   7.075  13.255
 1694TIP3   OH255549   1.783   6.565  12.958
 1694TIP3    H155550   1.727   6.637  12.928
 1694TIP3    H255551   1.848   6.556  12.889
 1695TIP3   OH255552   1.373   6.645  12.315
 1695TIP3    H155553   1.283   6.612  12.312
 1695TIP3    H255554   1.402   6.645  12.224
 1696TIP3   OH255555   1.250   6.400  13.041
 1696TIP3    H155556   1.155   6.398  13.041
 1696TIP3    H255557   1.276   6.322  12.992
 1697TIP3   OH255558   1.295   7.148  12.910
 1697TIP3    H155559   1.259   7.175  12.826
 1697TIP3    H255560   1.252   7.065  12.929
 1698TIP3   OH255561   1.395   6.609  12.034
 1698TIP3    H155562   1.448   6.658  11.972
 1698TIP3    H255563   1.312   6.595  11.989
 1699TIP3   OH255564   1.027   7.254  12.453
 1699TIP3    H155565   1.101   7.233  12.397
 1699TIP3    H255566   0.955   7.201  12.419
 1700TIP3   OH255567   0.405   7.168  13.252
 1700TIP3    H155568   0.449   7.084  13.240
 1700TIP3    H255569   0.350   7.156  13.330
 1701TIP3   OH255570   0.955   7.088  13.203
 1701TIP3    H155571   1.035   7.104  13.253
 1701TIP3    H255572   0.953   6.993  13.190
 1702TIP3   OH255573   0.854   7.569  12.079
 1702TIP3    H155574   0.925   7.537  12.025
 1702TIP3    H255575   0.872   7.534  12.166
 1703TIP3   OH255576   1.318   7.363  11.915
 1703TIP3    H155577   1.288   7.284  11.869
 1703TIP3    H255578   1.391   7.395  11.861
 1704TIP3   OH255579   1.385   7.372  12.184
 1704TIP3    H155580   1.338   7.364  12.101
 1704TIP3    H255581   1.475   7.344  12.164
 1705TIP3   OH255582   1.584   6.209  13.332
 1705TIP3    H155583   1.492   6.232  13.318
 1705TIP3    H255584   1.596   6.128  13.282
 1706TIP3   OH255585   1.322   6.173  13.263
 1706TIP3    H155586   1.242   6.182  13.315
 1706TIP3    H255587   1.294   6.127  13.184
 1707TIP3   OH255588   1.521   6.761  11.813
 1707TIP3    H155589   1.478   6.751  11.729
 1707TIP3    H255590   1.596   6.818  11.796
 1708TIP3   OH255591   1.004   5.935  11.856
 1708TIP3    H155592   0.999   5.922  11.951
 1708TIP3    H255593   0.913   5.947  11.828
 1709TIP3   OH255594   1.323   6.210  12.609
 1709TIP3    H155595   1.274   6.221  12.527
 1709TIP3    H255596   1.343   6.116  12.612
 1710TIP3   OH255597   0.719   5.975  11.884
 1710TIP3    H155598   0.636   5.928  11.876
 1710TIP3    H255599   0.694   6.067  11.891
 1711TIP3   OH255600   0.064   6.132  12.421
 1711TIP3    H155601   0.081   6.085  12.503
 1711TIP3    H255602   0.043   6.064  12.358
 1712TIP3   OH255603   8.129   6.234  12.093
 1712TIP3    H155604   0.036   6.247  12.013
 1712TIP3    H255605   8.078   6.155  12.077
 1713TIP3   OH255606   1.586   6.748  12.920
 1713TIP3    H155607   1.577   6.842  12.935
 1713TIP3    H255608   1.545   6.733  12.835
 1714TIP3   OH255609   1.244   5.902  11.722
 1714TIP3    H155610   1.153   5.897  11.751
 1714TIP3    H255611   1.279   5.978  11.768
 1715TIP3   OH255612   1.439   6.323  12.020
 1715TIP3    H155613   1.456   6.286  12.107
 1715TIP3    H255614   1.424   6.416  12.037
 1716TIP3   OH255615   1.210   7.113  13.322
 1716TIP3    H155616   1.196   7.023  13.294
 1716TIP3    H255617   1.258   7.154  13.249
 1717TIP3   OH255618   1.769   6.346  12.096
 1717TIP3    H155619   1.751   6.310  12.010
 1717TIP3    H255620   1.774   6.441  12.083
 1718TIP3   OH255621   1.339   6.617  12.859
 1718TIP3    H155622   1.324   6.688  12.796
 1718TIP3    H255623   1.374   6.545  12.806
 1719TIP3   OH255624   0.873   7.291  13.033
 1719TIP3    H155625   0.942   7.353  13.009
 1719TIP3    H255626   0.919   7.223  13.082
 1720TIP3   OH255627   1.165   6.914  12.959
 1720TIP3    H155628   1.163   6.905  13.054
 1720TIP3    H255629   1.078   6.887  12.930
 1721TIP3   OH255630   1.147   7.074  11.836
 1721TIP3    H155631   1.205   7.026  11.778
 1721TIP3    H255632   1.063   7.077  11.789
 1722TIP3   OH255633   0.195   7.190  13.065
 1722TIP3    H155634   0.149   7.204  12.982
 1722TIP3    H255635   0.217   7.097  13.064
 1723TIP3   OH255636   1.244   6.009  13.065
 1723TIP3    H155637   1.310   5.940  13.054
 1723TIP3    H255638   1.170   5.981  13.012
 1724TIP3   OH255639   1.534   5.961  13.197
 1724TIP3    H155640   1.450   6.006  13.207
 1724TIP3    H255641   1.516   5.893  13.132
 1725TIP3   OH255642   1.466   6.432  12.694
 1725TIP3    H155643   1.414   6.355  12.672
 1725TIP3    H255644   1.513   6.453  12.614
 1726TIP3   OH255645   0.427   6.938  11.904
 1726TIP3    H155646   0.382   7.018  11.877
 1726TIP3    H255647   0.370   6.901  11.971
 1727TIP3   OH255648   0.078   6.286  11.827
 1727TIP3    H155649   0.166   6.299  11.791
 1727TIP3    H255650   0.039   6.219  11.771
 1728TIP3   OH255651   0.082   7.321  13.472
 1728TIP3    H155652   0.129   7.246  13.436
 1728TIP3    H255653   0.060   7.374  13.396
 1729TIP3   OH255654   0.710   7.248  13.607
 1729TIP3    H155655   0.793   7.276  13.567
 1729TIP3    H255656   0.650   7.236  13.533
 1730TIP3   OH255657   0.969   7.331  11.710
 1730TIP3    H155658   0.937   7.241  11.717
 1730TIP3    H255659   1.008   7.336  11.623
 1731TIP3   OH255660   1.320   7.158  13.566
 1731TIP3    H155661   1.289   7.133  13.479
 1731TIP3    H255662   1.391   7.221  13.549
 1732TIP3   OH255663   1.404   6.798  13.155
 1732TIP3    H155664   1.469   6.867  13.169
 1732TIP3    H255665   1.322   6.837  13.185
 1733TIP3   OH255666   1.836   6.677  11.772
 1733TIP3    H155667   1.815   6.647  11.683
 1733TIP3    H255668   1.806   6.767  11.774
 1734TIP3   OH255669   0.652   6.173  13.314
 1734TIP3    H155670   0.628   6.101  13.255
 1734TIP3    H255671   0.655   6.250  13.257
 1735TIP3   OH255672   0.576   6.005  13.110
 1735TIP3    H155673   0.605   5.997  13.019
 1735TIP3    H255674   0.506   5.940  13.119
 1736TIP3   OH255675   1.294   6.269  13.626
 1736TIP3    H155676   1.241   6.200  13.587
 1736TIP3    H255677   1.292   6.340  13.561
 1737TIP3   OH255678   1.381   6.556  13.310
 1737TIP3    H155679   1.287   6.572  13.316
 1737TIP3    H255680   1.420   6.624  13.365
 1738TIP3   OH255681   0.454   6.172  13.522
 1738TIP3    H155682   0.395   6.101  13.497
 1738TIP3    H255683   0.512   6.183  13.447
 1739TIP3   OH255684   0.617   5.725  13.267
 1739TIP3    H155685   0.607   5.743  13.174
 1739TIP3    H255686   0.528   5.730  13.302
 1740TIP3   OH255687   0.852   6.117  13.503
 1740TIP3    H155688   0.785   6.119  13.571
 1740TIP3    H255689   0.805   6.131  13.421
 1741TIP3   OH255690   1.131   6.101  13.474
 1741TIP3    H155691   1.038   6.120  13.483
 1741TIP3    H255692   1.135   6.023  13.419
 1742TIP3   OH255693   0.281   5.962  13.464
 1742TIP3    H155694   0.337   5.911  13.406
 1742TIP3    H255695   0.197   5.916  13.463
 1743TIP3   OH255696   0.844   5.704  13.427
 1743TIP3    H155697   0.912   5.683  13.363
 1743TIP3    H255698   0.763   5.706  13.376
 1744TIP3   OH255699   0.929   5.877  13.616
 1744TIP3    H155700   0.892   5.809  13.559
 1744TIP3    H255701   0.911   5.959  13.570
 1745TIP3   OH255702   0.666   7.567  11.867
 1745TIP3    H155703   0.724   7.576  11.943
 1745TIP3    H255704   0.714   7.511  11.807
 1746TIP3   OH255705   0.156   7.016  11.926
 1746TIP3    H155706   0.178   6.959  12.000
 1746TIP3    H255707   0.119   6.956  11.860
 1747TIP3   OH255708   0.228   7.807  12.526
 1747TIP3    H155709   0.145   7.801  12.479
 1747TIP3    H255710   0.294   7.780  12.462
 1748TIP3   OH255711   0.162   7.216  12.582
 1748TIP3    H155712   0.167   7.157  12.657
 1748TIP3    H255713   0.252   7.224  12.551
 1749TIP3   OH255714   1.658   6.979  13.575
 1749TIP3    H155715   1.589   7.017  13.521
 1749TIP3    H255716   1.736   7.030  13.554
 1750TIP3   OH255717   1.833   6.568  12.362
 1750TIP3    H155718   1.740   6.547  12.377
 1750TIP3    H255719   1.832   6.624  12.285
 1751TIP3   OH255720   1.768   6.631  12.039
 1751TIP3    H155721   1.803   6.630  11.950
 1751TIP3    H255722   1.705   6.703  12.039
 1752TIP3   OH255723   1.651   6.303  11.848
 1752TIP3    H155724   1.642   6.379  11.790
 1752TIP3    H255725   1.568   6.298  11.895
 1753TIP3   OH255726   1.564   6.469  12.432
 1753TIP3    H155727   1.564   6.388  12.382
 1753TIP3    H255728   1.501   6.525  12.386
 1754TIP3   OH255729   1.707   6.710  13.260
 1754TIP3    H155730   1.725   6.688  13.169
 1754TIP3    H255731   1.682   6.803  13.257
 1755TIP3   OH255732   1.815   6.353  13.297
 1755TIP3    H155733   1.796   6.445  13.282
 1755TIP3    H255734   1.730   6.310  13.297
 1756TIP3   OH255735   1.531   5.793  11.638
 1756TIP3    H155736   1.554   5.813  11.729
 1756TIP3    H255737   1.614   5.780  11.594
 1757TIP3   OH255738   1.561   6.245  12.267
 1757TIP3    H155739   1.546   6.151  12.279
 1757TIP3    H255740   1.639   6.251  12.212
 1758TIP3   OH255741   1.619   6.239  12.918
 1758TIP3    H155742   1.625   6.277  12.830
 1758TIP3    H255743   1.536   6.191  12.917
 1759TIP3   OH255744   1.534   6.474  13.047
 1759TIP3    H155745   1.531   6.382  13.019
 1759TIP3    H255746   1.619   6.506  13.017
 1760TIP3   OH255747   0.067   6.141  13.458
 1760TIP3    H155748   0.151   6.094  13.460
 1760TIP3    H255749   0.020   6.103  13.384
 1761TIP3   OH255750   0.130   6.064  12.701
 1761TIP3    H155751   0.225   6.071  12.692
 1761TIP3    H255752   0.101   6.153  12.722
 1762TIP3   OH255753   0.043   6.368  12.703
 1762TIP3    H155754   8.102   6.326  12.690
 1762TIP3    H255755   0.074   6.388  12.615
 1763TIP3   OH255756   1.751   5.947  13.395
 1763TIP3    H155757   1.700   5.949  13.314
 1763TIP3    H255758   1.770   5.855  13.409
 1764TIP3   OH255759   8.116   5.927  12.257
 1764TIP3    H155760   8.058   5.947  12.183
 1764TIP3    H255761   0.016   5.847  12.232
 1765TIP3   OH255762   0.017   5.964  13.257
 1765TIP3    H155763   0.057   5.884  13.292
 1765TIP3    H255764   8.131   5.940  13.170
 1766TIP3   OH255765   0.236   7.079  13.473
 1766TIP3    H155766   0.241   7.015  13.402
 1766TIP3    H255767   0.191   7.032  13.543
 1767TIP3   OH255768   0.627   7.199  13.089
 1767TIP3    H155769   0.614   7.128  13.026
 1767TIP3    H255770   0.717   7.228  13.074
 1768TIP3   OH255771   0.992   7.404  13.466
 1768TIP3    H155772   1.019   7.317  13.493
 1768TIP3    H255773   1.063   7.435  13.410
 1769TIP3   OH255774   1.222   7.478  13.319
 1769TIP3    H155775   1.231   7.437  13.232
 1769TIP3    H255776   1.307   7.462  13.361
 1770TIP3   OH255777   0.299   7.470  13.120
 1770TIP3    H155778   0.257   7.505  13.041
 1770TIP3    H255779   0.280   7.535  13.187
 1771TIP3   OH255780   0.550   7.435  12.958
 1771TIP3    H155781   0.562   7.529  12.945
 1771TIP3    H255782   0.603   7.394  12.891
 1772TIP3   OH255783   1.004   7.526  12.944
 1772TIP3    H155784   0.943   7.511  12.871
 1772TIP3    H255785   1.060   7.597  12.914
 1773TIP3   OH255786   1.223   7.372  13.065
 1773TIP3    H155787   1.175   7.421  12.999
 1773TIP3    H255788   1.263   7.300  13.017
 1774TIP3   OH255789   0.306   7.340  12.855
 1774TIP3    H155790   0.282   7.255  12.817
 1774TIP3    H255791   0.347   7.388  12.784
 1775TIP3   OH255792   0.668   7.292  12.750
 1775TIP3    H155793   0.607   7.253  12.687
 1775TIP3    H255794   0.729   7.222  12.772
 1776TIP3   OH255795   0.288   7.261  11.958
 1776TIP3    H155796   0.225   7.197  11.923
 1776TIP3    H255797   0.327   7.218  12.034
 1777TIP3   OH255798   0.465   5.862  11.888
 1777TIP3    H155799   0.379   5.855  11.848
 1777TIP3    H255800   0.478   5.779  11.933
 1778TIP3   OH255801   0.828   5.878  12.127
 1778TIP3    H155802   0.838   5.784  12.118
 1778TIP3    H255803   0.783   5.905  12.047
 1779TIP3   OH255804   1.051   7.451  11.940
 1779TIP3    H155805   1.146   7.439  11.938
 1779TIP3    H255806   1.020   7.407  11.861
 1780TIP3   OH255807   0.415   7.446  11.793
 1780TIP3    H155808   0.366   7.385  11.848
 1780TIP3    H255809   0.443   7.394  11.717
 1781TIP3   OH255810   3.086   6.650  12.465
 1781TIP3    H155811   3.116   6.740  12.481
 1781TIP3    H255812   3.034   6.655  12.385
 1782TIP3   OH255813   2.941   6.517  12.785
 1782TIP3    H155814   2.891   6.436  12.791
 1782TIP3    H255815   2.974   6.519  12.695
 1783TIP3   OH255816   2.225   6.658  12.966
 1783TIP3    H155817   2.310   6.634  12.928
 1783TIP3    H255818   2.228   6.753  12.971
 1784TIP3   OH255819   1.941   6.315  12.325
 1784TIP3    H155820   1.902   6.402  12.335
 1784TIP3    H255821   1.923   6.291  12.234
 1785TIP3   OH255822   2.036   6.607  12.555
 1785TIP3    H155823   1.973   6.614  12.483
 1785TIP3    H255824   2.089   6.686  12.547
 1786TIP3   OH255825   3.007   7.246  12.678
 1786TIP3    H155826   3.098   7.275  12.668
 1786TIP3    H255827   2.977   7.228  12.589
 1787TIP3   OH255828   2.839   6.760  12.874
 1787TIP3    H155829   2.757   6.781  12.830
 1787TIP3    H255830   2.868   6.678  12.834
 1788TIP3   OH255831   3.732   5.984  12.935
 1788TIP3    H155832   3.816   6.026  12.955
 1788TIP3    H255833   3.752   5.925  12.862
 1789TIP3   OH255834   2.121   6.339  12.533
 1789TIP3    H155835   2.122   6.432  12.554
 1789TIP3    H255836   2.071   6.333  12.452
 1790TIP3   OH255837   2.602   6.427  12.725
 1790TIP3    H155838   2.674   6.378  12.764
 1790TIP3    H255839   2.607   6.405  12.632
 1791TIP3   OH255840   3.729   6.251  13.207
 1791TIP3    H155841   3.663   6.293  13.152
 1791TIP3    H255842   3.791   6.213  13.145
 1792TIP3   OH255843   2.272   6.006  12.799
 1792TIP3    H155844   2.355   6.031  12.839
 1792TIP3    H255845   2.273   5.910  12.799
 1793TIP3   OH255846   3.418   6.068  12.555
 1793TIP3    H155847   3.342   6.088  12.500
 1793TIP3    H255848   3.407   5.975  12.577
 1794TIP3   OH255849   2.331   6.263  12.718
 1794TIP3    H155850   2.355   6.339  12.772
 1794TIP3    H255851   2.415   6.230  12.684
 1795TIP3   OH255852   3.503   5.942  13.087
 1795TIP3    H155853   3.457   5.865  13.053
 1795TIP3    H255854   3.581   5.949  13.032
 1796TIP3   OH255855   2.957   6.629  12.212
 1796TIP3    H155856   2.906   6.693  12.163
 1796TIP3    H255857   2.907   6.548  12.205
 1797TIP3   OH255858   2.980   6.307  11.812
 1797TIP3    H155859   3.063   6.355  11.810
 1797TIP3    H255860   2.966   6.287  11.904
 1798TIP3   OH255861   3.602   6.659  12.986
 1798TIP3    H155862   3.547   6.735  12.965
 1798TIP3    H255863   3.668   6.657  12.917
 1799TIP3   OH255864   3.291   6.636  12.267
 1799TIP3    H155865   3.310   6.728  12.285
 1799TIP3    H255866   3.229   6.610  12.335
 1800TIP3   OH255867   3.274   6.467  13.124
 1800TIP3    H155868   3.280   6.547  13.071
 1800TIP3    H255869   3.190   6.429  13.099
 1801TIP3   OH255870   2.501   6.604  12.911
 1801TIP3    H155871   2.537   6.565  12.831
 1801TIP3    H255872   2.482   6.694  12.887
 1802TIP3   OH255873   3.061   7.060  12.934
 1802TIP3    H155874   3.157   7.065  12.938
 1802TIP3    H255875   3.041   6.971  12.964
 1803TIP3   OH255876   3.194   6.557  12.024
 1803TIP3    H155877   3.244   6.583  12.101
 1803TIP3    H255878   3.107   6.596  12.037
 1804TIP3   OH255879   2.258   6.592  13.229
 1804TIP3    H155880   2.259   6.675  13.276
 1804TIP3    H255881   2.256   6.617  13.136
 1805TIP3   OH255882   2.969   7.212  12.409
 1805TIP3    H155883   3.049   7.217  12.356
 1805TIP3    H255884   2.905   7.171  12.352
 1806TIP3   OH255885   3.537   5.725  12.007
 1806TIP3    H155886   3.445   5.698  12.002
 1806TIP3    H255887   3.537   5.793  12.075
 1807TIP3   OH255888   2.058   6.845  13.150
 1807TIP3    H155889   1.991   6.859  13.083
 1807TIP3    H255890   2.138   6.881  13.111
 1808TIP3   OH255891   2.882   7.223  13.106
 1808TIP3    H155892   2.889   7.287  13.177
 1808TIP3    H255893   2.851   7.143  13.148
 1809TIP3   OH255894   3.384   6.355  13.371
 1809TIP3    H155895   3.354   6.409  13.297
 1809TIP3    H255896   3.387   6.266  13.336
 1810TIP3   OH255897   3.105   6.147  13.164
 1810TIP3    H155898   3.041   6.102  13.108
 1810TIP3    H255899   3.112   6.235  13.127
 1811TIP3   OH255900   3.395   6.661  11.625
 1811TIP3    H155901   3.331   6.618  11.682
 1811TIP3    H255902   3.473   6.671  11.681
 1812TIP3   OH255903   2.778   6.088  11.816
 1812TIP3    H155904   2.764   6.114  11.907
 1812TIP3    H255905   2.761   5.994  11.815
 1813TIP3   OH255906   2.484   6.329  13.019
 1813TIP3    H155907   2.549   6.263  12.995
 1813TIP3    H255908   2.509   6.407  12.968
 1814TIP3   OH255909   2.216   6.275  13.110
 1814TIP3    H155910   2.289   6.337  13.117
 1814TIP3    H255911   2.248   6.208  13.050
 1815TIP3   OH255912   1.974   6.108  12.500
 1815TIP3    H155913   1.927   6.028  12.476
 1815TIP3    H255914   1.946   6.172  12.434
 1816TIP3   OH255915   2.059   6.099  12.042
 1816TIP3    H155916   2.116   6.022  12.047
 1816TIP3    H255917   1.971   6.063  12.029
 1817TIP3   OH255918   3.030   6.376  13.021
 1817TIP3    H155919   3.009   6.431  12.946
 1817TIP3    H255920   2.986   6.293  13.003
 1818TIP3   OH255921   2.466   6.383  11.909
 1818TIP3    H155922   2.378   6.347  11.898
 1818TIP3    H255923   2.499   6.342  11.989
 1819TIP3   OH255924   2.229   6.821  13.386
 1819TIP3    H155925   2.310   6.871  13.381
 1819TIP3    H255926   2.174   6.858  13.317
 1820TIP3   OH255927   2.789   6.784  12.057
 1820TIP3    H155928   2.714   6.737  12.020
 1820TIP3    H255929   2.750   6.840  12.125
 1821TIP3   OH255930   3.219   6.079  11.865
 1821TIP3    H155931   3.143   6.025  11.886
 1821TIP3    H255932   3.219   6.147  11.933
 1822TIP3   OH255933   2.854   6.799  13.264
 1822TIP3    H155934   2.806   6.731  13.216
 1822TIP3    H255935   2.929   6.820  13.209
 1823TIP3   OH255936   3.241   6.282  12.046
 1823TIP3    H155937   3.297   6.265  12.122
 1823TIP3    H255938   3.229   6.377  12.046
 1824TIP3   OH255939   2.971   6.971  11.937
 1824TIP3    H155940   2.937   7.049  11.979
 1824TIP3    H255941   2.915   6.900  11.968
 1825TIP3   OH255942   1.989   6.448  13.093
 1825TIP3    H155943   2.062   6.506  13.070
 1825TIP3    H255944   1.914   6.484  13.045
 1826TIP3   OH255945   2.654   6.550  13.398
 1826TIP3    H155946   2.622   6.461  13.385
 1826TIP3    H255947   2.694   6.573  13.314
 1827TIP3   OH255948   3.166   7.110  13.264
 1827TIP3    H155949   3.173   7.131  13.170
 1827TIP3    H255950   3.222   7.033  13.275
 1828TIP3   OH255951   3.672   6.354  12.075
 1828TIP3    H155952   3.665   6.318  11.987
 1828TIP3    H255953   3.684   6.448  12.062
 1829TIP3   OH255954   3.240   6.667  12.934
 1829TIP3    H155955   3.207   6.654  12.845
 1829TIP3    H255956   3.309   6.733  12.924
 1830TIP3   OH255957   2.112   6.746  11.725
 1830TIP3    H155958   2.152   6.726  11.810
 1830TIP3    H255959   2.018   6.736  11.740
 1831TIP3   OH255960   2.673   6.923  12.263
 1831TIP3    H155961   2.620   6.991  12.221
 1831TIP3    H255962   2.610   6.873  12.315
 1832TIP3   OH255963   2.712   7.172  12.854
 1832TIP3    H155964   2.662   7.212  12.783
 1832TIP3    H255965   2.647   7.119  12.902
 1833TIP3   OH255966   3.036   6.812  13.052
 1833TIP3    H155967   2.965   6.788  12.993
 1833TIP3    H255968   3.111   6.763  13.020
 1834TIP3   OH255969   3.194   6.927  11.771
 1834TIP3    H155970   3.255   6.928  11.845
 1834TIP3    H255971   3.108   6.937  11.811
 1835TIP3   OH255972   2.087   6.035  13.170
 1835TIP3    H155973   2.024   5.972  13.135
 1835TIP3    H255974   2.165   5.983  13.189
 1836TIP3   OH255975   2.705   7.134  11.614
 1836TIP3    H155976   2.636   7.098  11.558
 1836TIP3    H255977   2.691   7.093  11.699
 1837TIP3   OH255978   2.270   6.828  12.036
 1837TIP3    H155979   2.226   6.805  12.118
 1837TIP3    H255980   2.316   6.909  12.055
 1838TIP3   OH255981   2.864   7.203  12.059
 1838TIP3    H155982   2.773   7.191  12.086
 1838TIP3    H255983   2.883   7.295  12.079
 1839TIP3   OH255984   3.364   6.104  13.260
 1839TIP3    H155985   3.276   6.106  13.222
 1839TIP3    H255986   3.415   6.049  13.200
 1840TIP3   OH255987   3.342   6.304  12.696
 1840TIP3    H155988   3.265   6.253  12.672
 1840TIP3    H255989   3.308   6.378  12.746
 1841TIP3   OH255990   2.216   6.259  11.875
 1841TIP3    H155991   2.158   6.221  11.942
 1841TIP3    H255992   2.201   6.206  11.797
 1842TIP3   OH255993   2.910   7.309  11.637
 1842TIP3    H155994   2.836   7.257  11.606
 1842TIP3    H255995   2.924   7.280  11.727
 1843TIP3   OH255996   3.125   7.272  13.491
 1843TIP3    H155997   3.133   7.216  13.414
 1843TIP3    H255998   3.200   7.332  13.485
 1844TIP3   OH255999   2.020   6.669  13.479
 1844TIP3    H156000   2.099   6.715  13.452
 1844TIP3    H256001   1.952   6.702  13.419
 1845TIP3   OH256002   2.326   6.934  11.703
 1845TIP3    H156003   2.375   6.895  11.775
 1845TIP3    H256004   2.393   6.966  11.643
 1846TIP3   OH256005   2.629   6.769  13.561
 1846TIP3    H156006   2.674   6.829  13.501
 1846TIP3    H256007   2.628   6.685  13.514
 1847TIP3   OH256008   3.228   6.871  11.502
 1847TIP3    H156009   3.218   6.894  11.595
 1847TIP3    H256010   3.139   6.878  11.466
 1848TIP3   OH256011   3.333   6.891  13.231
 1848TIP3    H156012   3.411   6.933  13.195
 1848TIP3    H256013   3.279   6.871  13.155
 1849TIP3   OH256014   2.098   6.408  13.352
 1849TIP3    H156015   2.168   6.459  13.312
 1849TIP3    H256016   2.060   6.467  13.418
 1850TIP3   OH256017   2.554   6.647  11.981
 1850TIP3    H156018   2.469   6.691  11.990
 1850TIP3    H256019   2.531   6.556  11.960
 1851TIP3   OH256020   2.437   6.385  13.287
 1851TIP3    H156021   2.406   6.473  13.265
 1851TIP3    H256022   2.478   6.353  13.206
 1852TIP3   OH256023   2.687   6.374  11.748
 1852TIP3    H156024   2.609   6.360  11.801
 1852TIP3    H256025   2.691   6.469  11.736
 1853TIP3   OH256026   3.073   6.676  13.613
 1853TIP3    H156027   3.158   6.693  13.570
 1853TIP3    H256028   3.018   6.642  13.543
 1854TIP3   OH256029   3.638   6.745  11.728
 1854TIP3    H156030   3.658   6.743  11.634
 1854TIP3    H256031   3.690   6.817  11.762
 1855TIP3   OH256032   2.740   6.573  13.130
 1855TIP3    H156033   2.801   6.509  13.092
 1855TIP3    H256034   2.682   6.597  13.058
 1856TIP3   OH256035   3.266   6.369  13.623
 1856TIP3    H156036   3.191   6.314  13.602
 1856TIP3    H256037   3.316   6.373  13.541
 1857TIP3   OH256038   3.304   6.737  13.462
 1857TIP3    H156039   3.289   6.798  13.390
 1857TIP3    H256040   3.380   6.686  13.436
 1858TIP3   OH256041   2.323   6.281  13.520
 1858TIP3    H156042   2.300   6.192  13.495
 1858TIP3    H256043   2.363   6.318  13.441
 1859TIP3   OH256044   3.030   6.129  13.433
 1859TIP3    H156045   2.963   6.074  13.392
 1859TIP3    H256046   3.091   6.150  13.362
 1860TIP3   OH256047   2.241   6.014  13.491
 1860TIP3    H156048   2.218   5.938  13.437
 1860TIP3    H256049   2.327   5.993  13.526
 1861TIP3   OH256050   2.645   7.618  11.961
 1861TIP3    H156051   2.650   7.540  12.015
 1861TIP3    H256052   2.579   7.597  11.894
 1862TIP3   OH256053   3.698   6.593  12.388
 1862TIP3    H156054   3.695   6.669  12.331
 1862TIP3    H256055   3.770   6.610  12.449
 1863TIP3   OH256056   3.732   6.643  12.001
 1863TIP3    H156057   3.679   6.673  11.927
 1863TIP3    H256058   3.735   6.718  12.061
 1864TIP3   OH256059   3.637   6.255  11.813
 1864TIP3    H156060   3.581   6.306  11.754
 1864TIP3    H256061   3.591   6.172  11.823
 1865TIP3   OH256062   3.523   6.353  12.457
 1865TIP3    H156063   3.491   6.314  12.375
 1865TIP3    H256064   3.556   6.439  12.432
 1866TIP3   OH256065   2.018   6.529  12.814
 1866TIP3    H156066   2.018   6.553  12.721
 1866TIP3    H256067   2.093   6.575  12.851
 1867TIP3   OH256068   3.542   6.685  13.326
 1867TIP3    H156069   3.617   6.637  13.292
 1867TIP3    H256070   3.505   6.729  13.249
 1868TIP3   OH256071   3.655   6.352  13.464
 1868TIP3    H156072   3.567   6.371  13.432
 1868TIP3    H256073   3.701   6.317  13.387
 1869TIP3   OH256074   3.485   6.026  11.824
 1869TIP3    H156075   3.480   5.934  11.849
 1869TIP3    H256076   3.395   6.057  11.824
 1870TIP3   OH256077   3.474   6.213  12.223
 1870TIP3    H156078   3.482   6.118  12.215
 1870TIP3    H256079   3.544   6.247  12.167
 1871TIP3   OH256080   3.559   6.181  12.857
 1871TIP3    H156081   3.618   6.114  12.890
 1871TIP3    H256082   3.545   6.240  12.931
 1872TIP3   OH256083   3.535   6.390  13.048
 1872TIP3    H156084   3.444   6.402  13.077
 1872TIP3    H256085   3.563   6.477  13.022
 1873TIP3   OH256086   1.980   6.130  13.403
 1873TIP3    H156087   2.059   6.090  13.440
 1873TIP3    H256088   1.916   6.060  13.400
 1874TIP3   OH256089   3.797   5.738  13.564
 1874TIP3    H156090   3.848   5.664  13.531
 1874TIP3    H256091   3.826   5.812  13.510
 1875TIP3   OH256092   3.493   5.911  12.239
 1875TIP3    H156093   3.552   5.891  12.311
 1875TIP3    H256094   3.406   5.889  12.272
 1876TIP3   OH256095   2.131   5.906  12.585
 1876TIP3    H156096   2.148   5.829  12.639
 1876TIP3    H256097   2.139   5.874  12.495
 1877TIP3   OH256098   2.024   6.206  12.782
 1877TIP3    H156099   1.944   6.156  12.794
 1877TIP3    H256100   1.997   6.297  12.793
 1878TIP3   OH256101   3.640   5.942  13.362
 1878TIP3    H156102   3.617   6.011  13.299
 1878TIP3    H256103   3.616   5.861  13.318
 1879TIP3   OH256104   3.814   5.957  11.826
 1879TIP3    H156105   3.719   5.955  11.830
 1879TIP3    H256106   3.842   5.901  11.899
 1880TIP3   OH256107   1.874   5.879  13.096
 1880TIP3    H156108   1.930   5.803  13.111
 1880TIP3    H256109   1.802   5.846  13.042
 1881TIP3   OH256110   2.911   7.416  13.326
 1881TIP3    H156111   2.997   7.412  13.369
 1881TIP3    H256112   2.921   7.485  13.260
 1882TIP3   OH256113   3.176   7.583  13.364
 1882TIP3    H156114   3.204   7.556  13.277
 1882TIP3    H256115   3.244   7.643  13.395
 1883TIP3   OH256116   3.543   5.677  13.266
 1883TIP3    H156117   3.484   5.689  13.193
 1883TIP3    H256118   3.609   5.615  13.234
 1884TIP3   OH256119   2.851   7.442  12.892
 1884TIP3    H156120   2.781   7.481  12.841
 1884TIP3    H256121   2.882   7.513  12.949
 1885TIP3   OH256122   3.128   7.338  12.930
 1885TIP3    H156123   3.152   7.429  12.908
 1885TIP3    H256124   3.210   7.289  12.921
 1886TIP3   OH256125   3.336   5.811  12.601
 1886TIP3    H156126   3.367   5.732  12.555
 1886TIP3    H256127   3.249   5.788  12.633
 1887TIP3   OH256128   3.647   5.817  12.485
 1887TIP3    H156129   3.580   5.749  12.491
 1887TIP3    H256130   3.730   5.772  12.497
 1888TIP3   OH256131   2.122   5.943  11.722
 1888TIP3    H156132   2.055   5.878  11.743
 1888TIP3    H256133   2.195   5.922  11.781
 1889TIP3   OH256134   2.212   5.790  13.347
 1889TIP3    H156135   2.161   5.732  13.290
 1889TIP3    H256136   2.290   5.739  13.369
 1890TIP3   OH256137   2.458   5.649  13.444
 1890TIP3    H156138   2.550   5.635  13.424
 1890TIP3    H256139   2.421   5.561  13.450
 1891TIP3   OH256140   4.890   6.583  12.893
 1891TIP3    H156141   4.938   6.664  12.910
 1891TIP3    H256142   4.810   6.611  12.849
 1892TIP3   OH256143   4.080   6.524  12.928
 1892TIP3    H156144   4.079   6.430  12.908
 1892TIP3    H256145   4.166   6.553  12.898
 1893TIP3   OH256146   4.273   6.961  12.803
 1893TIP3    H156147   4.201   6.922  12.754
 1893TIP3    H256148   4.343   6.974  12.739
 1894TIP3   OH256149   3.798   6.339  12.331
 1894TIP3    H156150   3.761   6.426  12.347
 1894TIP3    H256151   3.768   6.317  12.242
 1895TIP3   OH256152   3.924   6.597  12.561
 1895TIP3    H156153   3.959   6.509  12.545
 1895TIP3    H256154   4.001   6.649  12.584
 1896TIP3   OH256155   5.649   6.049  12.777
 1896TIP3    H156156   5.632   5.993  12.853
 1896TIP3    H256157   5.727   6.012  12.737
 1897TIP3   OH256158   5.099   6.310  12.796
 1897TIP3    H156159   5.076   6.217  12.792
 1897TIP3    H256160   5.036   6.347  12.858
 1898TIP3   OH256161   5.085   6.005  12.348
 1898TIP3    H156162   5.073   5.927  12.403
 1898TIP3    H256163   5.170   5.993  12.307
 1899TIP3   OH256164   4.420   6.430  12.608
 1899TIP3    H156165   4.485   6.360  12.615
 1899TIP3    H256166   4.335   6.385  12.612
 1900TIP3   OH256167   5.585   6.160  13.113
 1900TIP3    H156168   5.502   6.135  13.153
 1900TIP3    H256169   5.620   6.078  13.078
 1901TIP3   OH256170   4.531   6.771  12.947
 1901TIP3    H156171   4.500   6.859  12.967
 1901TIP3    H256172   4.614   6.784  12.901
 1902TIP3   OH256173   5.404   6.114  12.479
 1902TIP3    H156174   5.361   6.089  12.397
 1902TIP3    H256175   5.453   6.036  12.506
 1903TIP3   OH256176   4.328   7.005  13.072
 1903TIP3    H156177   4.313   6.991  12.978
 1903TIP3    H256178   4.244   6.988  13.113
 1904TIP3   OH256179   5.283   5.989  12.953
 1904TIP3    H156180   5.203   6.001  12.902
 1904TIP3    H256181   5.288   5.895  12.970
 1905TIP3   OH256182   5.376   6.946  13.168
 1905TIP3    H156183   5.358   6.893  13.090
 1905TIP3    H256184   5.321   7.024  13.158
 1906TIP3   OH256185   4.853   6.395  11.841
 1906TIP3    H156186   4.917   6.439  11.897
 1906TIP3    H256187   4.783   6.369  11.901
 1907TIP3   OH256188   5.578   6.556  12.917
 1907TIP3    H156189   5.502   6.613  12.931
 1907TIP3    H256190   5.628   6.598  12.847
 1908TIP3   OH256191   5.157   6.534  13.184
 1908TIP3    H156192   5.140   6.616  13.138
 1908TIP3    H256193   5.091   6.474  13.150
 1909TIP3   OH256194   4.338   6.649  12.454
 1909TIP3    H156195   4.323   6.622  12.363
 1909TIP3    H256196   4.375   6.572  12.496
 1910TIP3   OH256197   4.343   6.590  12.835
 1910TIP3    H156198   4.385   6.556  12.756
 1910TIP3    H256199   4.406   6.652  12.871
 1911TIP3   OH256200   4.442   6.958  13.352
 1911TIP3    H156201   4.382   7.032  13.358
 1911TIP3    H256202   4.455   6.946  13.258
 1912TIP3   OH256203   5.059   6.489  11.994
 1912TIP3    H156204   5.047   6.574  12.036
 1912TIP3    H256205   5.123   6.504  11.925
 1913TIP3   OH256206   4.120   6.555  13.241
 1913TIP3    H156207   4.127   6.619  13.171
 1913TIP3    H256208   4.092   6.474  13.199
 1914TIP3   OH256209   4.255   7.179  13.360
 1914TIP3    H156210   4.293   7.223  13.284
 1914TIP3    H256211   4.189   7.121  13.323
 1915TIP3   OH256212   5.481   5.621  11.974
 1915TIP3    H156213   5.533   5.566  12.032
 1915TIP3    H256214   5.390   5.594  11.989
 1916TIP3   OH256215   4.276   6.572  12.184
 1916TIP3    H156216   4.198   6.617  12.151
 1916TIP3    H256217   4.244   6.488  12.216
 1917TIP3   OH256218   5.489   7.245  13.409
 1917TIP3    H156219   5.514   7.271  13.320
 1917TIP3    H256220   5.408   7.291  13.426
 1918TIP3   OH256221   5.303   6.320  13.396
 1918TIP3    H156222   5.242   6.371  13.342
 1918TIP3    H256223   5.317   6.239  13.346
 1919TIP3   OH256224   4.093   6.986  13.241
 1919TIP3    H156225   4.086   6.930  13.319
 1919TIP3    H256226   4.024   6.954  13.183
 1920TIP3   OH256227   5.074   6.160  13.260
 1920TIP3    H156228   5.015   6.085  13.260
 1920TIP3    H256229   5.027   6.227  13.211
 1921TIP3   OH256230   5.207   6.556  11.756
 1921TIP3    H156231   5.186   6.624  11.692
 1921TIP3    H256232   5.302   6.559  11.764
 1922TIP3   OH256233   4.351   6.332  12.958
 1922TIP3    H156234   4.268   6.292  12.932
 1922TIP3    H256235   4.347   6.420  12.920
 1923TIP3   OH256236   4.817   6.318  12.265
 1923TIP3    H156237   4.721   6.317  12.258
 1923TIP3    H256238   4.839   6.411  12.271
 1924TIP3   OH256239   4.769   6.339  13.521
 1924TIP3    H156240   4.750   6.371  13.432
 1924TIP3    H256241   4.787   6.246  13.509
 1925TIP3   OH256242   4.837   6.123  12.468
 1925TIP3    H156243   4.788   6.188  12.519
 1925TIP3    H256244   4.856   6.053  12.531
 1926TIP3   OH256245   4.077   6.300  13.140
 1926TIP3    H156246   4.050   6.213  13.169
 1926TIP3    H256247   4.083   6.293  13.045
 1927TIP3   OH256248   3.713   6.082  12.608
 1927TIP3    H156249   3.797   6.100  12.650
 1927TIP3    H256250   3.727   5.999  12.561
 1928TIP3   OH256251   4.970   6.384  13.058
 1928TIP3    H156252   4.931   6.452  13.003
 1928TIP3    H256253   4.894   6.339  13.097
 1929TIP3   OH256254   5.061   6.038  12.795
 1929TIP3    H156255   5.000   6.034  12.868
 1929TIP3    H256256   5.018   5.988  12.725
 1930TIP3   OH256257   4.189   6.143  11.708
 1930TIP3    H156258   4.234   6.198  11.772
 1930TIP3    H256259   4.258   6.110  11.651
 1931TIP3   OH256260   4.083   6.842  13.477
 1931TIP3    H156261   4.166   6.830  13.524
 1931TIP3    H256262   4.041   6.756  13.480
 1932TIP3   OH256263   4.681   6.262  12.654
 1932TIP3    H156264   4.630   6.183  12.674
 1932TIP3    H256265   4.693   6.305  12.739
 1933TIP3   OH256266   4.600   6.224  12.994
 1933TIP3    H156267   4.517   6.270  12.982
 1933TIP3    H256268   4.575   6.134  13.015
 1934TIP3   OH256269   5.375   6.765  12.952
 1934TIP3    H156270   5.435   6.818  12.900
 1934TIP3    H256271   5.291   6.773  12.907
 1935TIP3   OH256272   5.077   6.189  11.741
 1935TIP3    H156273   5.027   6.114  11.774
 1935TIP3    H256274   5.169   6.163  11.751
 1936TIP3   OH256275   5.065   6.225  12.148
 1936TIP3    H156276   5.160   6.210  12.146
 1936TIP3    H256277   5.053   6.304  12.094
 1937TIP3   OH256278   4.160   6.719  12.651
 1937TIP3    H156279   4.219   6.711  12.576
 1937TIP3    H256280   4.208   6.680  12.724
 1938TIP3   OH256281   3.767   6.588  13.202
 1938TIP3    H156282   3.819   6.513  13.171
 1938TIP3    H256283   3.724   6.621  13.123
 1939TIP3   OH256284   4.574   6.555  13.357
 1939TIP3    H156285   4.504   6.504  13.315
 1939TIP3    H256286   4.627   6.588  13.285
 1940TIP3   OH256287   5.639   6.981  13.233
 1940TIP3    H156288   5.551   7.005  13.204
 1940TIP3    H256289   5.683   6.950  13.154
 1941TIP3   OH256290   3.961   6.506  11.903
 1941TIP3    H156291   4.023   6.568  11.943
 1941TIP3    H256292   3.875   6.538  11.931
 1942TIP3   OH256293   4.418   7.381  12.418
 1942TIP3    H156294   4.323   7.387  12.405
 1942TIP3    H256295   4.445   7.308  12.363
 1943TIP3   OH256296   5.579   7.383  11.913
 1943TIP3    H156297   5.570   7.456  11.853
 1943TIP3    H256298   5.491   7.369  11.947
 1944TIP3   OH256299   4.629   6.972  11.696
 1944TIP3    H156300   4.668   6.932  11.618
 1944TIP3    H256301   4.636   7.066  11.682
 1945TIP3   OH256302   4.519   6.968  12.039
 1945TIP3    H156303   4.575   6.985  12.115
 1945TIP3    H256304   4.436   7.010  12.061
 1946TIP3   OH256305   4.082   6.728  12.047
 1946TIP3    H156306   3.997   6.759  12.079
 1946TIP3    H256307   4.124   6.806  12.012
 1947TIP3   OH256308   4.877   6.023  12.985
 1947TIP3    H156309   4.893   6.017  13.080
 1947TIP3    H256310   4.798   5.971  12.971
 1948TIP3   OH256311   4.784   6.244  13.206
 1948TIP3    H156312   4.716   6.242  13.139
 1948TIP3    H256313   4.803   6.152  13.224
 1949TIP3   OH256314   4.842   5.887  12.250
 1949TIP3    H156315   4.827   5.823  12.320
 1949TIP3    H256316   4.810   5.843  12.171
 1950TIP3   OH256317   5.329   6.082  13.209
 1950TIP3    H156318   5.237   6.096  13.234
 1950TIP3    H256319   5.324   6.040  13.123
 1951TIP3   OH256320   5.264   6.464  12.650
 1951TIP3    H156321   5.232   6.553  12.633
 1951TIP3    H256322   5.197   6.425  12.706
 1952TIP3   OH256323   4.157   6.993  11.952
 1952TIP3    H156324   4.072   6.981  11.995
 1952TIP3    H256325   4.161   7.087  11.934
 1953TIP3   OH256326   3.911   6.246  11.794
 1953TIP3    H156327   3.943   6.329  11.829
 1953TIP3    H256328   3.816   6.251  11.803
 1954TIP3   OH256329   3.810   7.507  13.425
 1954TIP3    H156330   3.792   7.420  13.388
 1954TIP3    H256331   3.723   7.544  13.441
 1955TIP3   OH256332   4.292   7.279  13.613
 1955TIP3    H156333   4.382   7.246  13.618
 1955TIP3    H256334   4.261   7.251  13.527
 1956TIP3   OH256335   4.354   6.867  11.796
 1956TIP3    H156336   4.283   6.902  11.849
 1956TIP3    H256337   4.317   6.854  11.709
 1957TIP3   OH256338   4.605   6.791  13.500
 1957TIP3    H156339   4.569   6.853  13.438
 1957TIP3    H256340   4.602   6.706  13.454
 1958TIP3   OH256341   4.781   6.821  11.907
 1958TIP3    H156342   4.816   6.835  11.995
 1958TIP3    H256343   4.859   6.816  11.851
 1959TIP3   OH256344   4.009   6.573  13.497
 1959TIP3    H156345   4.060   6.560  13.416
 1959TIP3    H256346   3.922   6.539  13.475
 1960TIP3   OH256347   4.479   6.675  11.998
 1960TIP3    H156348   4.427   6.695  12.076
 1960TIP3    H256349   4.474   6.580  11.989
 1961TIP3   OH256350   4.370   6.419  13.235
 1961TIP3    H156351   4.281   6.453  13.249
 1961TIP3    H256352   4.364   6.372  13.152
 1962TIP3   OH256353   4.603   6.685  11.699
 1962TIP3    H156354   4.565   6.602  11.670
 1962TIP3    H256355   4.666   6.708  11.631
 1963TIP3   OH256356   5.486   6.592  11.758
 1963TIP3    H156357   5.518   6.581  11.669
 1963TIP3    H256358   5.548   6.654  11.798
 1964TIP3   OH256359   4.710   6.694  13.152
 1964TIP3    H156360   4.784   6.724  13.100
 1964TIP3    H256361   4.634   6.710  13.095
 1965TIP3   OH256362   5.080   6.233  13.581
 1965TIP3    H156363   5.005   6.197  13.534
 1965TIP3    H256364   5.143   6.254  13.512
 1966TIP3   OH256365   5.120   6.644  13.446
 1966TIP3    H156366   5.038   6.692  13.433
 1966TIP3    H256367   5.135   6.599  13.362
 1967TIP3   OH256368   4.860   6.079  13.498
 1967TIP3    H156369   4.785   6.022  13.518
 1967TIP3    H256370   4.879   6.063  13.406
 1968TIP3   OH256371   5.079   5.903  13.585
 1968TIP3    H156372   5.077   5.814  13.551
 1968TIP3    H256373   5.012   5.950  13.533
 1969TIP3   OH256374   5.509   7.351  13.154
 1969TIP3    H156375   5.531   7.324  13.065
 1969TIP3    H256376   5.450   7.425  13.143
 1970TIP3   OH256377   5.539   6.993  13.519
 1970TIP3    H156378   5.507   7.070  13.472
 1970TIP3    H256379   5.537   7.018  13.611
 1971TIP3   OH256380   5.513   6.514  12.493
 1971TIP3    H156381   5.459   6.592  12.480
 1971TIP3    H256382   5.583   6.522  12.428
 1972TIP3   OH256383   5.599   6.887  12.830
 1972TIP3    H156384   5.640   6.829  12.766
 1972TIP3    H256385   5.583   6.969  12.782
 1973TIP3   OH256386   5.409   6.291  11.908
 1973TIP3    H156387   5.443   6.367  11.860
 1973TIP3    H256388   5.391   6.225  11.841
 1974TIP3   OH256389   5.305   6.365  12.376
 1974TIP3    H156390   5.317   6.317  12.294
 1974TIP3    H256391   5.265   6.448  12.350
 1975TIP3   OH256392   3.827   6.589  12.824
 1975TIP3    H156393   3.854   6.614  12.735
 1975TIP3    H256394   3.910   6.570  12.869
 1976TIP3   OH256395   5.528   6.727  13.289
 1976TIP3    H156396   5.552   6.649  13.239
 1976TIP3    H256397   5.455   6.766  13.240
 1977TIP3   OH256398   5.530   6.403  13.534
 1977TIP3    H156399   5.454   6.386  13.478
 1977TIP3    H256400   5.597   6.343  13.503
 1978TIP3   OH256401   5.330   6.064  11.758
 1978TIP3    H156402   5.385   6.005  11.810
 1978TIP3    H256403   5.335   6.029  11.669
 1979TIP3   OH256404   5.340   6.209  12.158
 1979TIP3    H156405   5.368   6.118  12.160
 1979TIP3    H256406   5.372   6.242  12.074
 1980TIP3   OH256407   5.401   6.202  12.760
 1980TIP3    H156408   5.476   6.147  12.782
 1980TIP3    H256409   5.329   6.165  12.811
 1981TIP3   OH256410   5.380   6.393  13.093
 1981TIP3    H156411   5.312   6.453  13.124
 1981TIP3    H256412   5.332   6.323  13.049
 1982TIP3   OH256413   5.615   5.704  13.619
 1982TIP3    H156414   5.685   5.659  13.572
 1982TIP3    H256415   5.537   5.691  13.565
 1983TIP3   OH256416   5.333   5.943  12.253
 1983TIP3    H156417   5.396   5.891  12.303
 1983TIP3    H256418   5.291   5.880  12.195
 1984TIP3   OH256419   3.723   6.354  12.704
 1984TIP3    H156420   3.798   6.297  12.720
 1984TIP3    H256421   3.750   6.438  12.741
 1985TIP3   OH256422   5.488   5.970  13.411
 1985TIP3    H156423   5.429   5.997  13.340
 1985TIP3    H256424   5.508   5.878  13.392
 1986TIP3   OH256425   5.504   5.890  11.889
 1986TIP3    H156426   5.492   5.802  11.925
 1986TIP3    H256427   5.589   5.918  11.923
 1987TIP3   OH256428   4.363   7.279  13.130
 1987TIP3    H156429   4.324   7.329  13.059
 1987TIP3    H256430   4.379   7.192  13.093
 1988TIP3   OH256431   5.469   5.706  13.185
 1988TIP3    H156432   5.387   5.708  13.137
 1988TIP3    H256433   5.512   5.626  13.156
 1989TIP3   OH256434   3.956   7.464  13.016
 1989TIP3    H156435   3.964   7.456  12.921
 1989TIP3    H256436   3.882   7.408  13.039
 1990TIP3   OH256437   4.236   7.503  12.988
 1990TIP3    H156438   4.144   7.495  13.012
 1990TIP3    H256439   4.243   7.456  12.905
 1991TIP3   OH256440   4.253   7.316  12.789
 1991TIP3    H156441   4.205   7.253  12.736
 1991TIP3    H256442   4.340   7.319  12.750
 1992TIP3   OH256443   4.502   7.337  12.675
 1992TIP3    H156444   4.478   7.347  12.583
 1992TIP3    H256445   4.576   7.275  12.674
 1993TIP3   OH256446   4.895   5.901  12.612
 1993TIP3    H156447   4.818   5.852  12.639
 1993TIP3    H256448   4.954   5.835  12.576
 1994TIP3   OH256449   5.507   5.857  12.467
 1994TIP3    H156450   5.485   5.780  12.520
 1994TIP3    H256451   5.585   5.830  12.418
 1995TIP3   OH256452   5.084   5.751  12.479
 1995TIP3    H156453   5.050   5.673  12.435
 1995TIP3    H256454   5.168   5.724  12.516
 1996TIP3   OH256455   5.142   5.801  12.097
 1996TIP3    H156456   5.123   5.812  12.004
 1996TIP3    H256457   5.102   5.716  12.119
 1997TIP3   OH256458   4.105   5.896  11.824
 1997TIP3    H156459   4.185   5.845  11.809
 1997TIP3    H256460   4.058   5.848  11.893
 1998TIP3   OH256461   3.992   7.505  11.843
 1998TIP3    H156462   3.923   7.548  11.893
 1998TIP3    H256463   3.950   7.428  11.804
 1999TIP3   OH256464   5.046   5.668  13.454
 1999TIP3    H156465   4.981   5.702  13.392
 1999TIP3    H256466   5.075   5.586  13.416
 2000TIP3   OH256467   5.251   7.389  13.404
 2000TIP3    H156468   5.214   7.344  13.329
 2000TIP3    H256469   5.193   7.463  13.419
 2001TIP3   OH256470   6.785   6.278  12.845
 2001TIP3    H156471   6.819   6.190  12.860
 2001TIP3    H256472   6.823   6.305  12.762
 2002TIP3   OH256473   6.377   5.713  12.735
 2002TIP3    H156474   6.331   5.629  12.747
 2002TIP3    H256475   6.317   5.778  12.770
 2003TIP3   OH256476   6.043   7.155  13.345
 2003TIP3    H156477   6.057   7.062  13.325
 2003TIP3    H256478   6.024   7.195  13.260
 2004TIP3   OH256479   5.744   6.794  13.059
 2004TIP3    H156480   5.713   6.821  12.973
 2004TIP3    H256481   5.840   6.800  13.053
 2005TIP3   OH256482   5.977   7.310  12.484
 2005TIP3    H156483   5.961   7.404  12.483
 2005TIP3    H256484   5.932   7.277  12.406
 2006TIP3   OH256485   6.710   5.763  13.132
 2006TIP3    H156486   6.784   5.718  13.091
 2006TIP3    H256487   6.636   5.745  13.075
 2007TIP3   OH256488   7.092   6.645  11.629
 2007TIP3    H156489   7.138   6.617  11.709
 2007TIP3    H256490   7.155   6.629  11.559
 2008TIP3   OH256491   6.561   5.952  11.864
 2008TIP3    H156492   6.549   6.022  11.928
 2008TIP3    H256493   6.646   5.970  11.824
 2009TIP3   OH256494   6.677   6.338  13.292
 2009TIP3    H156495   6.728   6.263  13.324
 2009TIP3    H256496   6.701   6.410  13.350
 2010TIP3   OH256497   6.737   6.472  13.019
 2010TIP3    H156498   6.808   6.535  13.029
 2010TIP3    H256499   6.766   6.413  12.949
 2011TIP3   OH256500   6.906   6.032  12.873
 2011TIP3    H156501   6.858   5.966  12.824
 2011TIP3    H256502   6.975   6.061  12.813
 2012TIP3   OH256503   5.732   6.544  13.191
 2012TIP3    H156504   5.797   6.554  13.260
 2012TIP3    H256505   5.742   6.623  13.137
 2013TIP3   OH256506   6.474   6.534  13.236
 2013TIP3    H156507   6.380   6.540  13.250
 2013TIP3    H256508   6.513   6.592  13.302
 2014TIP3   OH256509   7.469   6.874  13.319
 2014TIP3    H156510   7.376   6.868  13.297
 2014TIP3    H256511   7.514   6.836  13.244
 2015TIP3   OH256512   7.001   6.569  12.945
 2015TIP3    H156513   7.004   6.604  12.856
 2015TIP3    H256514   7.088   6.533  12.960
 2016TIP3   OH256515   5.952   7.291  13.113
 2016TIP3    H156516   5.930   7.254  13.028
 2016TIP3    H256517   5.934   7.385  13.104
 2017TIP3   OH256518   6.504   7.018  11.633
 2017TIP3    H156519   6.555   7.087  11.592
 2017TIP3    H256520   6.464   6.971  11.560
 2018TIP3   OH256521   6.558   6.891  12.030
 2018TIP3    H156522   6.505   6.837  12.089
 2018TIP3    H256523   6.635   6.914  12.081
 2019TIP3   OH256524   6.790   6.028  13.129
 2019TIP3    H156525   6.842   6.031  13.049
 2019TIP3    H256526   6.765   5.935  13.137
 2020TIP3   OH256527   6.546   6.157  13.062
 2020TIP3    H156528   6.610   6.087  13.066
 2020TIP3    H256529   6.468   6.116  13.023
 2021TIP3   OH256530   6.655   5.843  12.414
 2021TIP3    H156531   6.658   5.938  12.428
 2021TIP3    H256532   6.747   5.817  12.409
 2022TIP3   OH256533   6.435   7.193  11.956
 2022TIP3    H156534   6.417   7.282  11.926
 2022TIP3    H256535   6.425   7.196  12.051
 2023TIP3   OH256536   6.323   6.926  11.868
 2023TIP3    H156537   6.232   6.957  11.866
 2023TIP3    H256538   6.318   6.840  11.908
 2024TIP3   OH256539   5.823   7.265  12.246
 2024TIP3    H156540   5.757   7.206  12.210
 2024TIP3    H256541   5.852   7.318  12.172
 2025TIP3   OH256542   5.779   7.346  13.567
 2025TIP3    H156543   5.863   7.314  13.533
 2025TIP3    H256544   5.725   7.359  13.490
 2026TIP3   OH256545   6.164   7.278  13.557
 2026TIP3    H156546   6.256   7.261  13.540
 2026TIP3    H256547   6.118   7.233  13.487
 2027TIP3   OH256548   6.697   7.148  11.800
 2027TIP3    H156549   6.789   7.148  11.827
 2027TIP3    H256550   6.698   7.177  11.709
 2028TIP3   OH256551   6.331   6.901  13.365
 2028TIP3    H156552   6.246   6.900  13.321
 2028TIP3    H256553   6.312   6.867  13.453
 2029TIP3   OH256554   6.750   6.559  13.440
 2029TIP3    H156555   6.805   6.635  13.420
 2029TIP3    H256556   6.806   6.502  13.492
 2030TIP3   OH256557   7.414   6.631  11.677
 2030TIP3    H156558   7.414   6.535  11.672
 2030TIP3    H256559   7.374   6.659  11.595
 2031TIP3   OH256560   6.924   6.379  13.547
 2031TIP3    H156561   6.919   6.295  13.502
 2031TIP3    H256562   7.018   6.397  13.554
 2032TIP3   OH256563   6.391   5.862  13.090
 2032TIP3    H156564   6.361   5.941  13.044
 2032TIP3    H256565   6.338   5.791  13.054
 2033TIP3   OH256566   6.835   6.136  13.385
 2033TIP3    H156567   6.836   6.094  13.299
 2033TIP3    H256568   6.851   6.064  13.447
 2034TIP3   OH256569   6.925   5.953  13.588
 2034TIP3    H156570   6.942   5.860  13.574
 2034TIP3    H256571   7.009   5.995  13.568
 2035TIP3   OH256572   6.430   5.754  13.340
 2035TIP3    H156573   6.497   5.686  13.332
 2035TIP3    H256574   6.421   5.789  13.251
 2036TIP3   OH256575   6.401   7.459  11.909
 2036TIP3    H156576   6.469   7.507  11.862
 2036TIP3    H256577   6.323   7.513  11.900
 2037TIP3   OH256578   5.897   6.928  11.874
 2037TIP3    H156579   5.964   6.893  11.932
 2037TIP3    H256580   5.836   6.855  11.861
 2038TIP3   OH256581   7.408   7.010  13.666
 2038TIP3    H156582   7.409   6.950  13.591
 2038TIP3    H256583   7.363   7.088  13.633
 2039TIP3   OH256584   5.737   6.672  12.708
 2039TIP3    H156585   5.756   6.708  12.621
 2039TIP3    H256586   5.778   6.585  12.708
 2040TIP3   OH256587   5.669   6.181  13.443
 2040TIP3    H156588   5.745   6.158  13.390
 2040TIP3    H256589   5.609   6.107  13.431
 2041TIP3   OH256590   5.628   6.265  12.606
 2041TIP3    H156591   5.647   6.179  12.644
 2041TIP3    H256592   5.712   6.310  12.606
 2042TIP3   OH256593   5.608   5.897  13.024
 2042TIP3    H156594   5.555   5.848  13.088
 2042TIP3    H256595   5.654   5.829  12.975
 2043TIP3   OH256596   5.828   7.004  13.456
 2043TIP3    H156597   5.832   7.093  13.420
 2043TIP3    H256598   5.913   6.966  13.434
 2044TIP3   OH256599   6.308   7.123  12.854
 2044TIP3    H156600   6.251   7.061  12.900
 2044TIP3    H256601   6.247   7.178  12.803
 2045TIP3   OH256602   5.864   7.550  13.034
 2045TIP3    H156603   5.880   7.644  13.024
 2045TIP3    H256604   5.783   7.535  12.985
 2046TIP3   OH256605   6.152   7.621  12.991
 2046TIP3    H156606   6.061   7.646  13.009
 2046TIP3    H256607   6.150   7.585  12.902
 2047TIP3   OH256608   7.064   7.616  13.065
 2047TIP3    H156609   7.137   7.568  13.103
 2047TIP3    H256610   6.999   7.548  13.044
 2048TIP3   OH256611   6.202   7.282  12.653
 2048TIP3    H156612   6.122   7.270  12.602
 2048TIP3    H256613   6.237   7.366  12.624
 2049TIP3   OH256614   6.752   5.874  12.705
 2049TIP3    H156615   6.665   5.863  12.667
 2049TIP3    H256616   6.801   5.924  12.640
 2050TIP3   OH256617   6.012   5.832  12.120
 2050TIP3    H156618   5.929   5.785  12.121
 2050TIP3    H256619   5.997   5.908  12.177
 2051TIP3   OH256620   6.405   5.737  12.450
 2051TIP3    H156621   6.493   5.773  12.437
 2051TIP3    H256622   6.397   5.727  12.545
 2052TIP3   OH256623   5.850   7.385  11.986
 2052TIP3    H156624   5.756   7.399  11.975
 2052TIP3    H256625   5.884   7.470  12.017
 2053TIP3   OH256626   6.197   5.939  11.867
 2053TIP3    H156627   6.198   5.917  11.774
 2053TIP3    H256628   6.210   6.034  11.870
 2054TIP3   OH256629   6.705   7.470  11.869
 2054TIP3    H156630   6.691   7.386  11.914
 2054TIP3    H256631   6.703   7.447  11.776
 2055TIP3   OH256632   5.981   5.892  13.427
 2055TIP3    H156633   5.945   5.838  13.357
 2055TIP3    H256634   6.065   5.923  13.393
 2056TIP3   OH256635   5.851   7.267  11.719
 2056TIP3    H156636   5.840   7.336  11.653
 2056TIP3    H256637   5.860   7.315  11.801
 2057TIP3   OH256638   7.021   5.696  13.560
 2057TIP3    H156639   6.976   5.655  13.487
 2057TIP3    H256640   7.112   5.703  13.532
 2058TIP3   OH256641   7.864   6.615  12.984
 2058TIP3    H156642   7.778   6.577  12.963
 2058TIP3    H256643   7.926   6.544  12.968
 2059TIP3   OH256644   7.923   6.971  12.921
 2059TIP3    H156645   7.889   6.893  12.877
 2059TIP3    H256646   8.005   6.991  12.875
 2060TIP3   OH256647   7.951   6.255  12.643
 2060TIP3    H156648   7.950   6.262  12.547
 2060TIP3    H256649   7.869   6.210  12.664
 2061TIP3   OH256650   7.902   6.167  12.984
 2061TIP3    H156651   7.843   6.140  12.914
 2061TIP3    H256652   7.888   6.102  13.053
 2062TIP3   OH256653   0.055   6.924  13.116
 2062TIP3    H156654   0.134   6.920  13.063
 2062TIP3    H256655   8.131   6.886  13.060
 2063TIP3   OH256656   7.907   6.632  12.382
 2063TIP3    H156657   7.993   6.599  12.409
 2063TIP3    H256658   7.881   6.691  12.452
 2064TIP3   OH256659   7.911   6.643  13.261
 2064TIP3    H156660   7.890   6.670  13.171
 2064TIP3    H256661   7.919   6.548  13.257
 2065TIP3   OH256662   7.879   7.147  13.337
 2065TIP3    H156663   7.967   7.160  13.301
 2065TIP3    H256664   7.878   7.055  13.364
 2066TIP3   OH256665   7.997   6.472  12.149
 2066TIP3    H156666   8.020   6.465  12.056
 2066TIP3    H256667   8.050   6.406  12.192
 2067TIP3   OH256668   7.590   6.793  13.083
 2067TIP3    H156669   7.567   6.779  12.991
 2067TIP3    H256670   7.604   6.705  13.118
 2068TIP3   OH256671   7.832   7.065  12.129
 2068TIP3    H156672   7.911   7.054  12.076
 2068TIP3    H256673   7.763   7.081  12.066
 2069TIP3   OH256674   7.730   7.035  13.106
 2069TIP3    H156675   7.801   7.019  13.044
 2069TIP3    H256676   7.679   6.955  13.106
 2070TIP3   OH256677   8.093   5.856  12.821
 2070TIP3    H156678   8.016   5.869  12.766
 2070TIP3    H256679   0.014   5.917  12.786
 2071TIP3   OH256680   8.035   6.402  12.954
 2071TIP3    H156681   7.996   6.314  12.953
 2071TIP3    H256682   8.100   6.400  12.885
 2072TIP3   OH256683   7.977   6.279  12.369
 2072TIP3    H156684   7.929   6.236  12.299
 2072TIP3    H256685   8.061   6.234  12.372
 2073TIP3   OH256686   7.871   6.370  13.204
 2073TIP3    H156687   7.924   6.377  13.125
 2073TIP3    H256688   7.844   6.278  13.206
 2074TIP3   OH256689   8.005   6.448  11.883
 2074TIP3    H156690   7.932   6.402  11.839
 2074TIP3    H256691   8.082   6.397  11.859
 2075TIP3   OH256692   7.920   6.871  13.435
 2075TIP3    H156693   7.939   6.806  13.367
 2075TIP3    H256694   7.831   6.851  13.463
 2076TIP3   OH256695   7.876   6.770  12.732
 2076TIP3    H156696   7.895   6.686  12.774
 2076TIP3    H256697   7.781   6.768  12.718
 2077TIP3   OH256698   7.621   6.538  13.184
 2077TIP3    H156699   7.690   6.472  13.185
 2077TIP3    H256700   7.564   6.512  13.111
 2078TIP3   OH256701   7.703   6.513  12.005
 2078TIP3    H156702   7.736   6.451  11.941
 2078TIP3    H256703   7.616   6.537  11.972
 2079TIP3   OH256704   7.825   6.014  13.202
 2079TIP3    H156705   7.754   5.969  13.156
 2079TIP3    H256706   7.834   5.965  13.284
 2080TIP3   OH256707   7.807   6.769  12.133
 2080TIP3    H156708   7.787   6.794  12.043
 2080TIP3    H256709   7.830   6.851  12.177
 2081TIP3   OH256710   8.027   7.009  11.952
 2081TIP3    H156711   8.118   7.034  11.967
 2081TIP3    H256712   8.031   6.945  11.881
 2082TIP3   OH256713   7.768   6.321  11.813
 2082TIP3    H156714   7.700   6.335  11.746
 2082TIP3    H256715   7.805   6.236  11.792
 2083TIP3   OH256716   7.845   5.823  12.676
 2083TIP3    H156717   7.817   5.815  12.585
 2083TIP3    H256718   7.873   5.735  12.701
 2084TIP3   OH256719   7.663   6.804  13.523
 2084TIP3    H156720   7.689   6.712  13.525
 2084TIP3    H256721   7.598   6.810  13.454
 2085TIP3   OH256722   0.005   6.836  11.765
 2085TIP3    H156723   8.137   6.741  11.776
 2085TIP3    H256724   0.006   6.849  11.670
 2086TIP3   OH256725   7.782   6.558  13.494
 2086TIP3    H156726   7.812   6.589  13.409
 2086TIP3    H256727   7.785   6.462  13.487
 2087TIP3   OH256728   7.957   6.211  13.567
 2087TIP3    H156729   7.895   6.156  13.521
 2087TIP3    H256730   8.042   6.189  13.528
 2088TIP3   OH256731   7.637   7.083  11.935
 2088TIP3    H156732   7.608   7.012  11.878
 2088TIP3    H256733   7.556   7.119  11.971
 2089TIP3   OH256734   7.318   7.499  12.399
 2089TIP3    H156735   7.251   7.453  12.349
 2089TIP3    H256736   7.396   7.445  12.392
 2090TIP3   OH256737   7.594   7.111  13.362
 2090TIP3    H156738   7.554   7.024  13.362
 2090TIP3    H256739   7.520   7.171  13.369
 2091TIP3   OH256740   8.118   7.206  13.228
 2091TIP3    H156741   8.056   7.232  13.159
 2091TIP3    H256742   0.045   7.161  13.182
 2092TIP3   OH256743   7.667   7.450  13.109
 2092TIP3    H156744   7.694   7.521  13.051
 2092TIP3    H256745   7.593   7.486  13.158
 2093TIP3   OH256746   7.897   7.306  13.093
 2093TIP3    H156747   7.872   7.273  13.007
 2093TIP3    H256748   7.898   7.401  13.083
 2094TIP3   OH256749   7.749   7.233  12.888
 2094TIP3    H156750   7.661   7.201  12.867
 2094TIP3    H256751   7.805   7.198  12.819
 2095TIP3   OH256752   0.011   6.990  12.773
 2095TIP3    H156753   0.014   6.907  12.726
 2095TIP3    H256754   0.103   7.013  12.787
 2096TIP3   OH256755   7.765   5.761  12.419
 2096TIP3    H156756   7.679   5.727  12.396
 2096TIP3    H256757   7.798   5.799  12.338
 2097TIP3   OH256758   8.048   5.792  13.534
 2097TIP3    H156759   8.119   5.773  13.473
 2097TIP3    H256760   7.970   5.796  13.479
 2098TIP3   OH256761   7.785   7.401  11.802
 2098TIP3    H156762   7.766   7.390  11.895
 2098TIP3    H256763   7.823   7.318  11.775
 2099TIP3   OH256764   1.891   7.889  12.927
 2099TIP3    H156765   1.837   7.954  12.883
 2099TIP3    H256766   1.969   7.881  12.872
 2100TIP3   OH256767   0.564   7.996  12.571
 2100TIP3    H156768   0.659   7.989  12.566
 2100TIP3    H256769   0.532   7.933  12.506
 2101TIP3   OH256770   1.434   7.811  12.398
 2101TIP3    H156771   1.468   7.887  12.350
 2101TIP3    H256772   1.414   7.747  12.330
 2102TIP3   OH256773   1.820   8.079  13.112
 2102TIP3    H156774   1.789   8.118  13.031
 2102TIP3    H256775   1.862   0.006  13.160
 2103TIP3   OH256776   0.449   7.799  12.983
 2103TIP3    H156777   0.447   7.875  12.925
 2103TIP3    H256778   0.414   7.831  13.066
 2104TIP3   OH256779   1.598   7.883  12.648
 2104TIP3    H156780   1.584   7.921  12.735
 2104TIP3    H256781   1.665   7.938  12.608
 2105TIP3   OH256782   0.472   8.017  12.827
 2105TIP3    H156783   0.514   8.092  12.868
 2105TIP3    H256784   0.522   8.003  12.746
 2106TIP3   OH256785   1.493   7.682  12.821
 2106TIP3    H156786   1.469   7.759  12.872
 2106TIP3    H256787   1.561   7.639  12.872
 2107TIP3   OH256788   0.830   7.522  12.727
 2107TIP3    H156789   0.781   7.439  12.718
 2107TIP3    H256790   0.763   7.586  12.751
 2108TIP3   OH256791   0.613   7.668  12.809
 2108TIP3    H156792   0.544   7.634  12.752
 2108TIP3    H256793   0.568   7.726  12.869
 2109TIP3   OH256794   1.072   7.673  13.186
 2109TIP3    H156795   1.128   7.616  13.237
 2109TIP3    H256796   1.040   7.617  13.114
 2110TIP3   OH256797   1.322   7.982  13.209
 2110TIP3    H156798   1.339   8.074  13.229
 2110TIP3    H256799   1.310   7.979  13.114
 2111TIP3   OH256800   1.001   7.925  11.875
 2111TIP3    H156801   1.088   7.961  11.861
 2111TIP3    H256802   0.988   7.863  11.803
 2112TIP3   OH256803   0.578   0.022  11.827
 2112TIP3    H156804   0.645   0.006  11.760
 2112TIP3    H256805   0.502   8.116  11.798
 2113TIP3   OH256806   0.209   8.069  12.397
 2113TIP3    H156807   0.207   8.026  12.482
 2113TIP3    H256808   0.209   7.998  12.333
 2114TIP3   OH256809   0.310   7.902  11.971
 2114TIP3    H156810   0.333   7.956  11.895
 2114TIP3    H256811   0.219   7.876  11.955
 2115TIP3   OH256812   0.841   7.961  12.564
 2115TIP3    H156813   0.830   7.870  12.538
 2115TIP3    H256814   0.935   7.976  12.557
 2116TIP3   OH256815   0.466   0.031  12.331
 2116TIP3    H156816   0.405   8.103  12.341
 2116TIP3    H256817   0.513   0.011  12.249
 2117TIP3   OH256818   0.588   8.125  12.098
 2117TIP3    H156819   0.681   8.128  12.122
 2117TIP3    H256820   0.587   8.138  12.003
 2118TIP3   OH256821   1.136   7.744  12.864
 2118TIP3    H156822   1.080   7.811  12.903
 2118TIP3    H256823   1.211   7.792  12.829
 2119TIP3   OH256824   0.507   7.798  12.386
 2119TIP3    H156825   0.469   7.714  12.359
 2119TIP3    H256826   0.600   7.779  12.397
 2120TIP3   OH256827   0.853   8.085  12.976
 2120TIP3    H156828   0.894   0.022  13.008
 2120TIP3    H256829   0.919   8.018  12.991
 2121TIP3   OH256830   1.264   7.991  11.772
 2121TIP3    H156831   1.280   8.020  11.682
 2121TIP3    H256832   1.347   7.951  11.799
 2122TIP3   OH256833   0.442   8.014  13.160
 2122TIP3    H156834   0.394   8.092  13.133
 2122TIP3    H256835   0.384   7.971  13.223
 2123TIP3   OH256836   1.045   7.920  13.067
 2123TIP3    H156837   1.129   7.950  13.032
 2123TIP3    H256838   1.066   7.837  13.111
 2124TIP3   OH256839   1.160   7.779  12.133
 2124TIP3    H156840   1.182   7.864  12.094
 2124TIP3    H256841   1.241   7.729  12.130
 2125TIP3   OH256842   0.808   0.054  12.282
 2125TIP3    H156843   0.870   0.116  12.245
 2125TIP3    H256844   0.860   8.119  12.300
 2126TIP3   OH256845   1.008   8.116  13.267
 2126TIP3    H156846   1.049   0.030  13.203
 2126TIP3    H256847   0.992   8.035  13.218
 2127TIP3   OH256848   0.987   7.748  12.335
 2127TIP3    H156849   0.978   7.844  12.332
 2127TIP3    H256850   1.043   7.727  12.261
 2128TIP3   OH256851   0.565   7.805  11.986
 2128TIP3    H156852   0.517   7.885  12.008
 2128TIP3    H256853   0.654   7.820  12.018
 2129TIP3   OH256854   1.642   7.838  13.106
 2129TIP3    H156855   1.590   7.763  13.136
 2129TIP3    H256856   1.585   7.883  13.044
 2130TIP3   OH256857   0.396   7.547  12.684
 2130TIP3    H156858   0.428   7.536  12.594
 2130TIP3    H256859   0.303   7.564  12.674
 2131TIP3   OH256860   0.691   7.990  13.337
 2131TIP3    H156861   0.696   7.929  13.264
 2131TIP3    H256862   0.641   8.065  13.302
 2132TIP3   OH256863   0.708   7.860  13.095
 2132TIP3    H156864   0.752   7.929  13.045
 2132TIP3    H256865   0.620   7.856  13.059
 2133TIP3   OH256866   0.729   7.599  13.191
 2133TIP3    H156867   0.734   7.689  13.157
 2133TIP3    H256868   0.775   7.546  13.125
 2134TIP3   OH256869   0.883   7.971  13.526
 2134TIP3    H156870   0.970   7.960  13.487
 2134TIP3    H256871   0.825   7.990  13.452
 2135TIP3   OH256872   1.167   7.969  13.434
 2135TIP3    H156873   1.115   8.037  13.392
 2135TIP3    H256874   1.232   7.944  13.368
 2136TIP3   OH256875   1.316   7.729  13.548
 2136TIP3    H156876   1.325   7.639  13.517
 2136TIP3    H256877   1.248   7.766  13.491
 2137TIP3   OH256878   0.427   7.968  13.517
 2137TIP3    H156879   0.368   7.962  13.442
 2137TIP3    H256880   0.438   7.877  13.546
 2138TIP3   OH256881   0.745   7.521  13.453
 2138TIP3    H156882   0.831   7.481  13.452
 2138TIP3    H256883   0.729   7.545  13.361
 2139TIP3   OH256884   0.790   7.731  13.625
 2139TIP3    H156885   0.771   7.669  13.554
 2139TIP3    H256886   0.823   7.809  13.580
 2140TIP3   OH256887   1.512   7.908  11.898
 2140TIP3    H156888   1.568   7.953  11.961
 2140TIP3    H256889   1.573   7.859  11.842
 2141TIP3   OH256890   1.292   8.023  12.072
 2141TIP3    H156891   1.377   8.011  12.113
 2141TIP3    H256892   1.311   8.027  11.978
 2142TIP3   OH256893   1.704   8.110  12.870
 2142TIP3    H156894   1.676   0.058  12.871
 2142TIP3    H256895   1.624   8.060  12.888
 2143TIP3   OH256896   0.197   0.020  13.237
 2143TIP3    H156897   0.232   8.091  13.287
 2143TIP3    H256898   0.127   8.126  13.184
 2144TIP3   OH256899   1.899   7.602  13.553
 2144TIP3    H156900   1.853   7.525  13.520
 2144TIP3    H256901   1.988   7.594  13.519
 2145TIP3   OH256902   0.232   8.015  12.699
 2145TIP3    H156903   0.231   7.933  12.650
 2145TIP3    H256904   0.307   8.008  12.757
 2146TIP3   OH256905   1.829   7.692  13.289
 2146TIP3    H156906   1.862   7.675  13.377
 2146TIP3    H256907   1.763   7.625  13.274
 2147TIP3   OH256908   1.847   7.748  11.929
 2147TIP3    H156909   1.891   7.664  11.943
 2147TIP3    H256910   1.900   7.811  11.978
 2148TIP3   OH256911   0.237   7.855  12.233
 2148TIP3    H156912   0.167   7.830  12.173
 2148TIP3    H256913   0.313   7.870  12.176
 2149TIP3   OH256914   0.016   7.504  13.281
 2149TIP3    H156915   0.076   7.578  13.273
 2149TIP3    H256916   0.006   7.472  13.191
 2150TIP3   OH256917   1.225   7.662  12.568
 2150TIP3    H156918   1.194   7.580  12.607
 2150TIP3    H256919   1.156   7.687  12.508
 2151TIP3   OH256920   0.431   7.512  12.416
 2151TIP3    H156921   0.346   7.511  12.373
 2151TIP3    H256922   0.469   7.427  12.395
 2152TIP3   OH256923   0.331   7.607  12.030
 2152TIP3    H156924   0.245   7.650  12.034
 2152TIP3    H256925   0.329   7.543  12.101
 2153TIP3   OH256926   0.755   7.704  12.461
 2153TIP3    H156927   0.831   7.708  12.403
 2153TIP3    H256928   0.765   7.622  12.509
 2154TIP3   OH256929   1.509   7.553  12.519
 2154TIP3    H156930   1.582   7.550  12.456
 2154TIP3    H256931   1.465   7.469  12.507
 2155TIP3   OH256932   1.403   7.656  12.177
 2155TIP3    H156933   1.464   7.687  12.110
 2155TIP3    H256934   1.408   7.561  12.170
 2156TIP3   OH256935   0.491   7.797  11.678
 2156TIP3    H156936   0.499   7.793  11.583
 2156TIP3    H256937   0.457   7.885  11.696
 2157TIP3   OH256938   0.820   7.847  12.074
 2157TIP3    H156939   0.849   7.757  12.088
 2157TIP3    H256940   0.886   7.886  12.017
 2158TIP3   OH256941   0.400   7.636  13.403
 2158TIP3    H156942   0.316   7.659  13.364
 2158TIP3    H256943   0.465   7.668  13.342
 2159TIP3   OH256944   0.499   7.491  13.607
 2159TIP3    H156945   0.586   7.469  13.574
 2159TIP3    H256946   0.454   7.531  13.533
 2160TIP3   OH256947   1.442   7.460  13.496
 2160TIP3    H156948   1.496   7.535  13.471
 2160TIP3    H256949   1.485   7.384  13.458
 2161TIP3   OH256950   2.470   7.857  12.571
 2161TIP3    H156951   2.451   7.950  12.554
 2161TIP3    H256952   2.428   7.811  12.498
 2162TIP3   OH256953   3.238   7.983  12.346
 2162TIP3    H156954   3.255   7.983  12.440
 2162TIP3    H256955   3.310   8.034  12.309
 2163TIP3   OH256956   2.295   7.895  12.965
 2163TIP3    H156957   2.318   7.824  12.904
 2163TIP3    H256958   2.319   7.975  12.919
 2164TIP3   OH256959   3.266   7.973  12.637
 2164TIP3    H156960   3.201   7.974  12.707
 2164TIP3    H256961   3.322   8.049  12.655
 2165TIP3   OH256962   2.633   7.555  12.769
 2165TIP3    H156963   2.626   7.523  12.679
 2165TIP3    H256964   2.555   7.609  12.781
 2166TIP3   OH256965   2.381   7.706  12.780
 2166TIP3    H156966   2.310   7.657  12.739
 2166TIP3    H256967   2.418   7.759  12.709
 2167TIP3   OH256968   2.903   7.608  13.127
 2167TIP3    H156969   2.947   7.693  13.121
 2167TIP3    H256970   2.810   7.630  13.137
 2168TIP3   OH256971   3.116   8.119  13.169
 2168TIP3    H156972   3.198   8.096  13.126
 2168TIP3    H256973   3.071   0.032  13.107
 2169TIP3   OH256974   2.860   7.983  11.834
 2169TIP3    H156975   2.924   7.912  11.842
 2169TIP3    H256976   2.864   8.008  11.742
 2170TIP3   OH256977   2.602   8.092  11.843
 2170TIP3    H156978   2.518   8.045  11.847
 2170TIP3    H256979   2.605   8.127  11.754
 2171TIP3   OH256980   1.960   8.017  12.083
 2171TIP3    H156981   1.997   8.089  12.033
 2171TIP3    H256982   1.865   8.027  12.074
 2172TIP3   OH256983   2.752   7.859  12.582
 2172TIP3    H156984   2.660   7.832  12.573
 2172TIP3    H256985   2.747   7.952  12.605
 2173TIP3   OH256986   2.259   8.044  12.479
 2173TIP3    H156987   2.168   8.020  12.461
 2173TIP3    H256988   2.289   8.084  12.398
 2174TIP3   OH256989   2.603   0.058  12.112
 2174TIP3    H156990   2.598   0.054  12.207
 2174TIP3    H256991   2.542   0.127  12.087
 2175TIP3   OH256992   3.067   7.957  12.855
 2175TIP3    H156993   3.006   8.030  12.851
 2175TIP3    H256994   3.021   7.885  12.811
 2176TIP3   OH256995   2.633   8.042  12.958
 2176TIP3    H156996   2.658   8.131  12.982
 2176TIP3    H256997   2.696   8.016  12.891
 2177TIP3   OH256998   3.131   7.941  11.892
 2177TIP3    H156999   3.141   7.851  11.860
 2177TIP3    H257000   3.142   7.933  11.987
 2178TIP3   OH257001   2.082   7.906  13.137
 2178TIP3    H157002   2.113   7.987  13.178
 2178TIP3    H257003   2.150   7.884  13.073
 2179TIP3   OH257004   2.995   7.873  13.111
 2179TIP3    H157005   3.039   7.948  13.152
 2179TIP3    H257006   3.012   7.884  13.018
 2180TIP3   OH257007   3.133   7.826  12.154
 2180TIP3    H157008   3.186   7.746  12.154
 2180TIP3    H257009   3.174   7.882  12.219
 2181TIP3   OH257010   2.913   7.983  12.140
 2181TIP3    H157011   2.963   8.061  12.166
 2181TIP3    H257012   2.975   7.911  12.148
 2182TIP3   OH257013   2.809   8.082  13.191
 2182TIP3    H157014   2.794   0.013  13.134
 2182TIP3    H257015   2.849   8.016  13.134
 2183TIP3   OH257016   2.970   7.741  12.445
 2183TIP3    H157017   2.890   7.781  12.480
 2183TIP3    H257018   2.981   7.780  12.359
 2184TIP3   OH257019   2.467   8.013  13.390
 2184TIP3    H157020   2.474   7.961  13.310
 2184TIP3    H257021   2.526   8.086  13.377
 2185TIP3   OH257022   2.505   7.891  13.143
 2185TIP3    H157023   2.565   7.946  13.091
 2185TIP3    H257024   2.426   7.884  13.089
 2186TIP3   OH257025   2.627   7.644  13.160
 2186TIP3    H157026   2.590   7.732  13.157
 2186TIP3    H257027   2.601   7.604  13.077
 2187TIP3   OH257028   2.808   7.960  13.457
 2187TIP3    H157029   2.764   8.045  13.465
 2187TIP3    H257030   2.831   7.954  13.365
 2188TIP3   OH257031   3.172   7.871  13.520
 2188TIP3    H157032   3.124   7.894  13.440
 2188TIP3    H257033   3.252   7.828  13.489
 2189TIP3   OH257034   2.252   7.913  13.543
 2189TIP3    H157035   2.325   7.950  13.494
 2189TIP3    H257036   2.190   7.883  13.476
 2190TIP3   OH257037   2.687   7.564  13.426
 2190TIP3    H157038   2.758   7.505  13.403
 2190TIP3    H257039   2.653   7.595  13.341
 2191TIP3   OH257040   2.707   7.767  13.620
 2191TIP3    H157041   2.688   7.693  13.563
 2191TIP3    H257042   2.735   7.837  13.560
 2192TIP3   OH257043   3.427   7.880  11.804
 2192TIP3    H157044   3.497   7.868  11.868
 2192TIP3    H257045   3.402   7.792  11.778
 2193TIP3   OH257046   3.470   8.083  12.205
 2193TIP3    H157047   3.509   7.996  12.207
 2193TIP3    H257048   3.545   8.143  12.217
 2194TIP3   OH257049   3.619   0.014  12.913
 2194TIP3    H157050   3.652   0.104  12.920
 2194TIP3    H257051   3.551   0.019  12.846
 2195TIP3   OH257052   1.904   7.966  13.351
 2195TIP3    H157053   1.935   8.057  13.350
 2195TIP3    H257054   1.862   7.955  13.436
 2196TIP3   OH257055   2.944   7.735  12.746
 2196TIP3    H157056   2.868   7.767  12.697
 2196TIP3    H257057   3.002   7.700  12.679
 2197TIP3   OH257058   3.189   7.638  12.574
 2197TIP3    H157059   3.250   7.711  12.564
 2197TIP3    H257060   3.116   7.659  12.516
 2198TIP3   OH257061   2.638   7.887  12.049
 2198TIP3    H157062   2.660   7.800  12.017
 2198TIP3    H257063   2.553   7.876  12.091
 2199TIP3   OH257064   2.121   7.542  13.390
 2199TIP3    H157065   2.057   7.473  13.369
 2199TIP3    H257066   2.169   7.555  13.308
 2200TIP3   OH257067   2.301   7.591  13.616
 2200TIP3    H157068   2.387   7.580  13.575
 2200TIP3    H257069   2.239   7.575  13.545
 2201TIP3   OH257070   4.294   7.842  12.658
 2201TIP3    H157071   4.352   7.918  12.652
 2201TIP3    H257072   4.272   7.822  12.567
 2202TIP3   OH257073   5.135   8.024  12.425
 2202TIP3    H157074   5.208   7.978  12.467
 2202TIP3    H257075   5.114   7.971  12.348
 2203TIP3   OH257076   4.269   7.809  13.029
 2203TIP3    H157077   4.227   7.873  12.971
 2203TIP3    H257078   4.254   7.724  12.986
 2204TIP3   OH257079   5.342   7.899  12.564
 2204TIP3    H157080   5.341   7.804  12.575
 2204TIP3    H257081   5.422   7.928  12.608
 2205TIP3   OH257082   4.137   7.990  12.841
 2205TIP3    H157083   4.079   8.046  12.788
 2205TIP3    H257084   4.181   7.934  12.777
 2206TIP3   OH257085   4.553   7.595  12.765
 2206TIP3    H157086   4.544   7.506  12.731
 2206TIP3    H257087   4.544   7.651  12.688
 2207TIP3   OH257088   4.794   7.548  12.966
 2207TIP3    H157089   4.886   7.527  12.986
 2207TIP3    H257090   4.775   7.497  12.887
 2208TIP3   OH257091   5.023   0.083  13.215
 2208TIP3    H157092   5.013   0.008  13.274
 2208TIP3    H257093   5.116   0.083  13.193
 2209TIP3   OH257094   4.492   7.916  11.600
 2209TIP3    H157095   4.443   7.975  11.657
 2209TIP3    H257096   4.453   7.928  11.513
 2210TIP3   OH257097   3.902   7.956  12.038
 2210TIP3    H157098   3.852   7.958  11.956
 2210TIP3    H257099   3.890   8.043  12.076
 2211TIP3   OH257100   4.611   7.755  12.539
 2211TIP3    H157101   4.542   7.730  12.479
 2211TIP3    H257102   4.691   7.751  12.487
 2212TIP3   OH257103   4.569   8.054  11.986
 2212TIP3    H157104   4.604   8.097  12.064
 2212TIP3    H257105   4.496   8.110  11.959
 2213TIP3   OH257106   4.940   7.894  12.850
 2213TIP3    H157107   4.975   7.960  12.791
 2213TIP3    H257108   4.912   7.823  12.793
 2214TIP3   OH257109   4.548   8.041  12.995
 2214TIP3    H157110   4.566   8.006  12.908
 2214TIP3    H257111   4.462   8.082  12.987
 2215TIP3   OH257112   5.177   7.990  11.689
 2215TIP3    H157113   5.090   8.001  11.726
 2215TIP3    H257114   5.220   8.075  11.703
 2216TIP3   OH257115   3.838   8.008  13.077
 2216TIP3    H157116   3.896   8.084  13.071
 2216TIP3    H257117   3.778   8.018  13.004
 2217TIP3   OH257118   4.827   7.832  13.088
 2217TIP3    H157119   4.899   7.818  13.149
 2217TIP3    H257120   4.869   7.856  13.005
 2218TIP3   OH257121   5.048   7.799  12.164
 2218TIP3    H157122   5.047   7.760  12.077
 2218TIP3    H257123   5.113   7.747  12.213
 2219TIP3   OH257124   4.783   7.916  12.249
 2219TIP3    H157125   4.848   7.910  12.179
 2219TIP3    H257126   4.723   7.985  12.221
 2220TIP3   OH257127   4.785   8.121  13.097
 2220TIP3    H157128   4.697   8.099  13.068
 2220TIP3    H257129   4.829   8.037  13.109
 2221TIP3   OH257130   4.870   7.708  12.407
 2221TIP3    H157131   4.842   7.776  12.345
 2221TIP3    H257132   4.943   7.664  12.363
 2222TIP3   OH257133   4.539   7.812  11.877
 2222TIP3    H157134   4.553   7.891  11.928
 2222TIP3    H257135   4.448   7.788  11.892
 2223TIP3   OH257136   5.255   7.912  13.234
 2223TIP3    H157137   5.172   7.867  13.252
 2223TIP3    H257138   5.305   7.849  13.182
 2224TIP3   OH257139   4.390   0.037  13.383
 2224TIP3    H157140   4.346   0.054  13.300
 2224TIP3    H257141   4.428   0.121  13.408
 2225TIP3   OH257142   4.526   7.818  13.145
 2225TIP3    H157143   4.542   7.908  13.116
 2225TIP3    H257144   4.434   7.802  13.123
 2226TIP3   OH257145   4.506   7.563  13.026
 2226TIP3    H157146   4.517   7.565  12.930
 2226TIP3    H257147   4.416   7.532  13.039
 2227TIP3   OH257148   4.681   8.104  13.403
 2227TIP3    H157149   4.591   8.078  13.419
 2227TIP3    H257150   4.675   0.050  13.371
 2228TIP3   OH257151   4.969   8.014  13.380
 2228TIP3    H157152   4.874   8.011  13.394
 2228TIP3    H257153   4.991   7.927  13.347
 2229TIP3   OH257154   3.964   7.866  13.373
 2229TIP3    H157155   4.034   7.807  13.401
 2229TIP3    H257156   3.962   7.933  13.442
 2230TIP3   OH257157   4.616   7.564  13.321
 2230TIP3    H157158   4.709   7.550  13.340
 2230TIP3    H257159   4.575   7.480  13.341
 2231TIP3   OH257160   4.596   7.732  13.603
 2231TIP3    H157161   4.630   7.695  13.522
 2231TIP3    H257162   4.532   7.797  13.575
 2232TIP3   OH257163   5.290   7.684  11.803
 2232TIP3    H157164   5.381   7.707  11.822
 2232TIP3    H257165   5.263   7.630  11.878
 2233TIP3   OH257166   5.484   0.029  12.945
 2233TIP3    H157167   5.559   8.115  12.931
 2233TIP3    H257168   5.442   0.035  12.859
 2234TIP3   OH257169   3.721   8.011  13.358
 2234TIP3    H157170   3.689   8.100  13.372
 2234TIP3    H257171   3.645   7.955  13.374
 2235TIP3   OH257172   5.535   7.797  11.804
 2235TIP3    H157173   5.601   7.787  11.736
 2235TIP3    H257174   5.576   7.855  11.869
 2236TIP3   OH257175   4.850   7.697  12.680
 2236TIP3    H157176   4.757   7.720  12.676
 2236TIP3    H257177   4.881   7.705  12.590
 2237TIP3   OH257178   4.467   7.649  12.336
 2237TIP3    H157179   4.509   7.642  12.250
 2237TIP3    H257180   4.442   7.560  12.358
 2238TIP3   OH257181   4.277   7.779  11.799
 2238TIP3    H157182   4.195   7.750  11.759
 2238TIP3    H257183   4.250   7.828  11.876
 2239TIP3   OH257184   3.906   7.644  13.214
 2239TIP3    H157185   3.888   7.586  13.288
 2239TIP3    H257186   3.933   7.584  13.144
 2240TIP3   OH257187   4.196   7.710  13.498
 2240TIP3    H157188   4.229   7.656  13.426
 2240TIP3    H257189   4.180   7.648  13.569
 2241TIP3   OH257190   7.373   7.822  12.868
 2241TIP3    H157191   7.445   7.882  12.848
 2241TIP3    H257192   7.372   7.761  12.795
 2242TIP3   OH257193   6.954   7.918  12.481
 2242TIP3    H157194   6.879   7.859  12.490
 2242TIP3    H257195   6.993   7.893  12.397
 2243TIP3   OH257196   7.401   0.032  12.976
 2243TIP3    H157197   7.469   0.098  12.966
 2243TIP3    H257198   7.444   8.104  13.022
 2244TIP3   OH257199   7.114   7.814  12.700
 2244TIP3    H157200   7.063   7.734  12.710
 2244TIP3    H257201   7.204   7.783  12.687
 2245TIP3   OH257202   7.176   7.874  13.045
 2245TIP3    H157203   7.131   7.790  13.058
 2245TIP3    H257204   7.251   7.852  12.990
 2246TIP3   OH257205   6.670   7.600  13.078
 2246TIP3    H157206   6.721   7.526  13.046
 2246TIP3    H257207   6.580   7.567  13.082
 2247TIP3   OH257208   6.975   8.130  13.205
 2247TIP3    H157209   6.912   8.059  13.215
 2247TIP3    H257210   7.013   8.116  13.118
 2248TIP3   OH257211   5.613   8.001  11.991
 2248TIP3    H157212   5.651   8.071  11.937
 2248TIP3    H257213   5.555   8.048  12.052
 2249TIP3   OH257214   6.902   7.981  12.802
 2249TIP3    H157215   6.834   8.036  12.841
 2249TIP3    H257216   6.903   7.902  12.855
 2250TIP3   OH257217   6.725   8.055  11.976
 2250TIP3    H157218   6.700   7.972  12.018
 2250TIP3    H257219   6.815   8.041  11.948
 2251TIP3   OH257220   6.856   7.790  13.012
 2251TIP3    H157221   6.933   7.736  13.028
 2251TIP3    H257222   6.782   7.730  13.019
 2252TIP3   OH257223   6.785   7.933  13.239
 2252TIP3    H157224   6.691   7.941  13.223
 2252TIP3    H257225   6.816   7.873  13.171
 2253TIP3   OH257226   7.213   8.004  13.293
 2253TIP3    H157227   7.137   8.062  13.284
 2253TIP3    H257228   7.217   7.956  13.210
 2254TIP3   OH257229   6.383   7.685  13.114
 2254TIP3    H157230   6.433   7.693  13.033
 2254TIP3    H257231   6.298   7.650  13.086
 2255TIP3   OH257232   6.586   7.971  13.563
 2255TIP3    H157233   6.577   7.937  13.652
 2255TIP3    H257234   6.678   7.956  13.541
 2256TIP3   OH257235   6.855   7.937  13.506
 2256TIP3    H157236   6.837   7.933  13.412
 2256TIP3    H257237   6.921   7.870  13.521
 2257TIP3   OH257238   7.062   7.733  13.539
 2257TIP3    H157239   7.147   7.734  13.495
 2257TIP3    H257240   7.033   7.642  13.534
 2258TIP3   OH257241   6.494   7.629  13.356
 2258TIP3    H157242   6.558   7.559  13.344
 2258TIP3    H257243   6.452   7.637  13.270
 2259TIP3   OH257244   6.428   7.691  13.614
 2259TIP3    H157245   6.461   7.662  13.530
 2259TIP3    H257246   6.341   7.652  13.621
 2260TIP3   OH257247   7.321   7.890  11.687
 2260TIP3    H157248   7.337   7.919  11.597
 2260TIP3    H257249   7.236   7.845  11.683
 2261TIP3   OH257250   7.166   8.050  12.165
 2261TIP3    H157251   7.140   7.960  12.142
 2261TIP3    H257252   7.257   8.057  12.135
 2262TIP3   OH257253   7.183   8.067  12.839
 2262TIP3    H157254   7.259   8.120  12.864
 2262TIP3    H257255   7.174   8.003  12.909
 2263TIP3   OH257256   7.316   7.730  13.427
 2263TIP3    H157257   7.315   7.769  13.339
 2263TIP3    H257258   7.337   7.638  13.412
 2264TIP3   OH257259   7.349   7.686  12.634
 2264TIP3    H157260   7.326   7.597  12.606
 2264TIP3    H257261   7.384   7.727  12.555
 2265TIP3   OH257262   7.901   7.845  12.558
 2265TIP3    H157263   7.983   7.864  12.512
 2265TIP3    H257264   7.866   7.768  12.513
 2266TIP3   OH257265   7.837   7.640  13.286
 2266TIP3    H157266   7.838   7.643  13.190
 2266TIP3    H257267   7.912   7.694  13.312
 2267TIP3   OH257268   8.091   0.186  12.971
 2267TIP3    H157269   8.083   0.126  12.897
 2267TIP3    H257270   8.000   0.208  12.993
 2268TIP3   OH257271   7.861   7.639  13.006
 2268TIP3    H157272   7.818   7.668  12.926
 2268TIP3    H257273   7.955   7.649  12.988
 2269TIP3   OH257274   7.231   7.973  12.496
 2269TIP3    H157275   7.322   8.000  12.511
 2269TIP3    H257276   7.237   7.907  12.427
 2270TIP3   OH257277   7.593   7.797  11.789
 2270TIP3    H157278   7.682   7.762  11.784
 2270TIP3    H257279   7.602   7.876  11.843
 2271TIP3   OH257280   7.731   0.192  12.151
 2271TIP3    H157281   7.708   0.111  12.198
 2271TIP3    H257282   7.773   0.247  12.217
 2272TIP3   OH257283   8.130   7.829  12.397
 2272TIP3    H157284   8.100   7.741  12.372
 2272TIP3    H257285   8.132   7.878  12.315
 2273TIP3   OH257286   7.588   7.862  13.266
 2273TIP3    H157287   7.661   7.886  13.210
 2273TIP3    H257288   7.554   7.781  13.227
 2274TIP3   OH257289   0.247   7.695  11.771
 2274TIP3    H157290   0.232   7.759  11.702
 2274TIP3    H257291   0.161   7.658  11.788
 2275TIP3   OH257292   7.748   7.733  12.758
 2275TIP3    H157293   7.806   7.778  12.696
 2275TIP3    H257294   7.746   7.642  12.726
 2276TIP3   OH257295   7.653   7.751  13.519
 2276TIP3    H157296   7.639   7.725  13.427
 2276TIP3    H257297   7.669   7.845  13.515
 2277TIP3   OH257298   7.388   7.989  13.507
 2277TIP3    H157299   7.339   8.028  13.435
 2277TIP3    H257300   7.410   7.901  13.476
 2278TIP3   OH257301   7.589   7.970  12.791
 2278TIP3    H157302   7.649   7.896  12.803
 2278TIP3    H257303   7.636   8.045  12.827
 2279TIP3   OH257304   7.366   7.662  11.936
 2279TIP3    H157305   7.362   7.715  12.015
 2279TIP3    H257306   7.363   7.571  11.967
 2280TIP3   OH257307   7.539   7.694  13.045
 2280TIP3    H157308   7.499   7.644  13.116
 2280TIP3    H257309   7.466   7.723  12.991
 2281TIP3   OH257310   7.815   7.632  12.433
 2281TIP3    H157311   7.746   7.579  12.394
 2281TIP3    H257312   7.896   7.595  12.400
 2282TIP3   OH257313   7.528   7.496  11.765
 2282TIP3    H157314   7.619   7.466  11.757
 2282TIP3    H257315   7.487   7.431  11.821
 2283TIP3   OH257316   7.834   7.673  11.811
 2283TIP3    H157317   7.828   7.579  11.799
 2283TIP3    H257318   7.904   7.685  11.875
 2284TIP3   OH257319   7.728   7.404  13.374
 2284TIP3    H157320   7.633   7.419  13.378
 2284TIP3    H257321   7.764   7.489  13.349
 2285TIP3   OH257322   8.051   7.650  13.480
 2285TIP3    H157323   8.095   7.733  13.460
 2285TIP3    H257324   8.076   7.592  13.408
 2286TIP3   OH257325   1.438   1.003  13.799
 2286TIP3    H157326   1.404   0.915  13.782
 2286TIP3    H257327   1.506   1.015  13.732
 2287TIP3   OH257328   1.020   0.323  13.784
 2287TIP3    H157329   0.942   0.271  13.766
 2287TIP3    H257330   1.066   0.328  13.701
 2288TIP3   OH257331   0.717   0.480  13.570
 2288TIP3    H157332   0.699   0.557  13.624
 2288TIP3    H257333   0.805   0.495  13.536
 2289TIP3   OH257334   0.149   0.591  13.908
 2289TIP3    H157335   0.212   0.569  13.839
 2289TIP3    H257336   0.085   0.648  13.866
 2290TIP3   OH257337   1.780   0.722  13.921
 2290TIP3    H157338   1.735   0.679  13.848
 2290TIP3    H257339   1.818   0.801  13.883
 2291TIP3   OH257340   0.774   1.412  13.638
 2291TIP3    H157341   0.811   1.450  13.559
 2291TIP3    H257342   0.757   1.320  13.614
 2292TIP3   OH257343   0.701   1.461  13.900
 2292TIP3    H157344   0.737   1.442  13.814
 2292TIP3    H257345   0.698   1.557  13.904
 2293TIP3   OH257346   0.670   1.737  13.928
 2293TIP3    H157347   0.695   1.797  13.859
 2293TIP3    H257348   0.700   1.779  14.009
 2294TIP3   OH257349   0.514   0.344  13.790
 2294TIP3    H157350   0.562   0.375  13.867
 2294TIP3    H257351   0.575   0.287  13.745
 2295TIP3   OH257352   0.440   1.413  13.828
 2295TIP3    H157353   0.529   1.417  13.865
 2295TIP3    H257354   0.443   1.471  13.752
 2296TIP3   OH257355   0.282   0.718  13.624
 2296TIP3    H157356   0.333   0.750  13.699
 2296TIP3    H257357   0.271   0.795  13.568
 2297TIP3   OH257358   1.006   1.595  13.648
 2297TIP3    H157359   0.977   1.508  13.675
 2297TIP3    H257360   1.084   1.578  13.594
 2298TIP3   OH257361   0.817   0.836  13.733
 2298TIP3    H157362   0.785   0.852  13.644
 2298TIP3    H257363   0.911   0.851  13.728
 2299TIP3   OH257364   1.643   1.038  13.601
 2299TIP3    H157365   1.586   0.995  13.537
 2299TIP3    H257366   1.653   1.128  13.568
 2300TIP3   OH257367   0.769   1.959  13.791
 2300TIP3    H157368   0.851   1.910  13.790
 2300TIP3    H257369   0.794   2.049  13.770
 2301TIP3   OH257370   1.839   0.959  13.786
 2301TIP3    H157371   1.772   0.967  13.717
 2301TIP3    H257372   1.834   1.041  13.834
 2302TIP3   OH257373   1.634   0.657  13.702
 2302TIP3    H157374   1.642   0.694  13.614
 2302TIP3    H257375   1.552   0.606  13.699
 2303TIP3   OH257376   0.206   0.185  13.969
 2303TIP3    H157377   0.237   0.139  13.891
 2303TIP3    H257378   0.143   0.249  13.935
 2304TIP3   OH257379   0.310   0.423  13.610
 2304TIP3    H157380   0.276   0.340  13.575
 2304TIP3    H257381   0.376   0.396  13.674
 2305TIP3   OH257382   1.005   1.817  13.810
 2305TIP3    H157383   1.083   1.864  13.783
 2305TIP3    H257384   1.003   1.739  13.755
 2306TIP3   OH257385   0.264   1.788  13.778
 2306TIP3    H157386   0.310   1.775  13.860
 2306TIP3    H257387   0.320   1.749  13.711
 2307TIP3   OH257388   3.684   1.497  13.806
 2307TIP3    H157389   3.702   1.579  13.760
 2307TIP3    H257390   3.759   1.441  13.786
 2308TIP3   OH257391   3.320   1.731  13.831
 2308TIP3    H157392   3.365   1.711  13.748
 2308TIP3    H257393   3.292   1.822  13.821
 2309TIP3   OH257394   3.283   1.005  13.625
 2309TIP3    H157395   3.228   0.948  13.679
 2309TIP3    H257396   3.359   0.951  13.602
 2310TIP3   OH257397   2.097   0.853  13.747
 2310TIP3    H157398   2.140   0.931  13.782
 2310TIP3    H257399   2.003   0.875  13.749
 2311TIP3   OH257400   3.680   1.788  13.767
 2311TIP3    H157401   3.750   1.847  13.738
 2311TIP3    H257402   3.614   1.794  13.698
 2312TIP3   OH257403   2.207   1.076  13.878
 2312TIP3    H157404   2.147   1.150  13.862
 2312TIP3    H257405   2.292   1.107  13.847
 2313TIP3   OH257406   2.459   0.305  14.039
 2313TIP3    H157407   2.468   0.398  14.018
 2313TIP3    H257408   2.422   0.266  13.961
 2314TIP3   OH257409   2.342   1.358  13.759
 2314TIP3    H157410   2.341   1.411  13.679
 2314TIP3    H257411   2.398   1.283  13.738
 2315TIP3   OH257412   2.177   0.604  13.861
 2315TIP3    H157413   2.143   0.683  13.819
 2315TIP3    H257414   2.204   0.547  13.789
 2316TIP3   OH257415   2.478   1.123  13.694
 2316TIP3    H157416   2.506   1.032  13.710
 2316TIP3    H257417   2.518   1.146  13.610
 2317TIP3   OH257418   3.635   1.077  13.671
 2317TIP3    H157419   3.591   1.057  13.588
 2317TIP3    H257420   3.721   1.110  13.645
 2318TIP3   OH257421   2.075   1.316  13.822
 2318TIP3    H157422   2.167   1.343  13.816
 2318TIP3    H257423   2.037   1.341  13.738
 2319TIP3   OH257424   3.650   1.089  13.948
 2319TIP3    H157425   3.618   1.074  13.860
 2319TIP3    H257426   3.738   1.125  13.936
 2320TIP3   OH257427   3.611   0.637  13.590
 2320TIP3    H157428   3.536   0.641  13.531
 2320TIP3    H257429   3.583   0.581  13.662
 2321TIP3   OH257430   3.417   0.436  13.644
 2321TIP3    H157431   3.430   0.388  13.562
 2321TIP3    H257432   3.335   0.484  13.631
 2322TIP3   OH257433   2.359   0.239  13.795
 2322TIP3    H157434   2.378   0.164  13.739
 2322TIP3    H257435   2.324   0.306  13.736
 2323TIP3   OH257436   2.248   1.756  13.829
 2323TIP3    H157437   2.256   1.848  13.805
 2323TIP3    H257438   2.218   1.713  13.748
 2324TIP3   OH257439   5.479   0.085  13.956
 2324TIP3    H157440   5.424   0.017  13.918
 2324TIP3    H257441   5.500   0.143  13.883
 2325TIP3   OH257442   5.678   1.484  13.889
 2325TIP3    H157443   5.654   1.572  13.861
 2325TIP3    H257444   5.685   1.433  13.808
 2326TIP3   OH257445   5.158   1.789  13.795
 2326TIP3    H157446   5.183   1.708  13.751
 2326TIP3    H257447   5.108   1.760  13.872
 2327TIP3   OH257448   3.972   0.923  13.699
 2327TIP3    H157449   4.044   0.964  13.747
 2327TIP3    H257450   3.934   0.994  13.648
 2328TIP3   OH257451   5.614   1.755  13.827
 2328TIP3    H157452   5.650   1.800  13.751
 2328TIP3    H257453   5.532   1.801  13.845
 2329TIP3   OH257454   4.492   1.476  13.538
 2329TIP3    H157455   4.543   1.467  13.458
 2329TIP3    H257456   4.437   1.553  13.522
 2330TIP3   OH257457   4.413   1.435  13.863
 2330TIP3    H157458   4.408   1.488  13.943
 2330TIP3    H257459   4.451   1.494  13.798
 2331TIP3   OH257460   4.171   1.067  13.838
 2331TIP3    H157461   4.131   1.065  13.925
 2331TIP3    H257462   4.173   1.160  13.815
 2332TIP3   OH257463   4.172   1.342  13.781
 2332TIP3    H157464   4.255   1.374  13.818
 2332TIP3    H257465   4.171   1.376  13.692
 2333TIP3   OH257466   3.958   0.656  13.651
 2333TIP3    H157467   3.968   0.745  13.685
 2333TIP3    H257468   4.038   0.611  13.678
 2334TIP3   OH257469   4.735   1.548  13.649
 2334TIP3    H157470   4.651   1.532  13.606
 2334TIP3    H257471   4.792   1.580  13.579
 2335TIP3   OH257472   5.221   1.553  13.675
 2335TIP3    H157473   5.151   1.492  13.652
 2335TIP3    H257474   5.272   1.562  13.595
 2336TIP3   OH257475   4.407   1.215  13.569
 2336TIP3    H157476   4.315   1.221  13.545
 2336TIP3    H257477   4.439   1.305  13.566
 2337TIP3   OH257478   4.454   0.977  13.715
 2337TIP3    H157479   4.374   1.016  13.753
 2337TIP3    H257480   4.463   0.893  13.760
 2338TIP3   OH257481   4.716   0.904  13.580
 2338TIP3    H157482   4.710   0.814  13.550
 2338TIP3    H257483   4.808   0.916  13.602
 2339TIP3   OH257484   3.901   1.310  13.801
 2339TIP3    H157485   3.993   1.336  13.791
 2339TIP3    H257486   3.880   1.265  13.719
 2340TIP3   OH257487   5.376   0.347  13.546
 2340TIP3    H157488   5.411   0.313  13.629
 2340TIP3    H257489   5.282   0.329  13.550
 2341TIP3   OH257490   5.574   0.226  13.735
 2341TIP3    H157491   5.575   0.173  13.656
 2341TIP3    H257492   5.637   0.296  13.718
 2342TIP3   OH257493   6.958   0.905  13.765
 2342TIP3    H157494   7.028   0.918  13.701
 2342TIP3    H257495   6.878   0.907  13.713
 2343TIP3   OH257496   7.498   1.516  13.614
 2343TIP3    H157497   7.403   1.528  13.611
 2343TIP3    H257498   7.531   1.603  13.637
 2344TIP3   OH257499   6.925   1.828  13.672
 2344TIP3    H157500   6.942   1.734  13.676
 2344TIP3    H257501   7.000   1.868  13.714
 2345TIP3   OH257502   6.666   0.370  13.651
 2345TIP3    H157503   6.635   0.338  13.736
 2345TIP3    H257504   6.602   0.436  13.625
 2346TIP3   OH257505   6.451   0.490  13.551
 2346TIP3    H157506   6.452   0.569  13.496
 2346TIP3    H257507   6.425   0.420  13.491
 2347TIP3   OH257508   6.919   0.515  13.792
 2347TIP3    H157509   6.861   0.443  13.769
 2347TIP3    H257510   6.924   0.569  13.713
 2348TIP3   OH257511   7.065   0.706  13.924
 2348TIP3    H157512   7.024   0.626  13.889
 2348TIP3    H257513   7.035   0.775  13.865
 2349TIP3   OH257514   7.392   0.712  13.930
 2349TIP3    H157515   7.355   0.696  13.843
 2349TIP3    H257516   7.487   0.704  13.918
 2350TIP3   OH257517   7.526   1.822  13.693
 2350TIP3    H157518   7.551   1.810  13.601
 2350TIP3    H257519   7.516   1.916  13.703
 2351TIP3   OH257520   5.936   1.159  13.956
 2351TIP3    H157521   5.876   1.173  13.883
 2351TIP3    H257522   6.016   1.205  13.931
 2352TIP3   OH257523   6.303   0.482  14.054
 2352TIP3    H157524   6.303   0.571  14.019
 2352TIP3    H257525   6.291   0.425  13.977
 2353TIP3   OH257526   6.127   1.319  13.815
 2353TIP3    H157527   6.136   1.397  13.761
 2353TIP3    H257528   6.162   1.248  13.762
 2354TIP3   OH257529   6.219   1.146  13.624
 2354TIP3    H157530   6.274   1.074  13.594
 2354TIP3    H257531   6.150   1.153  13.558
 2355TIP3   OH257532   7.402   1.246  13.542
 2355TIP3    H157533   7.387   1.155  13.515
 2355TIP3    H257534   7.320   1.273  13.583
 2356TIP3   OH257535   5.805   1.248  13.732
 2356TIP3    H157536   5.882   1.289  13.692
 2356TIP3    H257537   5.767   1.196  13.662
 2357TIP3   OH257538   7.431   1.004  13.889
 2357TIP3    H157539   7.400   0.950  13.816
 2357TIP3    H257540   7.505   1.053  13.853
 2358TIP3   OH257541   7.271   0.668  13.702
 2358TIP3    H157542   7.317   0.694  13.622
 2358TIP3    H257543   7.252   0.575  13.690
 2359TIP3   OH257544   7.243   0.390  13.721
 2359TIP3    H157545   7.315   0.330  13.703
 2359TIP3    H257546   7.181   0.375  13.650
 2360TIP3   OH257547   5.786   0.244  13.950
 2360TIP3    H157548   5.790   0.302  13.874
 2360TIP3    H257549   5.703   0.198  13.940
 2361TIP3   OH257550   5.799   0.409  13.725
 2361TIP3    H157551   5.862   0.410  13.652
 2361TIP3    H257552   5.767   0.499  13.730
 2362TIP3   OH257553   6.689   1.905  13.541
 2362TIP3    H157554   6.758   1.880  13.602
 2362TIP3    H257555   6.622   1.945  13.596
 2363TIP3   OH257556   5.999   1.750  13.537
 2363TIP3    H157557   5.986   1.820  13.600
 2363TIP3    H257558   6.070   1.697  13.575
 2364TIP3   OH257559   8.102   0.739  13.775
 2364TIP3    H157560   8.048   0.691  13.712
 2364TIP3    H257561   0.005   0.803  13.722
 2365TIP3   OH257562   7.797   0.861  13.728
 2365TIP3    H157563   7.890   0.860  13.705
 2365TIP3    H257564   7.751   0.870  13.644
 2366TIP3   OH257565   7.650   1.115  13.764
 2366TIP3    H157566   7.730   1.066  13.747
 2366TIP3    H257567   7.640   1.173  13.688
 2367TIP3   OH257568   8.127   0.332  13.895
 2367TIP3    H157569   8.142   0.402  13.832
 2367TIP3    H257570   8.069   0.271  13.849
 2368TIP3   OH257571   0.168   1.463  13.784
 2368TIP3    H157572   0.143   1.377  13.750
 2368TIP3    H257573   0.263   1.455  13.800
 2369TIP3   OH257574   7.635   0.649  13.819
 2369TIP3    H157575   7.694   0.717  13.784
 2369TIP3    H257576   7.634   0.581  13.752
 2370TIP3   OH257577   8.040   0.911  13.521
 2370TIP3    H157578   8.115   0.886  13.466
 2370TIP3    H257579   7.987   0.968  13.465
 2371TIP3   OH257580   7.719   1.332  13.568
 2371TIP3    H157581   7.712   1.417  13.610
 2371TIP3    H257582   7.813   1.318  13.556
 2372TIP3   OH257583   7.868   1.950  13.691
 2372TIP3    H157584   7.830   1.864  13.670
 2372TIP3    H257585   7.961   1.933  13.705
 2373TIP3   OH257586   1.013   2.600  13.800
 2373TIP3    H157587   1.109   2.602  13.805
 2373TIP3    H257588   0.993   2.615  13.707
 2374TIP3   OH257589   1.384   2.777  13.983
 2374TIP3    H157590   1.378   2.687  13.950
 2374TIP3    H257591   1.411   2.828  13.907
 2375TIP3   OH257592   1.746   3.387  13.676
 2375TIP3    H157593   1.744   3.466  13.730
 2375TIP3    H257594   1.835   3.383  13.642
 2376TIP3   OH257595   1.500   2.868  13.741
 2376TIP3    H157596   1.454   2.865  13.657
 2376TIP3    H257597   1.583   2.824  13.725
 2377TIP3   OH257598   1.376   2.519  13.887
 2377TIP3    H157599   1.435   2.444  13.900
 2377TIP3    H257600   1.362   2.522  13.792
 2378TIP3   OH257601   1.430   3.247  13.860
 2378TIP3    H157602   1.435   3.160  13.822
 2378TIP3    H257603   1.442   3.307  13.787
 2379TIP3   OH257604   1.757   3.631  13.816
 2379TIP3    H157605   1.778   3.694  13.885
 2379TIP3    H257606   1.760   3.683  13.735
 2380TIP3   OH257607   0.839   3.214  13.627
 2380TIP3    H157608   0.808   3.141  13.574
 2380TIP3    H257609   0.790   3.290  13.595
 2381TIP3   OH257610   0.653   3.310  13.838
 2381TIP3    H157611   0.720   3.246  13.814
 2381TIP3    H257612   0.669   3.384  13.779
 2382TIP3   OH257613   0.380   3.247  13.826
 2382TIP3    H157614   0.465   3.290  13.833
 2382TIP3    H257615   0.388   3.189  13.750
 2383TIP3   OH257616   1.488   3.419  13.561
 2383TIP3    H157617   1.573   3.406  13.604
 2383TIP3    H257618   1.503   3.491  13.500
 2384TIP3   OH257619   1.076   3.149  13.476
 2384TIP3    H157620   1.010   3.173  13.541
 2384TIP3    H257621   1.092   3.056  13.492
 2385TIP3   OH257622   0.108   3.174  13.716
 2385TIP3    H157623   0.156   3.229  13.777
 2385TIP3    H257624   0.134   3.206  13.629
 2386TIP3   OH257625   1.591   2.309  13.707
 2386TIP3    H157626   1.641   2.282  13.629
 2386TIP3    H257627   1.503   2.272  13.692
 2387TIP3   OH257628   0.458   3.585  13.615
 2387TIP3    H157629   0.504   3.668  13.606
 2387TIP3    H257630   0.526   3.518  13.603
 2388TIP3   OH257631   3.256   2.515  13.914
 2388TIP3    H157632   3.347   2.520  13.885
 2388TIP3    H257633   3.204   2.532  13.835
 2389TIP3   OH257634   2.787   3.536  13.609
 2389TIP3    H157635   2.831   3.452  13.596
 2389TIP3    H257636   2.794   3.580  13.525
 2390TIP3   OH257637   2.754   2.701  13.682
 2390TIP3    H157638   2.693   2.749  13.625
 2390TIP3    H257639   2.836   2.698  13.632
 2391TIP3   OH257640   3.579   2.934  13.659
 2391TIP3    H157641   3.589   2.889  13.576
 2391TIP3    H257642   3.523   3.009  13.639
 2392TIP3   OH257643   2.748   3.709  13.828
 2392TIP3    H157644   2.775   3.641  13.767
 2392TIP3    H257645   2.714   3.779  13.772
 2393TIP3   OH257646   2.029   3.175  13.796
 2393TIP3    H157647   2.013   3.246  13.733
 2393TIP3    H257648   2.077   3.109  13.746
 2394TIP3   OH257649   3.659   2.795  13.885
 2394TIP3    H157650   3.674   2.722  13.825
 2394TIP3    H257651   3.628   2.866  13.829
 2395TIP3   OH257652   3.506   2.521  13.760
 2395TIP3    H157653   3.483   2.578  13.686
 2395TIP3    H257654   3.513   2.434  13.722
 2396TIP3   OH257655   3.491   2.268  13.642
 2396TIP3    H157656   3.546   2.224  13.578
 2396TIP3    H257657   3.410   2.288  13.595
 2397TIP3   OH257658   2.269   2.013  13.732
 2397TIP3    H157659   2.345   2.005  13.674
 2397TIP3    H257660   2.201   2.052  13.678
 2398TIP3   OH257661   2.255   3.623  13.816
 2398TIP3    H157662   2.252   3.716  13.792
 2398TIP3    H257663   2.311   3.583  13.749
 2399TIP3   OH257664   4.849   2.604  13.752
 2399TIP3    H157665   4.923   2.649  13.792
 2399TIP3    H257666   4.864   2.611  13.657
 2400TIP3   OH257667   5.063   2.777  13.859
 2400TIP3    H157668   5.000   2.848  13.851
 2400TIP3    H257669   5.136   2.803  13.802
 2401TIP3   OH257670   5.392   1.902  13.888
 2401TIP3    H157671   5.308   1.880  13.848
 2401TIP3    H257672   5.394   1.998  13.889
 2402TIP3   OH257673   5.259   2.907  13.699
 2402TIP3    H157674   5.302   2.872  13.621
 2402TIP3    H257675   5.232   2.996  13.673
 2403TIP3   OH257676   4.750   2.299  13.815
 2403TIP3    H157677   4.746   2.393  13.795
 2403TIP3    H257678   4.713   2.256  13.737
 2404TIP3   OH257679   5.029   2.322  13.840
 2404TIP3    H157680   4.936   2.299  13.834
 2404TIP3    H257681   5.047   2.372  13.760
 2405TIP3   OH257682   5.085   2.538  14.012
 2405TIP3    H157683   5.073   2.473  13.943
 2405TIP3    H257684   5.089   2.622  13.966
 2406TIP3   OH257685   4.722   3.140  13.872
 2406TIP3    H157686   4.650   3.202  13.887
 2406TIP3    H257687   4.679   3.055  13.863
 2407TIP3   OH257688   5.650   3.657  13.836
 2407TIP3    H157689   5.701   3.701  13.768
 2407TIP3    H257690   5.610   3.582  13.792
 2408TIP3   OH257691   4.615   3.353  13.487
 2408TIP3    H157692   4.683   3.419  13.499
 2408TIP3    H257693   4.646   3.277  13.536
 2409TIP3   OH257694   4.491   3.303  13.911
 2409TIP3    H157695   4.404   3.279  13.877
 2409TIP3    H257696   4.513   3.384  13.865
 2410TIP3   OH257697   4.060   2.989  13.958
 2410TIP3    H157698   4.007   3.032  13.891
 2410TIP3    H257699   4.143   3.035  13.956
 2411TIP3   OH257700   4.188   3.314  13.862
 2411TIP3    H157701   4.188   3.401  13.822
 2411TIP3    H257702   4.117   3.267  13.819
 2412TIP3   OH257703   4.363   3.242  13.477
 2412TIP3    H157704   4.280   3.197  13.485
 2412TIP3    H257705   4.429   3.172  13.473
 2413TIP3   OH257706   4.958   3.143  13.722
 2413TIP3    H157707   4.875   3.154  13.769
 2413TIP3    H257708   4.940   3.073  13.659
 2414TIP3   OH257709   4.489   2.802  13.937
 2414TIP3    H157710   4.412   2.745  13.929
 2414TIP3    H257711   4.530   2.798  13.851
 2415TIP3   OH257712   4.612   2.764  13.696
 2415TIP3    H157713   4.582   2.754  13.606
 2415TIP3    H257714   4.689   2.708  13.703
 2416TIP3   OH257715   3.946   3.182  13.781
 2416TIP3    H157716   3.892   3.258  13.759
 2416TIP3    H257717   3.935   3.122  13.707
 2417TIP3   OH257718   5.524   2.540  13.806
 2417TIP3    H157719   5.509   2.596  13.730
 2417TIP3    H257720   5.495   2.453  13.777
 2418TIP3   OH257721   5.414   2.287  13.758
 2418TIP3    H157722   5.358   2.279  13.836
 2418TIP3    H257723   5.359   2.256  13.686
 2419TIP3   OH257724   5.620   2.122  13.830
 2419TIP3    H157725   5.623   2.056  13.761
 2419TIP3    H257726   5.560   2.189  13.798
 2420TIP3   OH257727   4.165   3.660  13.745
 2420TIP3    H157728   4.072   3.678  13.730
 2420TIP3    H257729   4.211   3.711  13.679
 2421TIP3   OH257730   6.810   2.681  13.776
 2421TIP3    H157731   6.780   2.752  13.719
 2421TIP3    H257732   6.867   2.627  13.721
 2422TIP3   OH257733   7.430   3.305  13.672
 2422TIP3    H157734   7.361   3.365  13.699
 2422TIP3    H257735   7.384   3.230  13.636
 2423TIP3   OH257736   6.697   2.298  13.816
 2423TIP3    H157737   6.650   2.354  13.878
 2423TIP3    H257738   6.639   2.292  13.741
 2424TIP3   OH257739   6.964   2.352  13.778
 2424TIP3    H157740   6.872   2.338  13.799
 2424TIP3    H257741   6.965   2.429  13.722
 2425TIP3   OH257742   7.616   3.595  13.627
 2425TIP3    H157743   7.647   3.667  13.573
 2425TIP3    H257744   7.561   3.637  13.694
 2426TIP3   OH257745   6.124   3.185  13.833
 2426TIP3    H157746   6.144   3.258  13.774
 2426TIP3    H257747   6.146   3.107  13.783
 2427TIP3   OH257748   7.237   3.493  13.695
 2427TIP3    H157749   7.143   3.484  13.708
 2427TIP3    H257750   7.247   3.532  13.608
 2428TIP3   OH257751   6.192   2.991  13.655
 2428TIP3    H157752   6.122   2.955  13.601
 2428TIP3    H257753   6.265   3.004  13.595
 2429TIP3   OH257754   5.867   3.190  13.704
 2429TIP3    H157755   5.939   3.165  13.763
 2429TIP3    H257756   5.813   3.112  13.698
 2430TIP3   OH257757   5.873   3.611  13.598
 2430TIP3    H157758   5.954   3.633  13.644
 2430TIP3    H257759   5.885   3.519  13.572
 2431TIP3   OH257760   8.105   2.258  13.842
 2431TIP3    H157761   8.049   2.306  13.781
 2431TIP3    H257762   0.045   2.252  13.797
 2432TIP3   OH257763   7.797   3.396  13.747
 2432TIP3    H157764   7.859   3.469  13.741
 2432TIP3    H257765   7.825   3.348  13.824
 2433TIP3   OH257766   8.010   3.046  13.781
 2433TIP3    H157767   8.040   2.966  13.736
 2433TIP3    H257768   8.081   3.109  13.767
 2434TIP3   OH257769   7.682   3.153  13.620
 2434TIP3    H157770   7.751   3.108  13.669
 2434TIP3    H257771   7.631   3.083  13.580
 2435TIP3   OH257772   1.093   4.563  13.773
 2435TIP3    H157773   1.122   4.646  13.734
 2435TIP3    H257774   1.110   4.498  13.706
 2436TIP3   OH257775   1.380   4.584  13.911
 2436TIP3    H157776   1.384   4.518  13.843
 2436TIP3    H257777   1.406   4.665  13.868
 2437TIP3   OH257778   1.457   4.790  13.753
 2437TIP3    H157779   1.420   4.797  13.665
 2437TIP3    H257780   1.549   4.814  13.743
 2438TIP3   OH257781   0.242   4.443  13.830
 2438TIP3    H157782   0.320   4.437  13.774
 2438TIP3    H257783   0.169   4.429  13.770
 2439TIP3   OH257784   0.612   4.459  13.869
 2439TIP3    H157785   0.547   4.426  13.807
 2439TIP3    H257786   0.685   4.488  13.814
 2440TIP3   OH257787   1.756   4.418  13.984
 2440TIP3    H157788   1.734   4.358  13.913
 2440TIP3    H257789   1.777   4.500  13.940
 2441TIP3   OH257790   0.132   4.414  13.561
 2441TIP3    H157791   0.168   4.496  13.529
 2441TIP3    H257792   0.042   4.412  13.530
 2442TIP3   OH257793   1.072   5.249  13.639
 2442TIP3    H157794   0.998   5.292  13.596
 2442TIP3    H257795   1.149   5.297  13.609
 2443TIP3   OH257796   1.010   4.973  13.655
 2443TIP3    H157797   1.040   5.064  13.650
 2443TIP3    H257798   1.084   4.921  13.624
 2444TIP3   OH257799   0.817   4.562  13.718
 2444TIP3    H157800   0.804   4.585  13.626
 2444TIP3    H257801   0.912   4.564  13.730
 2445TIP3   OH257802   1.722   4.846  13.702
 2445TIP3    H157803   1.738   4.810  13.614
 2445TIP3    H257804   1.720   4.941  13.688
 2446TIP3   OH257805   1.831   4.675  13.888
 2446TIP3    H157806   1.786   4.735  13.829
 2446TIP3    H257807   1.912   4.653  13.843
 2447TIP3   OH257808   7.936   3.771  13.807
 2447TIP3    H157809   8.011   3.824  13.835
 2447TIP3    H257810   7.886   3.830  13.750
 2448TIP3   OH257811   0.481   4.028  13.768
 2448TIP3    H157812   0.517   3.949  13.727
 2448TIP3    H257813   0.438   4.075  13.696
 2449TIP3   OH257814   3.729   5.363  13.755
 2449TIP3    H157815   3.746   5.276  13.791
 2449TIP3    H257816   3.728   5.350  13.660
 2450TIP3   OH257817   3.154   5.547  13.727
 2450TIP3    H157818   3.091   5.555  13.655
 2450TIP3    H257819   3.203   5.467  13.707
 2451TIP3   OH257820   3.279   4.737  13.737
 2451TIP3    H157821   3.218   4.767  13.669
 2451TIP3    H257822   3.365   4.748  13.698
 2452TIP3   OH257823   2.008   4.289  13.996
 2452TIP3    H157824   2.055   4.310  13.916
 2452TIP3    H257825   1.925   4.337  13.989
 2453TIP3   OH257826   3.201   5.111  13.891
 2453TIP3    H157827   3.270   5.071  13.838
 2453TIP3    H257828   3.123   5.108  13.835
 2454TIP3   OH257829   3.703   5.628  13.794
 2454TIP3    H157830   3.748   5.661  13.716
 2454TIP3    H257831   3.716   5.534  13.792
 2455TIP3   OH257832   2.012   4.424  13.735
 2455TIP3    H157833   2.083   4.476  13.698
 2455TIP3    H257834   1.943   4.425  13.668
 2456TIP3   OH257835   3.387   5.385  13.684
 2456TIP3    H157836   3.409   5.292  13.690
 2456TIP3    H257837   3.409   5.410  13.594
 2457TIP3   OH257838   2.999   5.076  13.708
 2457TIP3    H157839   3.009   5.137  13.635
 2457TIP3    H257840   2.992   4.990  13.666
 2458TIP3   OH257841   3.556   4.800  13.650
 2458TIP3    H157842   3.593   4.764  13.569
 2458TIP3    H257843   3.540   4.892  13.630
 2459TIP3   OH257844   3.694   4.802  13.907
 2459TIP3    H157845   3.636   4.786  13.833
 2459TIP3    H257846   3.765   4.855  13.870
 2460TIP3   OH257847   3.503   4.127  13.800
 2460TIP3    H157848   3.560   4.158  13.729
 2460TIP3    H257849   3.419   4.111  13.759
 2461TIP3   OH257850   2.261   3.907  13.771
 2461TIP3    H157851   2.333   3.884  13.713
 2461TIP3    H257852   2.211   3.973  13.723
 2462TIP3   OH257853   4.842   4.123  13.722
 2462TIP3    H157854   4.800   4.177  13.655
 2462TIP3    H257855   4.802   4.036  13.712
 2463TIP3   OH257856   4.469   4.044  13.606
 2463TIP3    H157857   4.471   3.973  13.541
 2463TIP3    H257858   4.458   4.123  13.553
 2464TIP3   OH257859   5.001   4.283  13.887
 2464TIP3    H157860   4.949   4.219  13.838
 2464TIP3    H257861   4.999   4.362  13.833
 2465TIP3   OH257862   4.875   5.134  13.791
 2465TIP3    H157863   4.861   5.222  13.756
 2465TIP3    H257864   4.883   5.078  13.713
 2466TIP3   OH257865   5.558   4.468  13.981
 2466TIP3    H157866   5.488   4.441  13.921
 2466TIP3    H257867   5.584   4.555  13.949
 2467TIP3   OH257868   5.604   5.613  13.886
 2467TIP3    H157869   5.586   5.683  13.822
 2467TIP3    H257870   5.635   5.540  13.833
 2468TIP3   OH257871   4.526   5.057  13.520
 2468TIP3    H157872   4.486   5.069  13.434
 2468TIP3    H257873   4.511   4.965  13.541
 2469TIP3   OH257874   4.838   5.427  13.705
 2469TIP3    H157875   4.760   5.433  13.651
 2469TIP3    H257876   4.904   5.387  13.647
 2470TIP3   OH257877   4.926   5.005  13.528
 2470TIP3    H157878   4.855   4.984  13.467
 2470TIP3    H257879   4.990   4.934  13.515
 2471TIP3   OH257880   4.686   4.618  13.713
 2471TIP3    H157881   4.620   4.678  13.679
 2471TIP3    H257882   4.714   4.567  13.636
 2472TIP3   OH257883   3.917   5.004  13.756
 2472TIP3    H157884   3.945   5.076  13.699
 2472TIP3    H257885   3.936   4.925  13.707
 2473TIP3   OH257886   5.538   4.687  13.781
 2473TIP3    H157887   5.507   4.599  13.761
 2473TIP3    H257888   5.495   4.743  13.717
 2474TIP3   OH257889   5.418   4.441  13.742
 2474TIP3    H157890   5.390   4.478  13.658
 2474TIP3    H257891   5.392   4.349  13.737
 2475TIP3   OH257892   5.341   4.189  13.665
 2475TIP3    H157893   5.259   4.140  13.655
 2475TIP3    H257894   5.342   4.250  13.592
 2476TIP3   OH257895   5.556   4.074  13.793
 2476TIP3    H157896   5.570   4.008  13.725
 2476TIP3    H257897   5.483   4.127  13.760
 2477TIP3   OH257898   3.896   3.802  13.798
 2477TIP3    H157899   3.934   3.884  13.765
 2477TIP3    H257900   3.825   3.784  13.737
 2478TIP3   OH257901   7.009   5.597  13.811
 2478TIP3    H157902   7.006   5.642  13.727
 2478TIP3    H257903   7.091   5.547  13.809
 2479TIP3   OH257904   5.738   4.277  13.889
 2479TIP3    H157905   5.783   4.304  13.809
 2479TIP3    H257906   5.685   4.353  13.913
 2480TIP3   OH257907   6.262   4.462  13.750
 2480TIP3    H157908   6.242   4.413  13.670
 2480TIP3    H257909   6.284   4.550  13.719
 2481TIP3   OH257910   6.857   4.208  13.873
 2481TIP3    H157911   6.805   4.258  13.809
 2481TIP3    H257912   6.905   4.144  13.820
 2482TIP3   OH257913   5.809   4.665  13.842
 2482TIP3    H157914   5.855   4.652  13.758
 2482TIP3    H257915   5.719   4.684  13.818
 2483TIP3   OH257916   6.441   5.238  13.556
 2483TIP3    H157917   6.478   5.282  13.479
 2483TIP3    H257918   6.391   5.165  13.519
 2484TIP3   OH257919   6.337   5.176  14.022
 2484TIP3    H157920   6.324   5.120  13.946
 2484TIP3    H257921   6.343   5.265  13.987
 2485TIP3   OH257922   6.618   5.321  13.965
 2485TIP3    H157923   6.528   5.348  13.943
 2485TIP3    H257924   6.657   5.300  13.881
 2486TIP3   OH257925   6.361   5.421  13.898
 2486TIP3    H157926   6.397   5.509  13.889
 2486TIP3    H257927   6.308   5.408  13.820
 2487TIP3   OH257928   6.116   5.138  13.809
 2487TIP3    H157929   6.122   5.217  13.755
 2487TIP3    H257930   6.130   5.066  13.747
 2488TIP3   OH257931   5.847   4.357  13.657
 2488TIP3    H157932   5.849   4.447  13.626
 2488TIP3    H257933   5.828   4.305  13.579
 2489TIP3   OH257934   6.675   5.270  13.706
 2489TIP3    H157935   6.594   5.251  13.660
 2489TIP3    H257936   6.731   5.313  13.641
 2490TIP3   OH257937   6.244   4.970  13.605
 2490TIP3    H157938   6.319   4.912  13.598
 2490TIP3    H257939   6.241   5.017  13.521
 2491TIP3   OH257940   6.489   5.668  13.882
 2491TIP3    H157941   6.575   5.643  13.848
 2491TIP3    H257942   6.452   5.722  13.812
 2492TIP3   OH257943   7.497   4.799  13.726
 2492TIP3    H157944   7.453   4.729  13.677
 2492TIP3    H257945   7.460   4.880  13.692
 2493TIP3   OH257946   5.812   3.959  13.791
 2493TIP3    H157947   5.899   3.985  13.759
 2493TIP3    H257948   5.768   3.923  13.714
 2494TIP3   OH257949   6.051   4.067  13.720
 2494TIP3    H157950   6.045   4.065  13.624
 2494TIP3    H257951   6.132   4.117  13.737
 2495TIP3   OH257952   6.730   5.564  13.797
 2495TIP3    H157953   6.825   5.576  13.796
 2495TIP3    H257954   6.709   5.531  13.710
 2496TIP3   OH257955   6.050   5.576  13.789
 2496TIP3    H157956   6.036   5.648  13.727
 2496TIP3    H257957   6.096   5.510  13.738
 2497TIP3   OH257958   7.770   4.805  13.665
 2497TIP3    H157959   7.826   4.774  13.736
 2497TIP3    H257960   7.682   4.803  13.702
 2498TIP3   OH257961   7.832   4.966  13.981
 2498TIP3    H157962   7.737   4.973  13.990
 2498TIP3    H257963   7.852   5.013  13.901
 2499TIP3   OH257964   7.918   5.119  13.767
 2499TIP3    H157965   7.899   5.197  13.715
 2499TIP3    H257966   7.997   5.082  13.728
 2500TIP3   OH257967   0.012   5.036  13.646
 2500TIP3    H157968   0.085   4.975  13.659
 2500TIP3    H257969   0.053   5.118  13.620
 2501TIP3   OH257970   7.651   5.039  13.566
 2501TIP3    H157971   7.671   5.123  13.608
 2501TIP3    H257972   7.575   5.058  13.511
 2502TIP3   OH257973   1.325   7.429  13.754
 2502TIP3    H157974   1.346   7.441  13.662
 2502TIP3    H257975   1.410   7.412  13.796
 2503TIP3   OH257976   1.429   6.719  13.795
 2503TIP3    H157977   1.356   6.684  13.745
 2503TIP3    H257978   1.505   6.709  13.737
 2504TIP3   OH257979   0.904   6.070  13.835
 2504TIP3    H157980   0.816   6.089  13.803
 2504TIP3    H257981   0.936   6.002  13.775
 2505TIP3   OH257982   0.644   6.077  13.701
 2505TIP3    H157983   0.613   5.987  13.698
 2505TIP3    H257984   0.582   6.126  13.647
 2506TIP3   OH257985   1.409   6.262  13.873
 2506TIP3    H157986   1.334   6.264  13.933
 2506TIP3    H257987   1.370   6.265  13.786
 2507TIP3   OH257988   1.677   6.267  13.831
 2507TIP3    H157989   1.586   6.280  13.856
 2507TIP3    H257990   1.718   6.353  13.840
 2508TIP3   OH257991   1.378   6.982  13.873
 2508TIP3    H157992   1.395   6.893  13.841
 2508TIP3    H257993   1.356   7.032  13.795
 2509TIP3   OH257994   0.734   7.140  13.854
 2509TIP3    H157995   0.765   7.050  13.842
 2509TIP3    H257996   0.724   7.174  13.766
 2510TIP3   OH257997   0.926   7.265  14.024
 2510TIP3    H157998   0.861   7.211  13.979
 2510TIP3    H257999   0.984   7.295  13.953
 2511TIP3   OH258000   0.658   7.403  13.917
 2511TIP3    H158001   0.719   7.452  13.862
 2511TIP3    H258002   0.671   7.312  13.893
 2512TIP3   OH258003   0.203   6.280  13.656
 2512TIP3    H158004   0.293   6.263  13.626
 2512TIP3    H258005   0.148   6.238  13.590
 2513TIP3   OH258006   1.039   7.161  13.602
 2513TIP3    H158007   1.002   7.085  13.557
 2513TIP3    H258008   1.134   7.151  13.591
 2514TIP3   OH258009   1.667   6.709  13.640
 2514TIP3    H158010   1.683   6.674  13.553
 2514TIP3    H258011   1.668   6.804  13.628
 2515TIP3   OH258012   0.859   7.545  13.809
 2515TIP3    H158013   0.935   7.489  13.790
 2515TIP3    H258014   0.846   7.596  13.729
 2516TIP3   OH258015   1.807   6.548  13.853
 2516TIP3    H158016   1.753   6.601  13.794
 2516TIP3    H258017   1.897   6.562  13.823
 2517TIP3   OH258018   1.743   6.213  13.553
 2517TIP3    H158019   1.819   6.256  13.514
 2517TIP3    H258020   1.676   6.214  13.485
 2518TIP3   OH258021   1.546   5.988  13.624
 2518TIP3    H158022   1.555   5.962  13.532
 2518TIP3    H258023   1.459   5.957  13.649
 2519TIP3   OH258024   1.815   5.868  13.680
 2519TIP3    H158025   1.761   5.805  13.633
 2519TIP3    H258026   1.904   5.833  13.675
 2520TIP3   OH258027   0.416   5.842  13.677
 2520TIP3    H158028   0.370   5.890  13.608
 2520TIP3    H258029   0.409   5.750  13.651
 2521TIP3   OH258030   1.062   7.357  13.802
 2521TIP3    H158031   1.153   7.388  13.791
 2521TIP3    H258032   1.050   7.293  13.732
 2522TIP3   OH258033   0.199   7.336  13.737
 2522TIP3    H158034   0.264   7.396  13.700
 2522TIP3    H258035   0.249   7.258  13.760
 2523TIP3   OH258036   3.117   6.578  13.937
 2523TIP3    H158037   3.208   6.559  13.915
 2523TIP3    H258038   3.082   6.621  13.859
 2524TIP3   OH258039   3.370   5.698  13.753
 2524TIP3    H158040   3.288   5.648  13.753
 2524TIP3    H258041   3.397   5.699  13.662
 2525TIP3   OH258042   3.350   6.569  13.800
 2525TIP3    H158043   3.330   6.500  13.737
 2525TIP3    H258044   3.378   6.644  13.746
 2526TIP3   OH258045   1.937   6.119  13.784
 2526TIP3    H158046   1.986   6.196  13.755
 2526TIP3    H258047   2.002   6.064  13.826
 2527TIP3   OH258048   2.479   6.368  13.727
 2527TIP3    H158049   2.420   6.341  13.657
 2527TIP3    H258050   2.565   6.335  13.700
 2528TIP3   OH258051   2.943   7.020  14.000
 2528TIP3    H158052   2.895   7.087  13.951
 2528TIP3    H258053   2.975   6.959  13.932
 2529TIP3   OH258054   3.680   6.273  13.995
 2529TIP3    H158055   3.656   6.241  13.908
 2529TIP3    H258056   3.715   6.361  13.979
 2530TIP3   OH258057   2.078   6.612  13.742
 2530TIP3    H158058   2.160   6.661  13.749
 2530TIP3    H258059   2.045   6.631  13.655
 2531TIP3   OH258060   2.819   7.278  13.930
 2531TIP3    H158061   2.740   7.320  13.894
 2531TIP3    H258062   2.879   7.272  13.856
 2532TIP3   OH258063   2.096   6.326  13.703
 2532TIP3    H158064   2.097   6.421  13.719
 2532TIP3    H258065   2.167   6.312  13.640
 2533TIP3   OH258066   2.941   7.284  13.687
 2533TIP3    H158067   2.867   7.281  13.626
 2533TIP3    H258068   3.018   7.275  13.632
 2534TIP3   OH258069   2.997   6.893  13.761
 2534TIP3    H158070   3.002   6.959  13.692
 2534TIP3    H258071   3.022   6.811  13.718
 2535TIP3   OH258072   2.552   6.614  13.810
 2535TIP3    H158073   2.516   6.533  13.776
 2535TIP3    H258074   2.572   6.667  13.733
 2536TIP3   OH258075   3.728   6.509  13.841
 2536TIP3    H158076   3.689   6.440  13.787
 2536TIP3    H258077   3.716   6.589  13.790
 2537TIP3   OH258078   3.630   6.257  13.719
 2537TIP3    H158079   3.651   6.302  13.637
 2537TIP3    H258080   3.595   6.172  13.691
 2538TIP3   OH258081   3.527   6.019  13.609
 2538TIP3    H158082   3.598   5.994  13.549
 2538TIP3    H258083   3.448   6.019  13.554
 2539TIP3   OH258084   3.023   7.508  13.856
 2539TIP3    H158085   3.005   7.591  13.813
 2539TIP3    H258086   3.010   7.442  13.787
 2540TIP3   OH258087   4.860   6.467  13.754
 2540TIP3    H158088   4.852   6.558  13.726
 2540TIP3    H258089   4.840   6.416  13.676
 2541TIP3   OH258090   5.216   6.573  13.930
 2541TIP3    H158091   5.235   6.652  13.981
 2541TIP3    H258092   5.229   6.599  13.839
 2542TIP3   OH258093   5.329   5.809  13.869
 2542TIP3    H158094   5.283   5.729  13.842
 2542TIP3    H258095   5.350   5.853  13.787
 2543TIP3   OH258096   5.620   7.112  13.764
 2543TIP3    H158097   5.591   7.203  13.772
 2543TIP3    H258098   5.706   7.118  13.723
 2544TIP3   OH258099   5.289   6.594  13.659
 2544TIP3    H158100   5.226   6.631  13.597
 2544TIP3    H258101   5.307   6.506  13.626
 2545TIP3   OH258102   4.390   6.287  13.809
 2545TIP3    H158103   4.307   6.258  13.772
 2545TIP3    H258104   4.437   6.327  13.736
 2546TIP3   OH258105   5.022   6.077  13.793
 2546TIP3    H158106   5.020   5.990  13.755
 2546TIP3    H258107   5.030   6.136  13.718
 2547TIP3   OH258108   5.222   6.307  13.895
 2547TIP3    H158109   5.292   6.292  13.832
 2547TIP3    H258110   5.220   6.402  13.906
 2548TIP3   OH258111   5.538   6.273  14.003
 2548TIP3    H158112   5.513   6.248  13.914
 2548TIP3    H258113   5.558   6.367  13.997
 2549TIP3   OH258114   3.998   6.565  13.878
 2549TIP3    H158115   4.034   6.560  13.790
 2549TIP3    H258116   3.905   6.545  13.867
 2550TIP3   OH258117   5.589   7.390  13.766
 2550TIP3    H158118   5.662   7.388  13.704
 2550TIP3    H258119   5.516   7.425  13.716
 2551TIP3   OH258120   4.119   6.857  13.983
 2551TIP3    H158121   4.164   6.917  13.923
 2551TIP3    H258122   4.097   6.781  13.929
 2552TIP3   OH258123   4.531   7.404  14.009
 2552TIP3    H158124   4.578   7.434  13.932
 2552TIP3    H258125   4.458   7.353  13.974
 2553TIP3   OH258126   4.237   7.013  13.784
 2553TIP3    H158127   4.228   7.092  13.732
 2553TIP3    H258128   4.270   6.947  13.722
 2554TIP3   OH258129   4.331   6.819  13.611
 2554TIP3    H158130   4.396   6.769  13.661
 2554TIP3    H258131   4.375   6.839  13.529
 2555TIP3   OH258132   4.443   6.604  13.826
 2555TIP3    H158133   4.350   6.585  13.812
 2555TIP3    H258134   4.488   6.557  13.755
 2556TIP3   OH258135   4.535   6.448  13.620
 2556TIP3    H158136   4.515   6.486  13.535
 2556TIP3    H258137   4.616   6.398  13.607
 2557TIP3   OH258138   5.597   6.695  13.562
 2557TIP3    H158139   5.615   6.602  13.551
 2557TIP3    H258140   5.507   6.698  13.595
 2558TIP3   OH258141   4.664   7.515  13.787
 2558TIP3    H158142   4.706   7.465  13.716
 2558TIP3    H258143   4.625   7.591  13.744
 2559TIP3   OH258144   5.583   6.546  13.938
 2559TIP3    H158145   5.524   6.561  13.864
 2559TIP3    H258146   5.643   6.621  13.937
 2560TIP3   OH258147   5.438   6.234  13.744
 2560TIP3    H158148   5.475   6.287  13.673
 2560TIP3    H258149   5.405   6.155  13.701
 2561TIP3   OH258150   5.338   5.990  13.646
 2561TIP3    H158151   5.390   5.974  13.567
 2561TIP3    H258152   5.249   5.966  13.622
 2562TIP3   OH258153   5.636   5.924  13.779
 2562TIP3    H158154   5.641   5.852  13.716
 2562TIP3    H258155   5.625   6.002  13.725
 2563TIP3   OH258156   4.150   7.499  13.721
 2563TIP3    H158157   4.061   7.467  13.707
 2563TIP3    H258158   4.206   7.429  13.686
 2564TIP3   OH258159   6.705   5.957  13.770
 2564TIP3    H158160   6.782   5.957  13.714
 2564TIP3    H258161   6.631   5.949  13.710
 2565TIP3   OH258162   6.209   6.808  13.607
 2565TIP3    H158163   6.204   6.734  13.668
 2565TIP3    H258164   6.165   6.777  13.528
 2566TIP3   OH258165   6.040   7.441  13.745
 2566TIP3    H158166   5.958   7.461  13.699
 2566TIP3    H258167   6.087   7.382  13.686
 2567TIP3   OH258168   8.104   6.397  13.740
 2567TIP3    H158169   8.045   6.345  13.684
 2567TIP3    H258170   0.047   6.365  13.719
 2568TIP3   OH258171   7.927   6.948  13.829
 2568TIP3    H158172   7.833   6.947  13.811
 2568TIP3    H258173   7.961   6.868  13.788
 2569TIP3   OH258174   0.024   5.936  13.944
 2569TIP3    H158175   0.038   6.001  13.875
 2569TIP3    H258176   0.035   5.852  13.901
 2570TIP3   OH258177   8.107   7.110  13.686
 2570TIP3    H158178   8.027   7.068  13.718
 2570TIP3    H258179   0.022   7.037  13.668
 2571TIP3   OH258180   7.736   6.237  13.736
 2571TIP3    H158181   7.820   6.244  13.691
 2571TIP3    H258182   7.685   6.175  13.684
 2572TIP3   OH258183   8.022   6.739  13.680
 2572TIP3    H158184   8.028   6.644  13.674
 2572TIP3    H258185   8.003   6.768  13.590
 2573TIP3   OH258186   7.661   6.954  13.758
 2573TIP3    H158187   7.678   6.897  13.683
 2573TIP3    H258188   7.571   6.984  13.745
 2574TIP3   OH258189   7.939   7.324  13.553
 2574TIP3    H158190   7.870   7.390  13.546
 2574TIP3    H258191   7.918   7.260  13.486
 2575TIP3   OH258192   0.871   7.840  13.888
 2575TIP3    H158193   0.908   7.921  13.854
 2575TIP3    H258194   0.852   7.787  13.810
 2576TIP3   OH258195   0.643   7.999  13.681
 2576TIP3    H158196   0.726   8.004  13.633
 2576TIP3    H258197   0.576   8.000  13.614
 2577TIP3   OH258198   0.232   0.056  13.724
 2577TIP3    H158199   0.320   0.070  13.689
 2577TIP3    H258200   0.177   0.043  13.646
 2578TIP3   OH258201   0.976   8.061  13.774
 2578TIP3    H158202   0.933   8.063  13.688
 2578TIP3    H258203   1.067   8.036  13.754
 2579TIP3   OH258204   0.623   7.938  13.953
 2579TIP3    H158205   0.600   7.978  13.869
 2579TIP3    H258206   0.714   7.912  13.943
 2580TIP3   OH258207   1.746   7.955  13.571
 2580TIP3    H158208   1.722   7.901  13.646
 2580TIP3    H258209   1.670   7.951  13.513
 2581TIP3   OH258210   1.823   7.732  13.794
 2581TIP3    H158211   1.839   7.685  13.711
 2581TIP3    H258212   1.896   7.793  13.801
 2582TIP3   OH258213   0.401   7.584  13.964
 2582TIP3    H158214   0.396   7.640  13.887
 2582TIP3    H258215   0.312   7.551  13.977
 2583TIP3   OH258216   0.498   7.735  13.731
 2583TIP3    H158217   0.517   7.656  13.681
 2583TIP3    H258218   0.574   7.791  13.716
 2584TIP3   OH258219   2.973   7.752  13.713
 2584TIP3    H158220   2.881   7.758  13.688
 2584TIP3    H258221   3.021   7.765  13.631
 2585TIP3   OH258222   2.577   7.949  13.803
 2585TIP3    H158223   2.609   7.887  13.738
 2585TIP3    H258224   2.526   8.013  13.754
 2586TIP3   OH258225   2.023   7.930  13.946
 2586TIP3    H158226   2.090   7.884  13.896
 2586TIP3    H258227   2.042   8.023  13.933
 2587TIP3   OH258228   3.155   7.950  13.783
 2587TIP3    H158229   3.094   7.878  13.768
 2587TIP3    H258230   3.180   7.978  13.695
 2588TIP3   OH258231   3.659   7.746  13.661
 2588TIP3    H158232   3.646   7.740  13.566
 2588TIP3    H258233   3.612   7.671  13.696
 2589TIP3   OH258234   2.236   7.801  13.796
 2589TIP3    H158235   2.253   7.714  13.759
 2589TIP3    H258236   2.243   7.861  13.723
 2590TIP3   OH258237   4.689   7.879  13.819
 2590TIP3    H158238   4.741   7.948  13.778
 2590TIP3    H258239   4.668   7.819  13.747
 2591TIP3   OH258240   4.395   7.936  13.537
 2591TIP3    H158241   4.323   7.884  13.500
 2591TIP3    H258242   4.391   8.019  13.489
 2592TIP3   OH258243   3.669   7.932  13.859
 2592TIP3    H158244   3.673   8.006  13.799
 2592TIP3    H258245   3.668   7.855  13.802
 2593TIP3   OH258246   4.395   7.871  13.811
 2593TIP3    H158247   4.387   7.905  13.722
 2593TIP3    H258248   4.488   7.877  13.831
 2594TIP3   OH258249   5.276   7.940  13.703
 2594TIP3    H158250   5.329   7.901  13.633
 2594TIP3    H258251   5.216   7.870  13.729
 2595TIP3   OH258252   4.133   7.767  13.853
 2595TIP3    H158253   4.128   7.685  13.804
 2595TIP3    H258254   4.213   7.810  13.821
 2596TIP3   OH258255   6.567   7.828  13.803
 2596TIP3    H158256   6.485   7.847  13.847
 2596TIP3    H258257   6.543   7.766  13.734
 2597TIP3   OH258258   6.821   7.919  13.879
 2597TIP3    H158259   6.738   7.886  13.846
 2597TIP3    H258260   6.877   7.924  13.801
 2598TIP3   OH258261   7.155   7.960  13.669
 2598TIP3    H158262   7.225   7.985  13.609
 2598TIP3    H258263   7.117   7.881  13.630
 2599TIP3   OH258264   7.420   7.767  13.697
 2599TIP3    H158265   7.442   7.716  13.619
 2599TIP3    H258266   7.399   7.855  13.664
 2600TIP3   OH258267   7.979   0.144  13.760
 2600TIP3    H158268   8.048   0.128  13.695
 2600TIP3    H258269   7.926   0.064  13.758
 2601TIP3   OH258270   0.011   7.552  13.704
 2601TIP3    H158271   8.111   7.604  13.637
 2601TIP3    H258272   0.081   7.608  13.736
 2602TIP3   OH258273   7.746   7.392  13.802
 2602TIP3    H158274   7.768   7.461  13.740
 2602TIP3    H258275   7.654   7.371  13.784
 2603TIP3   OH258276   7.834   7.582  13.629
 2603TIP3    H158277   7.908   7.610  13.575
 2603TIP3    H258278   7.760   7.634  13.597
 2604TIP3   OH258279   1.020   0.944  15.013
 2604TIP3    H158280   1.028   0.912  15.103
 2604TIP3    H258281   1.008   0.866  14.960
 2605TIP3   OH258282   1.429   1.170  14.891
 2605TIP3    H158283   1.349   1.190  14.843
 2605TIP3    H258284   1.495   1.156  14.823
 2606TIP3   OH258285   0.466   1.304  15.033
 2606TIP3    H158286   0.548   1.317  14.985
 2606TIP3    H258287   0.490   1.311  15.125
 2607TIP3   OH258288   0.910   1.201  15.046
 2607TIP3    H158289   0.942   1.122  15.001
 2607TIP3    H258290   0.977   1.219  15.112
 2608TIP3   OH258291   0.605   0.487  14.776
 2608TIP3    H158292   0.577   0.570  14.738
 2608TIP3    H258293   0.591   0.422  14.707
 2609TIP3   OH258294   0.310   0.605  14.809
 2609TIP3    H158295   0.373   0.666  14.771
 2609TIP3    H258296   0.292   0.542  14.739
 2610TIP3   OH258297   0.476   0.306  15.238
 2610TIP3    H158298   0.503   0.365  15.168
 2610TIP3    H258299   0.520   0.338  15.316
 2611TIP3   OH258300   0.703   1.105  15.201
 2611TIP3    H158301   0.649   1.177  15.234
 2611TIP3    H258302   0.769   1.148  15.146
 2612TIP3   OH258303   0.638   0.446  15.056
 2612TIP3    H158304   0.690   0.524  15.075
 2612TIP3    H258305   0.619   0.452  14.963
 2613TIP3   OH258306   0.544   1.319  15.299
 2613TIP3    H158307   0.562   1.413  15.305
 2613TIP3    H258308   0.472   1.305  15.361
 2614TIP3   OH258309   0.869   0.057  14.943
 2614TIP3    H158310   0.894   8.128  14.887
 2614TIP3    H258311   0.868   0.021  15.031
 2615TIP3   OH258312   1.587   1.259  15.437
 2615TIP3    H158313   1.591   1.201  15.361
 2615TIP3    H258314   1.603   1.347  15.402
 2616TIP3   OH258315   1.090   1.010  14.386
 2616TIP3    H158316   1.085   1.095  14.342
 2616TIP3    H258317   1.116   0.948  14.318
 2617TIP3   OH258318   1.062   0.726  14.093
 2617TIP3    H158319   1.136   0.773  14.132
 2617TIP3    H258320   1.100   0.645  14.060
 2618TIP3   OH258321   1.789   0.930  15.268
 2618TIP3    H158322   1.706   0.975  15.253
 2618TIP3    H258323   1.839   0.943  15.187
 2619TIP3   OH258324   1.340   0.937  14.499
 2619TIP3    H158325   1.250   0.966  14.481
 2619TIP3    H258326   1.330   0.861  14.556
 2620TIP3   OH258327   0.716   1.354  14.923
 2620TIP3    H158328   0.709   1.315  14.836
 2620TIP3    H258329   0.790   1.309  14.964
 2621TIP3   OH258330   0.661   0.853  15.090
 2621TIP3    H158331   0.682   0.868  14.998
 2621TIP3    H258332   0.669   0.940  15.131
 2622TIP3   OH258333   0.665   1.322  15.569
 2622TIP3    H158334   0.621   1.401  15.599
 2622TIP3    H258335   0.631   1.307  15.481
 2623TIP3   OH258336   1.285   0.860  14.217
 2623TIP3    H158337   1.330   0.893  14.295
 2623TIP3    H258338   1.354   0.853  14.151
 2624TIP3   OH258339   0.532   1.568  15.620
 2624TIP3    H158340   0.535   1.583  15.525
 2624TIP3    H258341   0.441   1.583  15.644
 2625TIP3   OH258342   0.346   1.726  14.659
 2625TIP3    H158343   0.383   1.673  14.729
 2625TIP3    H258344   0.307   1.662  14.599
 2626TIP3   OH258345   0.362   1.331  15.500
 2626TIP3    H158346   0.349   1.284  15.583
 2626TIP3    H258347   0.282   1.382  15.489
 2627TIP3   OH258348   0.637   0.117  15.102
 2627TIP3    H158349   0.696   0.148  15.033
 2627TIP3    H258350   0.571   0.186  15.110
 2628TIP3   OH258351   1.115   0.190  15.358
 2628TIP3    H158352   1.069   0.122  15.406
 2628TIP3    H258353   1.071   0.194  15.273
 2629TIP3   OH258354   0.468   0.688  15.225
 2629TIP3    H158355   0.519   0.699  15.306
 2629TIP3    H258356   0.517   0.736  15.159
 2630TIP3   OH258357   1.000   0.731  15.637
 2630TIP3    H158358   0.980   0.673  15.710
 2630TIP3    H258359   1.060   0.796  15.674
 2631TIP3   OH258360   0.319   0.444  14.586
 2631TIP3    H158361   0.262   0.411  14.516
 2631TIP3    H258362   0.406   0.413  14.564
 2632TIP3   OH258363   1.071   0.851  15.269
 2632TIP3    H158364   1.166   0.868  15.268
 2632TIP3    H258365   1.063   0.763  15.307
 2633TIP3   OH258366   0.891   0.493  14.756
 2633TIP3    H158367   0.798   0.472  14.760
 2633TIP3    H258368   0.935   0.413  14.785
 2634TIP3   OH258369   0.466   0.694  14.609
 2634TIP3    H158370   0.388   0.690  14.553
 2634TIP3    H258371   0.539   0.682  14.549
 2635TIP3   OH258372   0.640   0.614  14.421
 2635TIP3    H158373   0.734   0.605  14.433
 2635TIP3    H258374   0.631   0.659  14.337
 2636TIP3   OH258375   0.588   0.717  14.177
 2636TIP3    H158376   0.502   0.719  14.135
 2636TIP3    H258377   0.650   0.732  14.105
 2637TIP3   OH258378   0.977   0.683  14.930
 2637TIP3    H158379   0.947   0.625  14.860
 2637TIP3    H258380   0.930   0.653  15.008
 2638TIP3   OH258381   0.570   0.315  14.559
 2638TIP3    H158382   0.644   0.258  14.581
 2638TIP3    H258383   0.582   0.334  14.466
 2639TIP3   OH258384   0.817   0.638  15.158
 2639TIP3    H158385   0.770   0.720  15.150
 2639TIP3    H258386   0.871   0.648  15.236
 2640TIP3   OH258387   0.820   1.070  14.483
 2640TIP3    H158388   0.768   1.039  14.409
 2640TIP3    H258389   0.910   1.048  14.461
 2641TIP3   OH258390   1.587   1.118  15.201
 2641TIP3    H158391   1.659   1.156  15.151
 2641TIP3    H258392   1.519   1.100  15.136
 2642TIP3   OH258393   1.055   1.143  15.514
 2642TIP3    H158394   1.087   1.074  15.571
 2642TIP3    H258395   0.989   1.189  15.566
 2643TIP3   OH258396   1.078   1.237  14.230
 2643TIP3    H158397   1.140   1.239  14.158
 2643TIP3    H258398   1.012   1.303  14.207
 2644TIP3   OH258399   0.802   0.923  15.657
 2644TIP3    H158400   0.798   0.948  15.565
 2644TIP3    H258401   0.867   0.852  15.660
 2645TIP3   OH258402   1.801   1.183  15.598
 2645TIP3    H158403   1.718   1.214  15.562
 2645TIP3    H258404   1.864   1.196  15.528
 2646TIP3   OH258405   1.276   1.040  15.086
 2646TIP3    H158406   1.200   1.007  15.038
 2646TIP3    H258407   1.334   1.076  15.019
 2647TIP3   OH258408   0.610   1.435  14.603
 2647TIP3    H158409   0.624   1.529  14.609
 2647TIP3    H258410   0.615   1.416  14.509
 2648TIP3   OH258411   0.689   1.191  14.695
 2648TIP3    H158412   0.659   1.271  14.653
 2648TIP3    H258413   0.740   1.146  14.628
 2649TIP3   OH258414   0.830   1.618  15.229
 2649TIP3    H158415   0.871   1.703  15.216
 2649TIP3    H258416   0.903   1.559  15.246
 2650TIP3   OH258417   0.617   1.710  14.577
 2650TIP3    H158418   0.529   1.742  14.595
 2650TIP3    H258419   0.675   1.779  14.610
 2651TIP3   OH258420   1.101   1.199  15.241
 2651TIP3    H158421   1.090   1.174  15.332
 2651TIP3    H258422   1.172   1.143  15.209
 2652TIP3   OH258423   0.351   0.401  15.487
 2652TIP3    H158424   0.361   0.453  15.566
 2652TIP3    H258425   0.329   0.313  15.519
 2653TIP3   OH258426   1.532   1.129  14.591
 2653TIP3    H158427   1.471   1.070  14.548
 2653TIP3    H258428   1.602   1.143  14.527
 2654TIP3   OH258429   0.215   1.637  15.268
 2654TIP3    H158430   0.306   1.612  15.253
 2654TIP3    H258431   0.220   1.725  15.304
 2655TIP3   OH258432   0.637   1.426  14.326
 2655TIP3    H158433   0.715   1.392  14.281
 2655TIP3    H258434   0.637   1.519  14.306
 2656TIP3   OH258435   1.200   0.458  15.378
 2656TIP3    H158436   1.294   0.470  15.386
 2656TIP3    H258437   1.187   0.363  15.382
 2657TIP3   OH258438   0.900   0.555  14.481
 2657TIP3    H158439   0.976   0.606  14.452
 2657TIP3    H258440   0.914   0.543  14.575
 2658TIP3   OH258441   0.974   0.611  15.388
 2658TIP3    H158442   0.978   0.651  15.475
 2658TIP3    H258443   1.052   0.555  15.384
 2659TIP3   OH258444   1.088   0.242  14.508
 2659TIP3    H158445   1.121   0.199  14.587
 2659TIP3    H258446   1.167   0.256  14.455
 2660TIP3   OH258447   0.622   1.698  14.296
 2660TIP3    H158448   0.665   1.775  14.259
 2660TIP3    H258449   0.631   1.709  14.391
 2661TIP3   OH258450   0.584   0.360  14.279
 2661TIP3    H158451   0.586   0.456  14.272
 2661TIP3    H258452   0.676   0.334  14.278
 2662TIP3   OH258453   0.377   1.389  14.236
 2662TIP3    H158454   0.466   1.399  14.272
 2662TIP3    H258455   0.391   1.370  14.143
 2663TIP3   OH258456   0.398   0.155  14.920
 2663TIP3    H158457   0.401   0.156  14.825
 2663TIP3    H258458   0.434   0.069  14.944
 2664TIP3   OH258459   0.175   1.565  14.513
 2664TIP3    H158460   0.115   1.618  14.459
 2664TIP3    H258461   0.180   1.481  14.467
 2665TIP3   OH258462   0.718   1.700  15.778
 2665TIP3    H158463   0.674   1.704  15.863
 2665TIP3    H258464   0.657   1.652  15.722
 2666TIP3   OH258465   0.841   1.190  15.725
 2666TIP3    H158466   0.776   1.235  15.671
 2666TIP3    H258467   0.821   1.097  15.712
 2667TIP3   OH258468   1.350   1.138  15.512
 2667TIP3    H158469   1.426   1.189  15.484
 2667TIP3    H258470   1.274   1.185  15.478
 2668TIP3   OH258471   0.695   0.964  14.258
 2668TIP3    H158472   0.653   0.880  14.242
 2668TIP3    H258473   0.729   0.991  14.172
 2669TIP3   OH258474   0.632   0.750  15.445
 2669TIP3    H158475   0.598   0.793  15.524
 2669TIP3    H258476   0.701   0.808  15.414
 2670TIP3   OH258477   0.793   0.783  14.008
 2670TIP3    H158478   0.800   0.802  13.914
 2670TIP3    H258479   0.882   0.766  14.036
 2671TIP3   OH258480   1.136   0.956  15.727
 2671TIP3    H158481   1.231   0.953  15.717
 2671TIP3    H258482   1.122   1.002  15.809
 2672TIP3   OH258483   0.694   0.512  15.563
 2672TIP3    H158484   0.712   0.447  15.495
 2672TIP3    H258485   0.682   0.594  15.515
 2673TIP3   OH258486   0.755   0.397  15.314
 2673TIP3    H158487   0.829   0.457  15.320
 2673TIP3    H258488   0.722   0.408  15.225
 2674TIP3   OH258489   0.825   0.933  15.380
 2674TIP3    H158490   0.914   0.921  15.349
 2674TIP3    H258491   0.788   1.000  15.321
 2675TIP3   OH258492   1.412   0.965  15.707
 2675TIP3    H158493   1.391   1.025  15.636
 2675TIP3    H258494   1.506   0.947  15.697
 2676TIP3   OH258495   0.509   0.635  15.728
 2676TIP3    H158496   0.432   0.579  15.739
 2676TIP3    H258497   0.570   0.582  15.677
 2677TIP3   OH258498   0.709   0.133  15.369
 2677TIP3    H158499   0.738   0.224  15.362
 2677TIP3    H258500   0.681   0.110  15.281
 2678TIP3   OH258501   0.863   0.539  15.783
 2678TIP3    H158502   0.895   0.451  15.802
 2678TIP3    H258503   0.810   0.530  15.704
 2679TIP3   OH258504   0.303   0.453  15.755
 2679TIP3    H158505   0.282   0.360  15.741
 2679TIP3    H258506   0.252   0.477  15.832
 2680TIP3   OH258507   0.748   0.141  15.655
 2680TIP3    H158508   0.787   0.054  15.667
 2680TIP3    H258509   0.737   0.149  15.560
 2681TIP3   OH258510   0.886   0.275  15.869
 2681TIP3    H158511   0.876   0.216  15.794
 2681TIP3    H258512   0.797   0.297  15.895
 2682TIP3   OH258513   0.001   1.838  14.539
 2682TIP3    H158514   8.055   1.806  14.526
 2682TIP3    H258515   0.023   1.812  14.628
 2683TIP3   OH258516   0.103   1.752  14.785
 2683TIP3    H158517   0.177   1.746  14.725
 2683TIP3    H258518   0.143   1.774  14.869
 2684TIP3   OH258519   1.692   1.733  15.411
 2684TIP3    H158520   1.665   1.648  15.376
 2684TIP3    H258521   1.787   1.735  15.398
 2685TIP3   OH258522   1.689   1.348  15.851
 2685TIP3    H158523   1.637   1.406  15.796
 2685TIP3    H258524   1.779   1.359  15.821
 2686TIP3   OH258525   1.770   1.117  14.416
 2686TIP3    H158526   1.844   1.174  14.392
 2686TIP3    H258527   1.811   1.043  14.460
 2687TIP3   OH258528   1.848   0.897  14.569
 2687TIP3    H158529   1.762   0.860  14.586
 2687TIP3    H258530   1.889   0.904  14.656
 2688TIP3   OH258531   1.827   1.214  15.107
 2688TIP3    H158532   1.875   1.141  15.070
 2688TIP3    H258533   1.877   1.291  15.082
 2689TIP3   OH258534   1.618   1.488  15.281
 2689TIP3    H158535   1.535   1.481  15.234
 2689TIP3    H258536   1.684   1.477  15.213
 2690TIP3   OH258537   1.846   0.970  14.166
 2690TIP3    H158538   1.780   0.920  14.118
 2690TIP3    H258539   1.795   1.024  14.227
 2691TIP3   OH258540   1.688   0.941  15.685
 2691TIP3    H158541   1.718   0.864  15.637
 2691TIP3    H258542   1.734   1.014  15.643
 2692TIP3   OH258543   1.911   0.072  15.974
 2692TIP3    H158544   1.940   0.055  15.884
 2692TIP3    H258545   1.926   0.166  15.987
 2693TIP3   OH258546   0.337   0.415  15.003
 2693TIP3    H158547   0.372   0.335  14.966
 2693TIP3    H258548   0.345   0.480  14.933
 2694TIP3   OH258549   0.188   0.731  15.030
 2694TIP3    H158550   0.195   0.687  14.945
 2694TIP3    H258551   0.270   0.780  15.038
 2695TIP3   OH258552   0.150   0.354  14.388
 2695TIP3    H158553   0.103   0.398  14.317
 2695TIP3    H258554   0.221   0.307  14.344
 2696TIP3   OH258555   0.260   0.142  15.302
 2696TIP3    H158556   0.347   0.182  15.305
 2696TIP3    H258557   0.230   0.155  15.212
 2697TIP3   OH258558   0.580   1.589  15.340
 2697TIP3    H158559   0.538   1.667  15.304
 2697TIP3    H258560   0.671   1.596  15.314
 2698TIP3   OH258561   0.235   1.890  15.355
 2698TIP3    H158562   0.177   1.962  15.332
 2698TIP3    H258563   0.277   1.917  15.437
 2699TIP3   OH258564   0.467   1.808  15.230
 2699TIP3    H158565   0.392   1.853  15.269
 2699TIP3    H258566   0.516   1.877  15.186
 2700TIP3   OH258567   0.964   1.843  15.158
 2700TIP3    H158568   0.914   1.883  15.087
 2700TIP3    H258569   1.055   1.866  15.139
 2701TIP3   OH258570   0.247   1.775  15.011
 2701TIP3    H158571   0.229   1.742  15.099
 2701TIP3    H258572   0.320   1.722  14.980
 2702TIP3   OH258573   0.436   1.605  14.900
 2702TIP3    H158574   0.440   1.509  14.898
 2702TIP3    H258575   0.524   1.632  14.924
 2703TIP3   OH258576   0.697   1.632  14.985
 2703TIP3    H158577   0.716   1.546  14.947
 2703TIP3    H258578   0.738   1.629  15.071
 2704TIP3   OH258579   1.022   0.274  14.864
 2704TIP3    H158580   0.970   0.202  14.902
 2704TIP3    H258581   1.089   0.230  14.812
 2705TIP3   OH258582   0.401   0.120  14.652
 2705TIP3    H158583   0.455   0.191  14.617
 2705TIP3    H258584   0.393   0.058  14.580
 2706TIP3   OH258585   0.017   0.182  14.175
 2706TIP3    H158586   0.058   0.166  14.090
 2706TIP3    H258587   0.087   0.166  14.238
 2707TIP3   OH258588   0.748   0.137  14.688
 2707TIP3    H158589   0.807   0.097  14.624
 2707TIP3    H258590   0.794   0.128  14.771
 2708TIP3   OH258591   1.209   0.114  14.736
 2708TIP3    H158592   1.238   0.056  14.666
 2708TIP3    H258593   1.249   0.078  14.815
 2709TIP3   OH258594   0.331   0.250  14.218
 2709TIP3    H158595   0.318   0.232  14.125
 2709TIP3    H258596   0.423   0.277  14.224
 2710TIP3   OH258597   0.837   0.296  14.400
 2710TIP3    H158598   0.921   0.257  14.425
 2710TIP3    H258599   0.848   0.390  14.416
 2711TIP3   OH258600   1.704   1.850  14.446
 2711TIP3    H158601   1.764   1.818  14.379
 2711TIP3    H258602   1.656   1.921  14.403
 2712TIP3   OH258603   0.273   0.192  15.655
 2712TIP3    H158604   0.232   0.109  15.631
 2712TIP3    H258605   0.352   0.167  15.703
 2713TIP3   OH258606   0.503   0.138  15.798
 2713TIP3    H158607   0.588   0.161  15.760
 2713TIP3    H258608   0.494   0.044  15.783
 2714TIP3   OH258609   0.408   1.739  14.024
 2714TIP3    H158610   0.429   1.699  14.109
 2714TIP3    H258611   0.489   1.735  13.974
 2715TIP3   OH258612   3.026   0.916  15.086
 2715TIP3    H158613   2.997   0.827  15.103
 2715TIP3    H258614   2.957   0.971  15.121
 2716TIP3   OH258615   2.210   0.898  15.183
 2716TIP3    H158616   2.182   0.815  15.222
 2716TIP3    H258617   2.240   0.950  15.258
 2717TIP3   OH258618   2.252   1.330  14.988
 2717TIP3    H158619   2.266   1.236  14.976
 2717TIP3    H258620   2.292   1.370  14.911
 2718TIP3   OH258621   2.010   0.692  14.447
 2718TIP3    H158622   1.951   0.766  14.462
 2718TIP3    H258623   2.027   0.693  14.353
 2719TIP3   OH258624   2.027   0.905  14.797
 2719TIP3    H158625   2.055   0.816  14.818
 2719TIP3    H258626   2.093   0.938  14.736
 2720TIP3   OH258627   2.999   1.809  14.795
 2720TIP3    H158628   3.083   1.763  14.794
 2720TIP3    H258629   3.009   1.874  14.865
 2721TIP3   OH258630   2.403   0.479  14.757
 2721TIP3    H158631   2.336   0.531  14.712
 2721TIP3    H258632   2.420   0.407  14.697
 2722TIP3   OH258633   2.102   0.650  14.873
 2722TIP3    H158634   2.161   0.601  14.930
 2722TIP3    H258635   2.117   0.613  14.786
 2723TIP3   OH258636   3.745   0.544  15.388
 2723TIP3    H158637   3.679   0.553  15.319
 2723TIP3    H258638   3.730   0.619  15.445
 2724TIP3   OH258639   2.327   0.353  15.245
 2724TIP3    H158640   2.300   0.401  15.167
 2724TIP3    H258641   2.251   0.356  15.303
 2725TIP3   OH258642   2.548   1.123  15.304
 2725TIP3    H158643   2.476   1.184  15.287
 2725TIP3    H258644   2.594   1.117  15.220
 2726TIP3   OH258645   2.300   0.504  15.011
 2726TIP3    H158646   2.354   0.574  15.049
 2726TIP3    H258647   2.343   0.485  14.927
 2727TIP3   OH258648   2.356   1.304  15.245
 2727TIP3    H158649   2.327   1.323  15.156
 2727TIP3    H258650   2.288   1.341  15.301
 2728TIP3   OH258651   1.997   1.280  14.355
 2728TIP3    H158652   2.008   1.297  14.262
 2728TIP3    H258653   1.999   1.366  14.396
 2729TIP3   OH258654   3.401   1.530  15.108
 2729TIP3    H158655   3.353   1.502  15.030
 2729TIP3    H258656   3.433   1.617  15.085
 2730TIP3   OH258657   3.439   0.171  15.289
 2730TIP3    H158658   3.347   0.196  15.289
 2730TIP3    H258659   3.481   0.234  15.230
 2731TIP3   OH258660   2.613   0.067  14.918
 2731TIP3    H158661   2.666   0.022  14.984
 2731TIP3    H258662   2.540   0.104  14.967
 2732TIP3   OH258663   3.220   1.624  14.775
 2732TIP3    H158664   3.232   1.534  14.746
 2732TIP3    H258665   3.298   1.670  14.744
 2733TIP3   OH258666   3.490   1.245  15.460
 2733TIP3    H158667   3.467   1.192  15.384
 2733TIP3    H258668   3.489   1.335  15.429
 2734TIP3   OH258669   3.642   0.898  15.253
 2734TIP3    H158670   3.576   0.968  15.253
 2734TIP3    H258671   3.698   0.919  15.179
 2735TIP3   OH258672   3.326   1.069  14.485
 2735TIP3    H158673   3.268   1.095  14.556
 2735TIP3    H258674   3.369   0.989  14.517
 2736TIP3   OH258675   2.261   0.979  15.479
 2736TIP3    H158676   2.273   1.066  15.518
 2736TIP3    H258677   2.167   0.971  15.466
 2737TIP3   OH258678   3.571   0.068  14.265
 2737TIP3    H158679   3.539   0.035  14.181
 2737TIP3    H258680   3.666   0.055  14.261
 2738TIP3   OH258681   2.333   0.921  14.520
 2738TIP3    H158682   2.315   1.003  14.475
 2738TIP3    H258683   2.291   0.854  14.466
 2739TIP3   OH258684   3.543   1.577  14.016
 2739TIP3    H158685   3.586   1.661  14.033
 2739TIP3    H258686   3.585   1.545  13.936
 2740TIP3   OH258687   1.945   1.204  15.363
 2740TIP3    H158688   1.900   1.207  15.278
 2740TIP3    H258689   1.966   1.112  15.375
 2741TIP3   OH258690   1.997   1.421  15.059
 2741TIP3    H158691   2.083   1.384  15.039
 2741TIP3    H258692   2.008   1.515  15.046
 2742TIP3   OH258693   2.223   1.657  14.745
 2742TIP3    H158694   2.316   1.640  14.733
 2742TIP3    H258695   2.183   1.637  14.661
 2743TIP3   OH258696   3.308   1.620  14.275
 2743TIP3    H158697   3.222   1.658  14.294
 2743TIP3    H258698   3.369   1.670  14.329
 2744TIP3   OH258699   3.432   0.659  15.567
 2744TIP3    H158700   3.359   0.713  15.594
 2744TIP3    H258701   3.401   0.569  15.578
 2745TIP3   OH258702   2.146   1.388  15.406
 2745TIP3    H158703   2.184   1.343  15.482
 2745TIP3    H258704   2.069   1.336  15.384
 2746TIP3   OH258705   2.385   0.140  15.064
 2746TIP3    H158706   2.315   0.159  15.001
 2746TIP3    H258707   2.374   0.207  15.132
 2747TIP3   OH258708   2.434   0.715  15.129
 2747TIP3    H158709   2.437   0.723  15.225
 2747TIP3    H258710   2.370   0.780  15.102
 2748TIP3   OH258711   2.180   0.660  15.331
 2748TIP3    H158712   2.266   0.675  15.369
 2748TIP3    H258713   2.155   0.573  15.363
 2749TIP3   OH258714   2.169   0.555  14.620
 2749TIP3    H158715   2.119   0.616  14.565
 2749TIP3    H258716   2.162   0.471  14.575
 2750TIP3   OH258717   3.533   1.950  15.684
 2750TIP3    H158718   3.464   1.961  15.618
 2750TIP3    H258719   3.606   2.002  15.651
 2751TIP3   OH258720   2.263   1.232  15.609
 2751TIP3    H158721   2.347   1.279  15.611
 2751TIP3    H258722   2.215   1.268  15.683
 2752TIP3   OH258723   2.407   0.282  14.558
 2752TIP3    H158724   2.323   0.237  14.564
 2752TIP3    H258725   2.409   0.316  14.468
 2753TIP3   OH258726   3.465   1.107  15.213
 2753TIP3    H158727   3.533   1.160  15.171
 2753TIP3    H258728   3.402   1.090  15.144
 2754TIP3   OH258729   2.305   1.061  14.968
 2754TIP3    H158730   2.348   1.005  14.903
 2754TIP3    H258731   2.273   1.001  15.035
 2755TIP3   OH258732   1.991   0.945  15.450
 2755TIP3    H158733   1.979   0.904  15.536
 2755TIP3    H258734   1.918   0.913  15.398
 2756TIP3   OH258735   3.715   1.214  15.605
 2756TIP3    H158736   3.630   1.236  15.566
 2756TIP3    H258737   3.776   1.216  15.531
 2757TIP3   OH258738   3.575   1.446  14.279
 2757TIP3    H158739   3.598   1.363  14.321
 2757TIP3    H258740   3.645   1.506  14.305
 2758TIP3   OH258741   3.279   1.014  15.005
 2758TIP3    H158742   3.194   0.985  15.040
 2758TIP3    H258743   3.312   0.937  14.957
 2759TIP3   OH258744   2.123   0.965  14.133
 2759TIP3    H158745   2.149   0.998  14.047
 2759TIP3    H258746   2.028   0.976  14.136
 2760TIP3   OH258747   3.312   1.691  15.455
 2760TIP3    H158748   3.220   1.665  15.444
 2760TIP3    H258749   3.325   1.760  15.391
 2761TIP3   OH258750   2.126   0.404  15.458
 2761TIP3    H158751   2.034   0.417  15.482
 2761TIP3    H258752   2.155   0.330  15.512
 2762TIP3   OH258753   3.362   1.271  14.236
 2762TIP3    H158754   3.287   1.215  14.261
 2762TIP3    H258755   3.437   1.229  14.277
 2763TIP3   OH258756   2.209   1.621  15.263
 2763TIP3    H158757   2.181   1.544  15.313
 2763TIP3    H258758   2.170   1.695  15.310
 2764TIP3   OH258759   2.229   1.114  14.350
 2764TIP3    H158760   2.156   1.175  14.358
 2764TIP3    H258761   2.212   1.068  14.268
 2765TIP3   OH258762   3.125   0.281  14.387
 2765TIP3    H158763   3.152   0.278  14.295
 2765TIP3    H258764   3.205   0.301  14.435
 2766TIP3   OH258765   2.883   0.265  14.539
 2766TIP3    H158766   2.815   0.318  14.497
 2766TIP3    H258767   2.961   0.279  14.485
 2767TIP3   OH258768   2.430   0.394  14.296
 2767TIP3    H158769   2.370   0.464  14.272
 2767TIP3    H258770   2.445   0.345  14.215
 2768TIP3   OH258771   3.344   0.773  14.871
 2768TIP3    H158772   3.272   0.718  14.840
 2768TIP3    H258773   3.396   0.715  14.927
 2769TIP3   OH258774   2.081   0.690  14.179
 2769TIP3    H158775   2.102   0.782  14.162
 2769TIP3    H258776   2.080   0.650  14.092
 2770TIP3   OH258777   3.490   1.784  15.052
 2770TIP3    H158778   3.480   1.836  14.973
 2770TIP3    H258779   3.581   1.798  15.078
 2771TIP3   OH258780   2.170   0.154  14.890
 2771TIP3    H158781   2.176   0.178  14.798
 2771TIP3    H258782   2.111   0.078  14.891
 2772TIP3   OH258783   2.096   1.620  14.492
 2772TIP3    H158784   2.016   1.656  14.453
 2772TIP3    H258785   2.157   1.611  14.418
 2773TIP3   OH258786   2.416   1.630  15.847
 2773TIP3    H158787   2.428   1.559  15.910
 2773TIP3    H258788   2.451   1.594  15.765
 2774TIP3   OH258789   1.956   1.122  15.822
 2774TIP3    H158790   1.995   1.042  15.785
 2774TIP3    H258791   1.904   1.159  15.751
 2775TIP3   OH258792   2.060   0.878  15.715
 2775TIP3    H158793   2.148   0.872  15.677
 2775TIP3    H258794   2.072   0.861  15.808
 2776TIP3   OH258795   2.428   0.770  15.403
 2776TIP3    H158796   2.379   0.847  15.432
 2776TIP3    H258797   2.518   0.786  15.431
 2777TIP3   OH258798   2.589   0.375  15.333
 2777TIP3    H158799   2.597   0.465  15.365
 2777TIP3    H258800   2.500   0.369  15.300
 2778TIP3   OH258801   2.636   0.103  15.349
 2778TIP3    H158802   2.639   0.199  15.346
 2778TIP3    H258803   2.542   0.083  15.351
 2779TIP3   OH258804   3.205   0.279  15.910
 2779TIP3    H158805   3.223   0.189  15.882
 2779TIP3    H258806   3.117   0.276  15.946
 2780TIP3   OH258807   2.197   0.455  15.811
 2780TIP3    H158808   2.210   0.450  15.716
 2780TIP3    H258809   2.162   0.369  15.834
 2781TIP3   OH258810   2.057   1.360  14.102
 2781TIP3    H158811   2.143   1.402  14.092
 2781TIP3    H258812   2.030   1.340  14.013
 2782TIP3   OH258813   1.865   1.934  14.666
 2782TIP3    H158814   1.817   1.906  14.588
 2782TIP3    H258815   1.870   1.855  14.720
 2783TIP3   OH258816   1.899   1.705  14.813
 2783TIP3    H158817   1.933   1.630  14.764
 2783TIP3    H258818   1.956   1.710  14.890
 2784TIP3   OH258819   3.751   1.805  15.147
 2784TIP3    H158820   3.739   1.756  15.228
 2784TIP3    H258821   3.814   1.753  15.097
 2785TIP3   OH258822   3.703   1.696  15.389
 2785TIP3    H158823   3.645   1.620  15.398
 2785TIP3    H258824   3.741   1.707  15.476
 2786TIP3   OH258825   3.508   1.271  15.912
 2786TIP3    H158826   3.491   1.294  15.821
 2786TIP3    H258827   3.555   1.347  15.947
 2787TIP3   OH258828   3.633   1.191  14.370
 2787TIP3    H158829   3.726   1.204  14.352
 2787TIP3    H258830   3.630   1.130  14.443
 2788TIP3   OH258831   3.710   0.932  14.570
 2788TIP3    H158832   3.624   0.902  14.596
 2788TIP3    H258833   3.759   0.940  14.652
 2789TIP3   OH258834   3.717   1.210  15.130
 2789TIP3    H158835   3.761   1.140  15.083
 2789TIP3    H258836   3.743   1.291  15.085
 2790TIP3   OH258837   3.495   1.503  15.365
 2790TIP3    H158838   3.430   1.562  15.403
 2790TIP3    H258839   3.473   1.500  15.272
 2791TIP3   OH258840   3.732   0.972  14.187
 2791TIP3    H158841   3.691   0.995  14.103
 2791TIP3    H258842   3.671   1.005  14.253
 2792TIP3   OH258843   3.448   0.830  14.614
 2792TIP3    H158844   3.442   0.744  14.573
 2792TIP3    H258845   3.415   0.817  14.703
 2793TIP3   OH258846   1.966   0.977  15.057
 2793TIP3    H158847   1.977   0.961  14.963
 2793TIP3    H258848   2.051   0.957  15.095
 2794TIP3   OH258849   3.597   0.975  15.706
 2794TIP3    H158850   3.642   0.906  15.658
 2794TIP3    H258851   3.625   1.056  15.662
 2795TIP3   OH258852   3.694   0.735  15.590
 2795TIP3    H158853   3.601   0.718  15.583
 2795TIP3    H258854   3.722   0.686  15.667
 2796TIP3   OH258855   3.449   0.572  14.474
 2796TIP3    H158856   3.446   0.476  14.478
 2796TIP3    H258857   3.497   0.591  14.393
 2797TIP3   OH258858   3.485   0.600  15.034
 2797TIP3    H158859   3.577   0.607  15.009
 2797TIP3    H258860   3.483   0.618  15.128
 2798TIP3   OH258861   3.491   0.670  15.298
 2798TIP3    H158862   3.468   0.675  15.391
 2798TIP3    H258863   3.539   0.751  15.282
 2799TIP3   OH258864   3.445   0.281  14.457
 2799TIP3    H158865   3.490   0.252  14.536
 2799TIP3    H258866   3.482   0.226  14.388
 2800TIP3   OH258867   2.060   0.306  15.104
 2800TIP3    H158868   2.098   0.262  15.028
 2800TIP3    H258869   2.030   0.391  15.070
 2801TIP3   OH258870   1.873   0.653  15.036
 2801TIP3    H158871   1.942   0.652  14.970
 2801TIP3    H258872   1.883   0.736  15.081
 2802TIP3   OH258873   2.053   0.322  14.424
 2802TIP3    H158874   1.988   0.392  14.434
 2802TIP3    H258875   2.066   0.315  14.329
 2803TIP3   OH258876   3.448   1.727  14.665
 2803TIP3    H158877   3.480   1.742  14.576
 2803TIP3    H258878   3.467   1.808  14.712
 2804TIP3   OH258879   2.152   1.394  15.805
 2804TIP3    H158880   2.081   1.454  15.784
 2804TIP3    H258881   2.222   1.451  15.837
 2805TIP3   OH258882   3.624   0.047  15.480
 2805TIP3    H158883   3.540   0.080  15.447
 2805TIP3    H258884   3.683   0.054  15.404
 2806TIP3   OH258885   2.156   1.899  15.339
 2806TIP3    H158886   2.103   1.930  15.265
 2806TIP3    H258887   2.247   1.913  15.310
 2807TIP3   OH258888   3.069   1.754  15.289
 2807TIP3    H158889   3.016   1.817  15.337
 2807TIP3    H258890   3.147   1.802  15.262
 2808TIP3   OH258891   3.320   1.879  15.249
 2808TIP3    H158892   3.331   1.972  15.229
 2808TIP3    H258893   3.374   1.834  15.185
 2809TIP3   OH258894   2.107   1.675  15.002
 2809TIP3    H158895   2.164   1.655  15.075
 2809TIP3    H258896   2.163   1.669  14.925
 2810TIP3   OH258897   3.421   0.086  14.870
 2810TIP3    H158898   3.484   0.138  14.818
 2810TIP3    H258899   3.385   0.023  14.808
 2811TIP3   OH258900   3.604   0.182  14.672
 2811TIP3    H158901   3.657   0.107  14.647
 2811TIP3    H258902   3.668   0.251  14.693
 2812TIP3   OH258903   2.163   0.148  14.608
 2812TIP3    H158904   2.112   0.201  14.547
 2812TIP3    H258905   2.136   0.058  14.589
 2813TIP3   OH258906   2.569   0.069  14.642
 2813TIP3    H158907   2.527   0.152  14.616
 2813TIP3    H258908   2.600   0.086  14.731
 2814TIP3   OH258909   3.114   0.020  14.296
 2814TIP3    H158910   3.101   0.106  14.337
 2814TIP3    H258911   3.199   8.135  14.327
 2815TIP3   OH258912   3.535   1.732  14.392
 2815TIP3    H158913   3.627   1.706  14.393
 2815TIP3    H258914   3.537   1.823  14.362
 2816TIP3   OH258915   2.177   0.210  15.654
 2816TIP3    H158916   2.109   0.145  15.667
 2816TIP3    H258917   2.251   0.178  15.706
 2817TIP3   OH258918   2.372   0.105  15.824
 2817TIP3    H158919   2.461   0.121  15.792
 2817TIP3    H258920   2.372   0.012  15.847
 2818TIP3   OH258921   3.224   0.007  15.850
 2818TIP3    H158922   3.286   8.081  15.870
 2818TIP3    H258923   3.209   8.143  15.756
 2819TIP3   OH258924   3.439   1.682  15.708
 2819TIP3    H158925   3.395   1.675  15.623
 2819TIP3    H258926   3.483   1.766  15.705
 2820TIP3   OH258927   4.072   0.871  15.156
 2820TIP3    H158928   4.086   0.802  15.221
 2820TIP3    H258929   4.159   0.890  15.122
 2821TIP3   OH258930   5.207   1.242  14.904
 2821TIP3    H158931   5.138   1.209  14.961
 2821TIP3    H258932   5.245   1.315  14.953
 2822TIP3   OH258933   4.210   1.281  15.062
 2822TIP3    H158934   4.154   1.234  15.000
 2822TIP3    H258935   4.283   1.313  15.009
 2823TIP3   OH258936   3.859   0.702  14.474
 2823TIP3    H158937   3.816   0.783  14.501
 2823TIP3    H258938   3.819   0.681  14.389
 2824TIP3   OH258939   3.898   0.920  14.796
 2824TIP3    H158940   3.929   0.829  14.799
 2824TIP3    H258941   3.977   0.972  14.810
 2825TIP3   OH258942   4.953   1.736  14.871
 2825TIP3    H158943   5.006   1.690  14.806
 2825TIP3    H258944   4.890   1.671  14.901
 2826TIP3   OH258945   5.548   0.379  15.133
 2826TIP3    H158946   5.479   0.381  15.067
 2826TIP3    H258947   5.630   0.384  15.084
 2827TIP3   OH258948   3.978   0.647  14.831
 2827TIP3    H158949   4.053   0.625  14.887
 2827TIP3    H258950   4.004   0.619  14.743
 2828TIP3   OH258951   4.464   0.797  14.835
 2828TIP3    H158952   4.550   0.759  14.851
 2828TIP3    H258953   4.422   0.738  14.773
 2829TIP3   OH258954   4.940   1.307  14.538
 2829TIP3    H158955   4.924   1.299  14.444
 2829TIP3    H258956   4.886   1.381  14.566
 2830TIP3   OH258957   4.484   1.087  15.195
 2830TIP3    H158958   4.433   1.154  15.239
 2830TIP3    H258959   4.563   1.133  15.165
 2831TIP3   OH258960   5.346   0.345  14.943
 2831TIP3    H158961   5.327   0.253  14.922
 2831TIP3    H258962   5.404   0.375  14.873
 2832TIP3   OH258963   4.226   0.577  14.932
 2832TIP3    H158964   4.277   0.607  15.008
 2832TIP3    H258965   4.277   0.605  14.856
 2833TIP3   OH258966   4.313   1.274  15.313
 2833TIP3    H158967   4.279   1.283  15.224
 2833TIP3    H258968   4.237   1.288  15.369
 2834TIP3   OH258969   3.885   1.301  14.313
 2834TIP3    H158970   3.911   1.318  14.222
 2834TIP3    H258971   3.875   1.389  14.351
 2835TIP3   OH258972   5.265   1.461  15.071
 2835TIP3    H158973   5.171   1.457  15.088
 2835TIP3    H258974   5.281   1.550  15.039
 2836TIP3   OH258975   5.341   0.246  15.270
 2836TIP3    H158976   5.257   0.277  15.237
 2836TIP3    H258977   5.406   0.307  15.235
 2837TIP3   OH258978   5.114   1.635  14.670
 2837TIP3    H158979   5.148   1.546  14.662
 2837TIP3    H258980   5.193   1.689  14.682
 2838TIP3   OH258981   5.183   1.372  14.653
 2838TIP3    H158982   5.106   1.336  14.610
 2838TIP3    H258983   5.196   1.316  14.730
 2839TIP3   OH258984   5.406   1.240  15.365
 2839TIP3    H158985   5.458   1.216  15.288
 2839TIP3    H258986   5.389   1.334  15.354
 2840TIP3   OH258987   4.862   1.006  14.378
 2840TIP3    H158988   4.811   1.083  14.404
 2840TIP3    H258989   4.817   0.974  14.300
 2841TIP3   OH258990   4.328   1.003  14.690
 2841TIP3    H158991   4.308   0.970  14.602
 2841TIP3    H258992   4.387   0.937  14.727
 2842TIP3   OH258993   4.427   1.352  14.911
 2842TIP3    H158994   4.412   1.388  14.824
 2842TIP3    H258995   4.522   1.342  14.917
 2843TIP3   OH258996   4.330   0.909  15.054
 2843TIP3    H158997   4.380   0.884  14.977
 2843TIP3    H258998   4.385   0.974  15.098
 2844TIP3   OH258999   5.005   1.448  15.146
 2844TIP3    H159000   4.981   1.532  15.186
 2844TIP3    H259001   4.926   1.394  15.153
 2845TIP3   OH259002   4.512   1.335  15.500
 2845TIP3    H159003   4.555   1.413  15.464
 2845TIP3    H259004   4.445   1.313  15.435
 2846TIP3   OH259005   4.113   0.910  15.532
 2846TIP3    H159006   4.123   0.996  15.573
 2846TIP3    H259007   4.029   0.914  15.487
 2847TIP3   OH259008   4.848   1.565  14.609
 2847TIP3    H159009   4.939   1.591  14.622
 2847TIP3    H259010   4.810   1.635  14.557
 2848TIP3   OH259011   5.477   0.079  14.239
 2848TIP3    H159012   5.389   0.108  14.260
 2848TIP3    H259013   5.481   0.079  14.143
 2849TIP3   OH259014   4.242   0.916  14.434
 2849TIP3    H159015   4.203   0.995  14.397
 2849TIP3    H259016   4.176   0.848  14.424
 2850TIP3   OH259017   5.528   1.478  14.180
 2850TIP3    H159018   5.556   1.564  14.146
 2850TIP3    H259019   5.599   1.419  14.156
 2851TIP3   OH259020   3.863   1.184  15.373
 2851TIP3    H159021   3.811   1.203  15.295
 2851TIP3    H259022   3.865   1.088  15.377
 2852TIP3   OH259023   3.826   1.441  15.014
 2852TIP3    H159024   3.845   1.511  14.952
 2852TIP3    H259025   3.866   1.470  15.096
 2853TIP3   OH259026   5.610   1.558  15.620
 2853TIP3    H159027   5.608   1.465  15.595
 2853TIP3    H259028   5.523   1.574  15.657
 2854TIP3   OH259029   4.799   1.818  14.480
 2854TIP3    H159030   4.772   1.813  14.388
 2854TIP3    H259031   4.786   1.910  14.503
 2855TIP3   OH259032   5.023   1.745  14.164
 2855TIP3    H159033   5.095   1.702  14.117
 2855TIP3    H259034   5.058   1.762  14.252
 2856TIP3   OH259035   5.073   1.797  14.440
 2856TIP3    H159036   4.978   1.805  14.450
 2856TIP3    H259037   5.099   1.733  14.506
 2857TIP3   OH259038   4.087   1.315  15.467
 2857TIP3    H159039   4.101   1.258  15.543
 2857TIP3    H259040   4.007   1.281  15.427
 2858TIP3   OH259041   4.362   0.653  15.165
 2858TIP3    H159042   4.298   0.648  15.236
 2858TIP3    H259043   4.360   0.745  15.138
 2859TIP3   OH259044   4.327   0.626  14.670
 2859TIP3    H159045   4.237   0.611  14.640
 2859TIP3    H259046   4.380   0.617  14.591
 2860TIP3   OH259047   4.785   0.715  15.662
 2860TIP3    H159048   4.807   0.626  15.689
 2860TIP3    H259049   4.830   0.726  15.578
 2861TIP3   OH259050   4.153   0.685  15.349
 2861TIP3    H159051   4.144   0.741  15.426
 2861TIP3    H259052   4.107   0.604  15.372
 2862TIP3   OH259053   3.815   0.358  14.724
 2862TIP3    H159054   3.821   0.392  14.813
 2862TIP3    H259055   3.839   0.432  14.668
 2863TIP3   OH259056   4.067   0.558  14.581
 2863TIP3    H159057   3.999   0.609  14.537
 2863TIP3    H259058   4.094   0.493  14.515
 2864TIP3   OH259059   4.466   0.605  14.429
 2864TIP3    H159060   4.562   0.600  14.430
 2864TIP3    H259061   4.444   0.630  14.340
 2865TIP3   OH259062   5.137   0.362  15.129
 2865TIP3    H159063   5.055   0.392  15.089
 2865TIP3    H259064   5.201   0.368  15.058
 2866TIP3   OH259065   5.381   1.909  15.721
 2866TIP3    H159066   5.398   1.950  15.636
 2866TIP3    H259067   5.461   1.923  15.771
 2867TIP3   OH259068   4.117   1.147  15.686
 2867TIP3    H159069   4.188   1.156  15.750
 2867TIP3    H259070   4.037   1.163  15.736
 2868TIP3   OH259071   4.699   0.656  14.885
 2868TIP3    H159072   4.793   0.668  14.872
 2868TIP3    H259073   4.690   0.632  14.977
 2869TIP3   OH259074   4.640   0.590  15.144
 2869TIP3    H159075   4.547   0.605  15.163
 2869TIP3    H259076   4.673   0.545  15.221
 2870TIP3   OH259077   4.641   1.188  14.382
 2870TIP3    H159078   4.587   1.119  14.344
 2870TIP3    H259079   4.610   1.197  14.471
 2871TIP3   OH259080   4.135   1.048  14.882
 2871TIP3    H159081   4.196   1.051  14.808
 2871TIP3    H259082   4.187   1.010  14.953
 2872TIP3   OH259083   3.853   0.905  15.434
 2872TIP3    H159084   3.814   0.852  15.504
 2872TIP3    H259085   3.791   0.896  15.361
 2873TIP3   OH259086   4.575   0.900  15.693
 2873TIP3    H159087   4.515   0.891  15.618
 2873TIP3    H259088   4.649   0.843  15.671
 2874TIP3   OH259089   5.611   1.294  15.549
 2874TIP3    H159090   5.529   1.267  15.508
 2874TIP3    H259091   5.679   1.246  15.501
 2875TIP3   OH259092   5.419   1.536  14.424
 2875TIP3    H159093   5.358   1.467  14.448
 2875TIP3    H259094   5.453   1.509  14.338
 2876TIP3   OH259095   4.413   1.457  14.655
 2876TIP3    H159096   4.466   1.534  14.677
 2876TIP3    H259097   4.371   1.481  14.572
 2877TIP3   OH259098   4.000   0.959  14.122
 2877TIP3    H159099   4.042   1.015  14.187
 2877TIP3    H259100   3.907   0.961  14.144
 2878TIP3   OH259101   4.516   1.201  14.625
 2878TIP3    H159102   4.482   1.290  14.634
 2878TIP3    H259103   4.445   1.144  14.654
 2879TIP3   OH259104   4.661   1.619  15.365
 2879TIP3    H159105   4.673   1.692  15.304
 2879TIP3    H259106   4.682   1.656  15.451
 2880TIP3   OH259107   5.169   1.688  15.459
 2880TIP3    H159108   5.092   1.659  15.411
 2880TIP3    H259109   5.208   1.755  15.403
 2881TIP3   OH259110   5.603   1.739  14.111
 2881TIP3    H159111   5.622   1.748  14.017
 2881TIP3    H259112   5.546   1.813  14.131
 2882TIP3   OH259113   4.004   0.469  15.436
 2882TIP3    H159114   3.916   0.485  15.401
 2882TIP3    H259115   3.988   0.439  15.525
 2883TIP3   OH259116   3.951   1.524  15.241
 2883TIP3    H159117   4.030   1.471  15.247
 2883TIP3    H259118   3.936   1.555  15.331
 2884TIP3   OH259119   4.458   1.402  14.279
 2884TIP3    H159120   4.505   1.321  14.297
 2884TIP3    H259121   4.527   1.468  14.272
 2885TIP3   OH259122   4.113   1.130  14.312
 2885TIP3    H159123   4.036   1.184  14.330
 2885TIP3    H259124   4.178   1.193  14.280
 2886TIP3   OH259125   4.888   0.430  15.306
 2886TIP3    H159126   4.967   0.416  15.360
 2886TIP3    H259127   4.864   0.342  15.276
 2887TIP3   OH259128   4.927   0.277  14.361
 2887TIP3    H159129   4.870   0.254  14.288
 2887TIP3    H259130   4.985   0.344  14.325
 2888TIP3   OH259131   4.681   1.559  14.267
 2888TIP3    H159132   4.702   1.648  14.240
 2888TIP3    H259133   4.758   1.507  14.245
 2889TIP3   OH259134   4.850   0.194  14.620
 2889TIP3    H159135   4.796   0.265  14.653
 2889TIP3    H259136   4.877   0.222  14.533
 2890TIP3   OH259137   4.022   0.701  14.024
 2890TIP3    H159138   4.032   0.792  14.052
 2890TIP3    H259139   3.927   0.690  14.012
 2891TIP3   OH259140   5.339   1.726  15.041
 2891TIP3    H159141   5.318   1.803  14.986
 2891TIP3    H259142   5.434   1.728  15.049
 2892TIP3   OH259143   5.248   1.632  14.044
 2892TIP3    H159144   5.300   1.555  14.068
 2892TIP3    H259145   5.302   1.678  13.980
 2893TIP3   OH259146   3.871   1.173  15.825
 2893TIP3    H159147   3.874   1.078  15.816
 2893TIP3    H259148   3.810   1.202  15.758
 2894TIP3   OH259149   4.545   1.181  15.727
 2894TIP3    H159150   4.537   1.225  15.643
 2894TIP3    H259151   4.566   1.090  15.705
 2895TIP3   OH259152   5.146   1.169  15.464
 2895TIP3    H159153   5.234   1.186  15.431
 2895TIP3    H259154   5.138   1.226  15.540
 2896TIP3   OH259155   3.934   0.909  15.783
 2896TIP3    H159156   4.007   0.886  15.725
 2896TIP3    H259157   3.961   0.879  15.869
 2897TIP3   OH259158   4.483   0.989  14.289
 2897TIP3    H159159   4.409   0.940  14.325
 2897TIP3    H259160   4.522   0.929  14.224
 2898TIP3   OH259161   4.398   0.892  15.484
 2898TIP3    H159162   4.302   0.893  15.491
 2898TIP3    H259163   4.416   0.925  15.396
 2899TIP3   OH259164   3.977   1.375  14.068
 2899TIP3    H159165   4.063   1.412  14.050
 2899TIP3    H259166   3.941   1.355  13.981
 2900TIP3   OH259167   3.841   1.701  14.877
 2900TIP3    H159168   3.749   1.692  14.853
 2900TIP3    H259169   3.865   1.789  14.848
 2901TIP3   OH259170   5.603   1.746  15.122
 2901TIP3    H159171   5.592   1.739  15.216
 2901TIP3    H259172   5.654   1.826  15.109
 2902TIP3   OH259173   5.541   1.705  15.391
 2902TIP3    H159174   5.479   1.639  15.359
 2902TIP3    H259175   5.583   1.664  15.466
 2903TIP3   OH259176   5.387   1.316  15.935
 2903TIP3    H159177   5.362   1.312  15.843
 2903TIP3    H259178   5.461   1.377  15.937
 2904TIP3   OH259179   5.593   1.216  15.152
 2904TIP3    H159180   5.646   1.164  15.091
 2904TIP3    H259181   5.604   1.306  15.121
 2905TIP3   OH259182   5.360   1.510  15.323
 2905TIP3    H159183   5.281   1.545  15.365
 2905TIP3    H259184   5.334   1.492  15.233
 2906TIP3   OH259185   3.829   0.954  15.060
 2906TIP3    H159186   3.841   0.954  14.965
 2906TIP3    H259187   3.916   0.936  15.096
 2907TIP3   OH259188   5.525   0.185  15.760
 2907TIP3    H159189   5.557   0.095  15.763
 2907TIP3    H259190   5.498   0.198  15.669
 2908TIP3   OH259191   5.370   0.316  14.499
 2908TIP3    H159192   5.382   0.258  14.574
 2908TIP3    H259193   5.315   0.265  14.439
 2909TIP3   OH259194   3.752   0.668  14.998
 2909TIP3    H159195   3.826   0.651  14.939
 2909TIP3    H259196   3.772   0.752  15.038
 2910TIP3   OH259197   5.325   1.810  14.682
 2910TIP3    H159198   5.375   1.793  14.602
 2910TIP3    H259199   5.366   1.887  14.721
 2911TIP3   OH259200   4.738   1.701  15.630
 2911TIP3    H159201   4.747   1.670  15.720
 2911TIP3    H259202   4.814   1.758  15.616
 2912TIP3   OH259203   4.963   1.856  15.593
 2912TIP3    H159204   5.031   1.806  15.549
 2912TIP3    H259205   5.006   1.892  15.671
 2913TIP3   OH259206   5.460   0.135  15.492
 2913TIP3    H159207   5.404   0.183  15.432
 2913TIP3    H259208   5.433   0.044  15.482
 2914TIP3   OH259209   4.786   1.869  15.162
 2914TIP3    H159210   4.798   1.923  15.085
 2914TIP3    H259211   4.781   1.931  15.235
 2915TIP3   OH259212   4.990   1.707  15.248
 2915TIP3    H159213   4.909   1.749  15.218
 2915TIP3    H259214   5.060   1.767  15.222
 2916TIP3   OH259215   5.244   1.860  15.260
 2916TIP3    H159216   5.258   1.953  15.238
 2916TIP3    H259217   5.276   1.813  15.184
 2917TIP3   OH259218   5.301   0.062  14.890
 2917TIP3    H159219   5.356   0.080  14.814
 2917TIP3    H259220   5.211   0.069  14.857
 2918TIP3   OH259221   5.478   0.157  14.705
 2918TIP3    H159222   5.534   0.117  14.638
 2918TIP3    H259223   5.525   0.235  14.733
 2919TIP3   OH259224   5.046   0.079  14.787
 2919TIP3    H159225   4.991   0.128  14.727
 2919TIP3    H259226   4.996   0.000  14.807
 2920TIP3   OH259227   5.219   0.131  14.359
 2920TIP3    H159228   5.124   0.127  14.351
 2920TIP3    H259229   5.243   0.047  14.400
 2921TIP3   OH259230   3.803   1.591  14.349
 2921TIP3    H159231   3.834   1.620  14.263
 2921TIP3    H259232   3.871   1.619  14.410
 2922TIP3   OH259233   4.755   1.817  14.204
 2922TIP3    H159234   4.844   1.805  14.170
 2922TIP3    H259235   4.706   1.853  14.131
 2923TIP3   OH259236   5.497   1.794  14.467
 2923TIP3    H159237   5.474   1.704  14.443
 2923TIP3    H259238   5.484   1.844  14.386
 2924TIP3   OH259239   5.176   0.032  15.783
 2924TIP3    H159240   5.162   8.085  15.810
 2924TIP3    H259241   5.156   0.032  15.690
 2925TIP3   OH259242   5.346   1.639  15.677
 2925TIP3    H159243   5.281   1.632  15.608
 2925TIP3    H259244   5.356   1.733  15.692
 2926TIP3   OH259245   6.922   0.978  14.629
 2926TIP3    H159246   6.888   1.067  14.634
 2926TIP3    H259247   6.856   0.930  14.580
 2927TIP3   OH259248   5.975   0.972  15.172
 2927TIP3    H159249   5.966   0.885  15.210
 2927TIP3    H259250   5.959   1.032  15.245
 2928TIP3   OH259251   7.121   1.291  14.851
 2928TIP3    H159252   7.088   1.216  14.900
 2928TIP3    H259253   7.151   1.352  14.918
 2929TIP3   OH259254   6.108   1.340  14.996
 2929TIP3    H159255   6.021   1.301  14.995
 2929TIP3    H259256   6.166   1.268  14.970
 2930TIP3   OH259257   7.283   0.440  15.071
 2930TIP3    H159258   7.359   0.471  15.119
 2930TIP3    H259259   7.316   0.368  15.018
 2931TIP3   OH259260   6.854   0.691  15.014
 2931TIP3    H159261   6.822   0.611  15.054
 2931TIP3    H259262   6.817   0.691  14.926
 2932TIP3   OH259263   6.008   0.533  14.751
 2932TIP3    H159264   5.952   0.593  14.702
 2932TIP3    H259265   6.028   0.463  14.689
 2933TIP3   OH259266   7.006   0.529  14.581
 2933TIP3    H159267   7.039   0.469  14.648
 2933TIP3    H259268   7.085   0.567  14.542
 2934TIP3   OH259269   7.341   0.795  15.391
 2934TIP3    H159270   7.249   0.821  15.387
 2934TIP3    H259271   7.351   0.732  15.320
 2935TIP3   OH259272   6.029   0.453  15.332
 2935TIP3    H159273   6.007   0.381  15.272
 2935TIP3    H259274   5.975   0.438  15.409
 2936TIP3   OH259275   6.802   1.236  14.612
 2936TIP3    H159276   6.767   1.213  14.526
 2936TIP3    H259277   6.879   1.291  14.592
 2937TIP3   OH259278   7.044   0.497  14.879
 2937TIP3    H159279   7.026   0.403  14.884
 2937TIP3    H259280   6.958   0.538  14.886
 2938TIP3   OH259281   6.058   0.476  15.014
 2938TIP3    H159282   6.099   0.553  15.053
 2938TIP3    H259283   6.040   0.501  14.923
 2939TIP3   OH259284   5.889   1.298  14.361
 2939TIP3    H159285   5.841   1.310  14.279
 2939TIP3    H259286   5.874   1.379  14.410
 2940TIP3   OH259287   7.164   1.482  15.051
 2940TIP3    H159288   7.070   1.484  15.070
 2940TIP3    H259289   7.185   1.571  15.026
 2941TIP3   OH259290   7.024   0.359  15.174
 2941TIP3    H159291   6.940   0.387  15.138
 2941TIP3    H259292   7.090   0.394  15.113
 2942TIP3   OH259293   6.638   0.001  15.115
 2942TIP3    H159294   6.606   8.063  15.077
 2942TIP3    H259295   6.559   0.048  15.141
 2943TIP3   OH259296   6.983   1.633  14.687
 2943TIP3    H159297   7.000   1.549  14.646
 2943TIP3    H259298   6.983   1.615  14.781
 2944TIP3   OH259299   7.045   1.379  14.599
 2944TIP3    H159300   7.116   1.376  14.536
 2944TIP3    H259301   7.081   1.339  14.678
 2945TIP3   OH259302   7.305   1.251  15.421
 2945TIP3    H159303   7.284   1.193  15.347
 2945TIP3    H259304   7.289   1.339  15.387
 2946TIP3   OH259305   7.406   0.918  15.104
 2946TIP3    H159306   7.361   0.980  15.162
 2946TIP3    H259307   7.441   0.972  15.033
 2947TIP3   OH259308   7.117   0.836  14.485
 2947TIP3    H159309   7.049   0.888  14.529
 2947TIP3    H259310   7.194   0.894  14.482
 2948TIP3   OH259311   6.945   0.909  15.583
 2948TIP3    H159312   7.022   0.966  15.579
 2948TIP3    H259313   6.876   0.964  15.619
 2949TIP3   OH259314   7.081   0.908  14.108
 2949TIP3    H159315   7.090   0.993  14.151
 2949TIP3    H259316   7.003   0.917  14.052
 2950TIP3   OH259317   7.269   0.151  14.185
 2950TIP3    H159318   7.175   0.131  14.185
 2950TIP3    H259319   7.308   0.087  14.126
 2951TIP3   OH259320   7.364   1.574  14.123
 2951TIP3    H159321   7.413   1.646  14.084
 2951TIP3    H259322   7.418   1.497  14.109
 2952TIP3   OH259323   5.757   1.137  15.367
 2952TIP3    H159324   5.699   1.158  15.293
 2952TIP3    H259325   5.751   1.042  15.377
 2953TIP3   OH259326   5.677   1.479  15.077
 2953TIP3    H159327   5.756   1.501  15.127
 2953TIP3    H259328   5.625   1.560  15.077
 2954TIP3   OH259329   7.517   1.582  15.672
 2954TIP3    H159330   7.499   1.488  15.661
 2954TIP3    H259331   7.431   1.623  15.666
 2955TIP3   OH259332   6.629   1.998  14.404
 2955TIP3    H159333   6.588   2.012  14.319
 2955TIP3    H259334   6.556   1.997  14.466
 2956TIP3   OH259335   6.025   1.695  14.644
 2956TIP3    H159336   5.988   1.669  14.728
 2956TIP3    H259337   5.976   1.645  14.580
 2957TIP3   OH259338   6.961   1.715  14.226
 2957TIP3    H159339   7.031   1.659  14.193
 2957TIP3    H259340   6.881   1.676  14.189
 2958TIP3   OH259341   6.822   1.797  14.527
 2958TIP3    H159342   6.790   1.733  14.463
 2958TIP3    H259343   6.876   1.746  14.587
 2959TIP3   OH259344   7.175   0.738  15.755
 2959TIP3    H159345   7.104   0.786  15.711
 2959TIP3    H259346   7.154   0.646  15.740
 2960TIP3   OH259347   5.961   0.221  15.200
 2960TIP3    H159348   5.876   0.193  15.165
 2960TIP3    H259349   6.024   0.195  15.133
 2961TIP3   OH259350   6.794   0.093  15.341
 2961TIP3    H159351   6.751   0.058  15.419
 2961TIP3    H259352   6.746   0.053  15.268
 2962TIP3   OH259353   6.912   0.639  15.548
 2962TIP3    H159354   6.852   0.605  15.614
 2962TIP3    H259355   6.910   0.734  15.560
 2963TIP3   OH259356   6.692   0.413  14.183
 2963TIP3    H159357   6.626   0.428  14.251
 2963TIP3    H259358   6.645   0.363  14.116
 2964TIP3   OH259359   6.190   0.717  15.133
 2964TIP3    H159360   6.115   0.721  15.193
 2964TIP3    H259361   6.201   0.807  15.103
 2965TIP3   OH259362   6.765   0.803  14.491
 2965TIP3    H159363   6.678   0.763  14.496
 2965TIP3    H259364   6.799   0.776  14.405
 2966TIP3   OH259365   6.837   0.684  14.739
 2966TIP3    H159366   6.779   0.730  14.679
 2966TIP3    H259367   6.888   0.625  14.683
 2967TIP3   OH259368   5.964   0.723  15.292
 2967TIP3    H159369   5.888   0.752  15.343
 2967TIP3    H259370   5.965   0.628  15.303
 2968TIP3   OH259371   5.580   0.400  14.792
 2968TIP3    H159372   5.656   0.408  14.850
 2968TIP3    H259373   5.615   0.418  14.705
 2969TIP3   OH259374   6.745   0.869  15.196
 2969TIP3    H159375   6.798   0.808  15.144
 2969TIP3    H259376   6.713   0.816  15.269
 2970TIP3   OH259377   5.843   0.616  14.535
 2970TIP3    H159378   5.849   0.647  14.445
 2970TIP3    H259379   5.783   0.542  14.530
 2971TIP3   OH259380   6.289   0.639  14.366
 2971TIP3    H159381   6.276   0.663  14.274
 2971TIP3    H259382   6.241   0.706  14.415
 2972TIP3   OH259383   6.777   0.448  15.105
 2972TIP3    H159384   6.747   0.431  15.194
 2972TIP3    H259385   6.727   0.388  15.050
 2973TIP3   OH259386   7.222   1.941  15.675
 2973TIP3    H159387   7.252   1.950  15.584
 2973TIP3    H259388   7.283   1.995  15.726
 2974TIP3   OH259389   6.062   0.343  14.558
 2974TIP3    H159390   5.987   0.283  14.553
 2974TIP3    H259391   6.089   0.356  14.467
 2975TIP3   OH259392   6.440   0.601  15.193
 2975TIP3    H159393   6.373   0.664  15.166
 2975TIP3    H259394   6.512   0.655  15.227
 2976TIP3   OH259395   7.229   1.112  15.196
 2976TIP3    H159396   7.287   1.176  15.154
 2976TIP3    H259397   7.156   1.104  15.135
 2977TIP3   OH259398   6.959   0.440  14.179
 2977TIP3    H159399   6.864   0.440  14.169
 2977TIP3    H259400   6.992   0.413  14.093
 2978TIP3   OH259401   7.100   0.664  14.253
 2978TIP3    H159402   7.039   0.591  14.251
 2978TIP3    H259403   7.083   0.708  14.337
 2979TIP3   OH259404   6.099   1.056  14.937
 2979TIP3    H159405   6.039   1.027  14.869
 2979TIP3    H259406   6.058   1.027  15.019
 2980TIP3   OH259407   5.769   0.863  15.441
 2980TIP3    H159408   5.808   0.868  15.528
 2980TIP3    H259409   5.678   0.839  15.456
 2981TIP3   OH259410   7.387   0.632  14.220
 2981TIP3    H159411   7.407   0.538  14.225
 2981TIP3    H259412   7.472   0.674  14.229
 2982TIP3   OH259413   7.483   1.310  15.620
 2982TIP3    H159414   7.418   1.282  15.556
 2982TIP3    H259415   7.563   1.322  15.569
 2983TIP3   OH259416   7.272   1.445  14.357
 2983TIP3    H159417   7.310   1.358  14.352
 2983TIP3    H259418   7.283   1.481  14.269
 2984TIP3   OH259419   7.031   1.074  15.007
 2984TIP3    H159420   6.943   1.068  15.043
 2984TIP3    H259421   7.040   0.996  14.953
 2985TIP3   OH259422   5.834   0.911  14.054
 2985TIP3    H159423   5.885   0.988  14.028
 2985TIP3    H259424   5.743   0.940  14.051
 2986TIP3   OH259425   6.293   1.759  14.609
 2986TIP3    H159426   6.203   1.741  14.637
 2986TIP3    H259427   6.288   1.764  14.514
 2987TIP3   OH259428   7.076   1.678  15.429
 2987TIP3    H159429   6.991   1.697  15.468
 2987TIP3    H259430   7.090   1.748  15.365
 2988TIP3   OH259431   7.532   1.803  14.128
 2988TIP3    H159432   7.626   1.791  14.114
 2988TIP3    H259433   7.515   1.890  14.093
 2989TIP3   OH259434   5.846   0.409  15.531
 2989TIP3    H159435   5.773   0.398  15.470
 2989TIP3    H259436   5.866   0.320  15.561
 2990TIP3   OH259437   5.877   1.597  15.241
 2990TIP3    H159438   5.891   1.533  15.311
 2990TIP3    H259439   5.887   1.682  15.283
 2991TIP3   OH259440   6.786   0.373  15.380
 2991TIP3    H159441   6.768   0.383  15.473
 2991TIP3    H259442   6.785   0.279  15.365
 2992TIP3   OH259443   6.871   0.326  14.433
 2992TIP3    H159444   6.853   0.356  14.344
 2992TIP3    H259445   6.915   0.400  14.475
 2993TIP3   OH259446   6.534   0.672  14.504
 2993TIP3    H159447   6.504   0.668  14.595
 2993TIP3    H259448   6.459   0.642  14.453
 2994TIP3   OH259449   6.650   0.673  15.374
 2994TIP3    H159450   6.579   0.671  15.438
 2994TIP3    H259451   6.702   0.596  15.394
 2995TIP3   OH259452   6.665   0.349  14.609
 2995TIP3    H159453   6.597   0.409  14.579
 2995TIP3    H259454   6.725   0.342  14.535
 2996TIP3   OH259455   6.192   0.391  14.316
 2996TIP3    H159456   6.216   0.481  14.339
 2996TIP3    H259457   6.181   0.393  14.221
 2997TIP3   OH259458   7.081   0.481  15.741
 2997TIP3    H159459   7.012   0.532  15.782
 2997TIP3    H259460   7.059   0.390  15.760
 2998TIP3   OH259461   7.047   0.828  14.869
 2998TIP3    H159462   6.983   0.833  14.798
 2998TIP3    H259463   7.000   0.785  14.941
 2999TIP3   OH259464   5.832   0.663  14.205
 2999TIP3    H159465   5.845   0.746  14.158
 2999TIP3    H259466   5.758   0.623  14.161
 3000TIP3   OH259467   7.212   1.747  15.007
 3000TIP3    H159468   7.195   1.826  14.956
 3000TIP3    H259469   7.303   1.756  15.036
 3001TIP3   OH259470   5.847   0.127  14.866
 3001TIP3    H159471   5.857   0.127  14.771
 3001TIP3    H259472   5.805   0.043  14.886
 3002TIP3   OH259473   5.841   1.539  14.508
 3002TIP3    H159474   5.762   1.534  14.560
 3002TIP3    H259475   5.819   1.600  14.437
 3003TIP3   OH259476   5.785   1.766  15.687
 3003TIP3    H159477   5.852   1.706  15.720
 3003TIP3    H259478   5.713   1.708  15.660
 3004TIP3   OH259479   5.911   0.850  15.686
 3004TIP3    H159480   5.924   0.756  15.694
 3004TIP3    H259481   5.884   0.878  15.773
 3005TIP3   OH259482   6.270   0.522  15.503
 3005TIP3    H159483   6.307   0.447  15.456
 3005TIP3    H259484   6.196   0.549  15.449
 3006TIP3   OH259485   6.293   0.383  15.244
 3006TIP3    H159486   6.341   0.462  15.219
 3006TIP3    H259487   6.203   0.412  15.254
 3007TIP3   OH259488   6.904   0.632  15.878
 3007TIP3    H159489   6.885   0.561  15.939
 3007TIP3    H259490   6.928   0.706  15.934
 3008TIP3   OH259491   6.211   0.599  15.761
 3008TIP3    H159492   6.116   0.595  15.749
 3008TIP3    H259493   6.247   0.581  15.674
 3009TIP3   OH259494   6.433   0.159  15.172
 3009TIP3    H159495   6.396   0.245  15.193
 3009TIP3    H259496   6.362   0.098  15.193
 3010TIP3   OH259497   6.751   0.413  15.655
 3010TIP3    H159498   6.669   0.401  15.703
 3010TIP3    H259499   6.816   0.366  15.706
 3011TIP3   OH259500   6.921   0.270  15.815
 3011TIP3    H159501   6.938   0.176  15.816
 3011TIP3    H259502   6.906   0.293  15.907
 3012TIP3   OH259503   5.937   0.574  15.729
 3012TIP3    H159504   5.901   0.530  15.652
 3012TIP3    H259505   5.924   0.511  15.800
 3013TIP3   OH259506   6.578   8.104  15.898
 3013TIP3    H159507   6.655   8.072  15.945
 3013TIP3    H259508   6.557   8.035  15.836
 3014TIP3   OH259509   6.587   0.233  15.843
 3014TIP3    H159510   6.561   0.146  15.873
 3014TIP3    H259511   6.507   0.285  15.848
 3015TIP3   OH259512   5.766   1.335  14.102
 3015TIP3    H159513   5.825   1.270  14.065
 3015TIP3    H259514   5.743   1.392  14.028
 3016TIP3   OH259515   5.686   1.868  14.650
 3016TIP3    H159516   5.627   1.841  14.580
 3016TIP3    H259517   5.704   1.787  14.698
 3017TIP3   OH259518   5.746   1.645  14.806
 3017TIP3    H159519   5.699   1.571  14.844
 3017TIP3    H259520   5.794   1.683  14.879
 3018TIP3   OH259521   7.461   1.776  15.108
 3018TIP3    H159522   7.463   1.778  15.204
 3018TIP3    H259523   7.549   1.801  15.081
 3019TIP3   OH259524   7.447   1.685  15.375
 3019TIP3    H159525   7.388   1.611  15.360
 3019TIP3    H259526   7.534   1.648  15.364
 3020TIP3   OH259527   7.388   1.101  14.342
 3020TIP3    H159528   7.460   1.161  14.360
 3020TIP3    H259529   7.374   1.055  14.425
 3021TIP3   OH259530   7.366   0.957  14.579
 3021TIP3    H159531   7.330   0.930  14.663
 3021TIP3    H259532   7.460   0.968  14.595
 3022TIP3   OH259533   7.434   1.264  15.097
 3022TIP3    H159534   7.454   1.218  15.015
 3022TIP3    H259535   7.459   1.355  15.080
 3023TIP3   OH259536   7.254   1.496  15.314
 3023TIP3    H159537   7.182   1.548  15.349
 3023TIP3    H259538   7.231   1.483  15.222
 3024TIP3   OH259539   7.355   0.908  14.136
 3024TIP3    H159540   7.395   0.949  14.059
 3024TIP3    H259541   7.372   0.971  14.207
 3025TIP3   OH259542   7.250   0.718  14.718
 3025TIP3    H159543   7.231   0.708  14.625
 3025TIP3    H259544   7.180   0.776  14.750
 3026TIP3   OH259545   5.763   1.057  15.009
 3026TIP3    H159546   5.757   1.003  14.930
 3026TIP3    H259547   5.835   1.018  15.059
 3027TIP3   OH259548   7.197   1.019  15.525
 3027TIP3    H159549   7.258   0.992  15.594
 3027TIP3    H259550   7.222   1.110  15.506
 3028TIP3   OH259551   7.363   0.935  15.726
 3028TIP3    H159552   7.314   0.853  15.735
 3028TIP3    H259553   7.448   0.916  15.766
 3029TIP3   OH259554   7.231   0.495  14.015
 3029TIP3    H159555   7.297   0.432  14.045
 3029TIP3    H259556   7.213   0.469  13.924
 3030TIP3   OH259557   7.271   0.568  14.478
 3030TIP3    H159558   7.245   0.484  14.440
 3030TIP3    H259559   7.304   0.619  14.404
 3031TIP3   OH259560   7.196   0.743  15.118
 3031TIP3    H159561   7.269   0.806  15.116
 3031TIP3    H259562   7.136   0.779  15.183
 3032TIP3   OH259563   7.074   0.865  15.325
 3032TIP3    H159564   7.002   0.857  15.388
 3032TIP3    H259565   7.111   0.951  15.342
 3033TIP3   OH259566   7.164   0.349  14.355
 3033TIP3    H159567   7.214   0.282  14.309
 3033TIP3    H259568   7.087   0.363  14.299
 3034TIP3   OH259569   5.786   0.372  14.981
 3034TIP3    H159570   5.808   0.288  14.941
 3034TIP3    H259571   5.871   0.411  15.003
 3035TIP3   OH259572   5.662   0.395  14.528
 3035TIP3    H159573   5.581   0.434  14.497
 3035TIP3    H259574   5.672   0.316  14.474
 3036TIP3   OH259575   7.200   1.820  14.645
 3036TIP3    H159576   7.139   1.746  14.650
 3036TIP3    H259577   7.197   1.860  14.731
 3037TIP3   OH259578   5.665   0.282  15.368
 3037TIP3    H159579   5.599   0.228  15.411
 3037TIP3    H259580   5.623   0.313  15.287
 3038TIP3   OH259581   5.873   1.500  15.734
 3038TIP3    H159582   5.790   1.498  15.686
 3038TIP3    H259583   5.854   1.455  15.816
 3039TIP3   OH259584   6.633   1.737  15.661
 3039TIP3    H159585   6.644   1.686  15.742
 3039TIP3    H259586   6.722   1.760  15.635
 3040TIP3   OH259587   6.873   1.852  15.564
 3040TIP3    H159588   6.906   1.916  15.501
 3040TIP3    H259589   6.900   1.885  15.649
 3041TIP3   OH259590   7.143   0.214  15.592
 3041TIP3    H159591   7.109   0.130  15.562
 3041TIP3    H259592   7.214   0.192  15.653
 3042TIP3   OH259593   5.900   1.852  15.349
 3042TIP3    H159594   5.835   1.906  15.304
 3042TIP3    H259595   5.879   1.862  15.442
 3043TIP3   OH259596   6.167   1.930  15.271
 3043TIP3    H159597   6.078   1.900  15.289
 3043TIP3    H259598   6.164   1.963  15.181
 3044TIP3   OH259599   6.657   1.907  15.102
 3044TIP3    H159600   6.581   1.848  15.109
 3044TIP3    H259601   6.678   1.929  15.193
 3045TIP3   OH259602   7.130   1.875  15.243
 3045TIP3    H159603   7.133   1.965  15.212
 3045TIP3    H259604   7.141   1.822  15.164
 3046TIP3   OH259605   5.920   1.735  15.003
 3046TIP3    H159606   5.901   1.688  15.084
 3046TIP3    H259607   5.999   1.695  14.969
 3047TIP3   OH259608   6.129   1.593  14.900
 3047TIP3    H159609   6.123   1.506  14.938
 3047TIP3    H259610   6.174   1.579  14.816
 3048TIP3   OH259611   6.392   1.633  14.999
 3048TIP3    H159612   6.388   1.558  14.940
 3048TIP3    H259613   6.306   1.674  14.992
 3049TIP3   OH259614   6.657   0.249  14.964
 3049TIP3    H159615   6.615   0.186  15.022
 3049TIP3    H259616   6.620   0.231  14.878
 3050TIP3   OH259617   6.979   0.236  14.900
 3050TIP3    H159618   6.960   0.173  14.970
 3050TIP3    H259619   6.913   0.218  14.833
 3051TIP3   OH259620   7.292   0.259  14.872
 3051TIP3    H159621   7.366   0.236  14.816
 3051TIP3    H259622   7.221   0.277  14.810
 3052TIP3   OH259623   5.878   0.115  14.587
 3052TIP3    H159624   5.802   0.132  14.531
 3052TIP3    H259625   5.936   0.061  14.532
 3053TIP3   OH259626   5.696   0.153  14.388
 3053TIP3    H159627   5.745   0.203  14.322
 3053TIP3    H259628   5.621   0.118  14.341
 3054TIP3   OH259629   6.545   0.139  14.728
 3054TIP3    H159630   6.576   0.214  14.678
 3054TIP3    H259631   6.451   0.135  14.710
 3055TIP3   OH259632   6.814   0.123  14.711
 3055TIP3    H159633   6.808   0.197  14.651
 3055TIP3    H259634   6.723   0.101  14.731
 3056TIP3   OH259635   7.004   0.104  14.252
 3056TIP3    H159636   6.938   0.141  14.311
 3056TIP3    H259637   7.024   0.018  14.289
 3057TIP3   OH259638   5.770   1.732  14.332
 3057TIP3    H159639   5.729   1.715  14.247
 3057TIP3    H259640   5.737   1.818  14.358
 3058TIP3   OH259641   5.833   0.314  14.217
 3058TIP3    H159642   5.817   0.290  14.126
 3058TIP3    H259643   5.854   0.407  14.213
 3059TIP3   OH259644   6.502   0.389  14.383
 3059TIP3    H159645   6.493   0.295  14.400
 3059TIP3    H259646   6.413   0.417  14.361
 3060TIP3   OH259647   7.336   1.726  14.361
 3060TIP3    H159648   7.314   1.638  14.390
 3060TIP3    H259649   7.361   1.715  14.269
 3061TIP3   OH259650   5.869   0.143  15.578
 3061TIP3    H159651   5.826   0.108  15.500
 3061TIP3    H259652   5.949   0.091  15.587
 3062TIP3   OH259653   5.830   0.145  15.850
 3062TIP3    H159654   5.805   0.173  15.762
 3062TIP3    H259655   5.856   0.054  15.840
 3063TIP3   OH259656   6.963   8.139  15.824
 3063TIP3    H159657   6.896   8.111  15.886
 3063TIP3    H259658   7.045   8.112  15.865
 3064TIP3   OH259659   7.251   1.670  15.652
 3064TIP3    H159660   7.200   1.656  15.572
 3064TIP3    H259661   7.244   1.764  15.668
 3065TIP3   OH259662   7.960   0.871  14.964
 3065TIP3    H159663   8.021   0.866  15.038
 3065TIP3    H259664   8.009   0.917  14.896
 3066TIP3   OH259665   0.046   1.478  14.812
 3066TIP3    H159666   0.068   1.565  14.780
 3066TIP3    H259667   0.040   1.488  14.907
 3067TIP3   OH259668   7.600   0.741  14.423
 3067TIP3    H159669   7.607   0.828  14.385
 3067TIP3    H259670   7.640   0.683  14.359
 3068TIP3   OH259671   7.625   0.976  14.671
 3068TIP3    H159672   7.670   0.907  14.721
 3068TIP3    H259673   7.691   1.007  14.608
 3069TIP3   OH259674   0.005   0.617  14.788
 3069TIP3    H159675   8.138   0.703  14.748
 3069TIP3    H259676   0.004   0.556  14.714
 3070TIP3   OH259677   7.752   0.775  14.805
 3070TIP3    H159678   7.821   0.809  14.862
 3070TIP3    H259679   7.799   0.725  14.738
 3071TIP3   OH259680   0.042   0.433  14.996
 3071TIP3    H159681   0.096   0.479  14.931
 3071TIP3    H259682   8.104   0.481  14.998
 3072TIP3   OH259683   7.958   0.594  14.981
 3072TIP3    H159684   7.952   0.685  15.010
 3072TIP3    H259685   8.007   0.598  14.899
 3073TIP3   OH259686   0.125   1.461  15.462
 3073TIP3    H159687   0.149   1.527  15.397
 3073TIP3    H259688   0.036   1.486  15.488
 3074TIP3   OH259689   7.585   1.287  14.393
 3074TIP3    H159690   7.579   1.323  14.304
 3074TIP3    H259691   7.623   1.358  14.445
 3075TIP3   OH259692   8.099   0.838  14.652
 3075TIP3    H159693   8.024   0.874  14.605
 3075TIP3    H259694   0.031   0.863  14.600
 3076TIP3   OH259695   7.723   1.084  15.572
 3076TIP3    H159696   7.716   1.168  15.526
 3076TIP3    H259697   7.795   1.039  15.528
 3077TIP3   OH259698   7.986   1.495  15.555
 3077TIP3    H159699   7.986   1.572  15.497
 3077TIP3    H259700   7.942   1.525  15.634
 3078TIP3   OH259701   7.902   0.892  14.466
 3078TIP3    H159702   7.910   0.985  14.444
 3078TIP3    H259703   7.941   0.846  14.391
 3079TIP3   OH259704   7.620   1.210  15.299
 3079TIP3    H159705   7.560   1.240  15.231
 3079TIP3    H259706   7.577   1.133  15.336
 3080TIP3   OH259707   7.547   1.513  15.075
 3080TIP3    H159708   7.607   1.532  15.147
 3080TIP3    H259709   7.497   1.594  15.063
 3081TIP3   OH259710   7.885   1.731  14.590
 3081TIP3    H159711   7.913   1.733  14.682
 3081TIP3    H259712   7.825   1.657  14.585
 3082TIP3   OH259713   7.731   1.356  15.503
 3082TIP3    H159714   7.818   1.395  15.490
 3082TIP3    H259715   7.699   1.338  15.415
 3083TIP3   OH259716   0.163   0.187  15.056
 3083TIP3    H159717   0.238   0.171  14.999
 3083TIP3    H259718   0.129   0.272  15.027
 3084TIP3   OH259719   8.117   0.813  15.173
 3084TIP3    H159720   0.006   0.870  15.243
 3084TIP3    H259721   0.051   0.787  15.125
 3085TIP3   OH259722   8.088   0.669  14.404
 3085TIP3    H159723   8.082   0.654  14.498
 3085TIP3    H259724   0.036   0.654  14.383
 3086TIP3   OH259725   7.745   0.798  15.632
 3086TIP3    H159726   7.827   0.847  15.620
 3086TIP3    H259727   7.773   0.707  15.636
 3087TIP3   OH259728   7.160   0.296  14.624
 3087TIP3    H159729   7.228   0.230  14.612
 3087TIP3    H259730   7.133   0.319  14.535
 3088TIP3   OH259731   7.861   0.646  14.598
 3088TIP3    H159732   7.867   0.724  14.543
 3088TIP3    H259733   7.875   0.572  14.538
 3089TIP3   OH259734   7.940   0.583  14.112
 3089TIP3    H159735   8.024   0.546  14.136
 3089TIP3    H259736   7.949   0.608  14.020
 3090TIP3   OH259737   7.857   1.245  15.737
 3090TIP3    H159738   7.810   1.176  15.689
 3090TIP3    H259739   7.829   1.326  15.695
 3091TIP3   OH259740   7.879   0.471  14.384
 3091TIP3    H159741   7.843   0.473  14.295
 3091TIP3    H259742   7.967   0.508  14.375
 3092TIP3   OH259743   7.771   1.071  14.975
 3092TIP3    H159744   7.812   1.081  14.889
 3092TIP3    H259745   7.809   0.991  15.011
 3093TIP3   OH259746   7.518   0.992  15.412
 3093TIP3    H159747   7.556   0.994  15.500
 3093TIP3    H259748   7.448   0.927  15.418
 3094TIP3   OH259749   7.637   0.944  14.254
 3094TIP3    H159750   7.628   1.036  14.232
 3094TIP3    H259751   7.671   0.903  14.175
 3095TIP3   OH259752   7.660   0.259  15.487
 3095TIP3    H159753   7.696   0.342  15.518
 3095TIP3    H259754   7.654   0.204  15.565
 3096TIP3   OH259755   7.696   1.604  15.293
 3096TIP3    H159756   7.773   1.548  15.293
 3096TIP3    H259757   7.731   1.693  15.302
 3097TIP3   OH259758   7.974   1.157  14.421
 3097TIP3    H159759   7.946   1.248  14.410
 3097TIP3    H259760   8.063   1.164  14.455
 3098TIP3   OH259761   0.037   0.460  14.157
 3098TIP3    H159762   0.085   0.488  14.080
 3098TIP3    H259763   0.015   0.368  14.140
 3099TIP3   OH259764   7.946   1.437  14.380
 3099TIP3    H159765   8.011   1.506  14.367
 3099TIP3    H259766   7.908   1.422  14.293
 3100TIP3   OH259767   7.679   0.596  14.204
 3100TIP3    H159768   7.766   0.623  14.175
 3100TIP3    H259769   7.655   0.525  14.146
 3101TIP3   OH259770   7.714   1.513  14.506
 3101TIP3    H159771   7.684   1.591  14.458
 3101TIP3    H259772   7.797   1.490  14.464
 3102TIP3   OH259773   7.710   1.772  15.600
 3102TIP3    H159774   7.739   1.796  15.688
 3102TIP3    H259775   7.633   1.717  15.614
 3103TIP3   OH259776   7.565   1.171  15.844
 3103TIP3    H159777   7.580   1.079  15.822
 3103TIP3    H259778   7.527   1.209  15.765
 3104TIP3   OH259779   7.606   0.895  15.840
 3104TIP3    H159780   7.654   0.862  15.763
 3104TIP3    H259781   7.625   0.831  15.909
 3105TIP3   OH259782   8.016   0.730  15.829
 3105TIP3    H159783   7.996   0.823  15.843
 3105TIP3    H259784   7.936   0.684  15.855
 3106TIP3   OH259785   7.536   1.360  14.125
 3106TIP3    H159786   7.631   1.370  14.116
 3106TIP3    H259787   7.517   1.277  14.080
 3107TIP3   OH259788   7.521   1.864  14.584
 3107TIP3    H159789   7.566   1.822  14.511
 3107TIP3    H259790   7.532   1.804  14.658
 3108TIP3   OH259791   7.576   1.704  14.798
 3108TIP3    H159792   7.564   1.611  14.818
 3108TIP3    H259793   7.626   1.738  14.873
 3109TIP3   OH259794   7.512   1.078  14.907
 3109TIP3    H159795   7.524   1.058  14.815
 3109TIP3    H259796   7.601   1.080  14.943
 3110TIP3   OH259797   7.685   0.525  14.958
 3110TIP3    H159798   7.711   0.451  14.903
 3110TIP3    H259799   7.764   0.579  14.964
 3111TIP3   OH259800   7.458   0.673  14.951
 3111TIP3    H159801   7.539   0.624  14.966
 3111TIP3    H259802   7.466   0.750  15.008
 3112TIP3   OH259803   7.450   0.365  14.231
 3112TIP3    H159804   7.405   0.282  14.222
 3112TIP3    H259805   7.541   0.346  14.209
 3113TIP3   OH259806   7.770   1.538  15.784
 3113TIP3    H159807   7.697   1.555  15.724
 3113TIP3    H259808   7.730   1.493  15.858
 3114TIP3   OH259809   8.082   1.625  15.309
 3114TIP3    H159810   8.050   1.712  15.284
 3114TIP3    H259811   0.029   1.623  15.278
 3115TIP3   OH259812   7.762   1.870  15.351
 3115TIP3    H159813   7.694   1.934  15.330
 3115TIP3    H259814   7.747   1.848  15.443
 3116TIP3   OH259815   7.999   1.863  15.218
 3116TIP3    H159816   7.912   1.881  15.253
 3116TIP3    H259817   8.015   1.933  15.156
 3117TIP3   OH259818   7.720   1.787  15.021
 3117TIP3    H159819   7.794   1.730  15.040
 3117TIP3    H259820   7.760   1.869  14.992
 3118TIP3   OH259821   7.981   1.757  14.839
 3118TIP3    H159822   7.973   1.710  14.922
 3118TIP3    H259823   8.075   1.769  14.827
 3119TIP3   OH259824   7.785   0.054  14.407
 3119TIP3    H159825   7.698   0.051  14.365
 3119TIP3    H259826   7.820   8.110  14.394
 3120TIP3   OH259827   7.650   1.745  14.374
 3120TIP3    H159828   7.583   1.755  14.307
 3120TIP3    H259829   7.732   1.768  14.330
 3121TIP3   OH259830   7.815   1.805  14.157
 3121TIP3    H159831   7.805   1.899  14.170
 3121TIP3    H259832   7.903   1.793  14.122
 3122TIP3   OH259833   1.206   2.898  14.630
 3122TIP3    H159834   1.195   2.993  14.627
 3122TIP3    H259835   1.141   2.865  14.569
 3123TIP3   OH259836   1.110   2.838  15.041
 3123TIP3    H159837   1.108   2.797  15.127
 3123TIP3    H259838   1.053   2.783  14.987
 3124TIP3   OH259839   1.487   3.140  14.847
 3124TIP3    H159840   1.412   3.109  14.899
 3124TIP3    H259841   1.518   3.217  14.894
 3125TIP3   OH259842   0.435   3.244  15.047
 3125TIP3    H159843   0.414   3.156  15.017
 3125TIP3    H259844   0.530   3.252  15.032
 3126TIP3   OH259845   0.899   3.093  15.050
 3126TIP3    H159846   0.938   3.035  14.984
 3126TIP3    H259847   0.973   3.120  15.105
 3127TIP3   OH259848   1.221   2.524  15.066
 3127TIP3    H159849   1.239   2.431  15.075
 3127TIP3    H259850   1.209   2.537  14.972
 3128TIP3   OH259851   1.375   2.349  14.667
 3128TIP3    H159852   1.317   2.295  14.614
 3128TIP3    H259853   1.435   2.389  14.605
 3129TIP3   OH259854   0.742   2.711  14.754
 3129TIP3    H159855   0.812   2.697  14.818
 3129TIP3    H259856   0.787   2.724  14.671
 3130TIP3   OH259857   1.782   2.375  15.398
 3130TIP3    H159858   1.737   2.445  15.350
 3130TIP3    H259859   1.868   2.370  15.358
 3131TIP3   OH259860   1.187   3.166  14.584
 3131TIP3    H159861   1.153   3.184  14.496
 3131TIP3    H259862   1.270   3.212  14.588
 3132TIP3   OH259863   0.727   2.956  15.223
 3132TIP3    H159864   0.658   3.016  15.252
 3132TIP3    H259865   0.778   3.007  15.161
 3133TIP3   OH259866   0.530   3.138  15.319
 3133TIP3    H159867   0.533   3.234  15.312
 3133TIP3    H259868   0.457   3.113  15.263
 3134TIP3   OH259869   0.153   3.170  14.441
 3134TIP3    H159870   0.128   3.202  14.354
 3134TIP3    H259871   0.215   3.099  14.424
 3135TIP3   OH259872   1.544   3.370  14.994
 3135TIP3    H159873   1.478   3.418  14.943
 3135TIP3    H259874   1.626   3.416  14.974
 3136TIP3   OH259875   0.774   1.914  14.966
 3136TIP3    H159876   0.744   1.824  14.950
 3136TIP3    H259877   0.704   1.954  15.016
 3137TIP3   OH259878   1.446   3.257  14.594
 3137TIP3    H159879   1.495   3.217  14.522
 3137TIP3    H259880   1.475   3.210  14.672
 3138TIP3   OH259881   1.562   3.115  15.429
 3138TIP3    H159882   1.574   3.055  15.355
 3138TIP3    H259883   1.571   3.203  15.391
 3139TIP3   OH259884   1.019   2.815  14.432
 3139TIP3    H159885   0.964   2.892  14.415
 3139TIP3    H259886   1.025   2.770  14.348
 3140TIP3   OH259887   1.052   2.668  14.204
 3140TIP3    H159888   1.144   2.689  14.188
 3140TIP3    H259889   1.021   2.633  14.120
 3141TIP3   OH259890   1.789   2.808  15.256
 3141TIP3    H159891   1.718   2.869  15.236
 3141TIP3    H259892   1.845   2.810  15.178
 3142TIP3   OH259893   1.439   2.890  14.471
 3142TIP3    H159894   1.358   2.897  14.522
 3142TIP3    H259895   1.492   2.826  14.519
 3143TIP3   OH259896   1.391   2.647  15.415
 3143TIP3    H159897   1.403   2.698  15.495
 3143TIP3    H259898   1.317   2.689  15.371
 3144TIP3   OH259899   0.528   2.884  14.733
 3144TIP3    H159900   0.501   2.878  14.641
 3144TIP3    H259901   0.600   2.822  14.741
 3145TIP3   OH259902   0.696   3.277  14.970
 3145TIP3    H159903   0.697   3.288  14.875
 3145TIP3    H259904   0.770   3.219  14.989
 3146TIP3   OH259905   0.675   2.708  15.085
 3146TIP3    H159906   0.623   2.742  15.012
 3146TIP3    H259907   0.691   2.784  15.140
 3147TIP3   OH259908   0.686   3.202  15.548
 3147TIP3    H159909   0.625   3.268  15.580
 3147TIP3    H259910   0.641   3.162  15.473
 3148TIP3   OH259911   1.329   2.730  14.247
 3148TIP3    H159912   1.363   2.800  14.302
 3148TIP3    H259913   1.353   2.756  14.157
 3149TIP3   OH259914   0.500   3.400  15.598
 3149TIP3    H159915   0.510   3.418  15.505
 3149TIP3    H259916   0.409   3.370  15.607
 3150TIP3   OH259917   0.058   2.949  15.292
 3150TIP3    H159918   0.016   3.034  15.307
 3150TIP3    H259919   0.059   2.908  15.378
 3151TIP3   OH259920   0.086   3.323  15.055
 3151TIP3    H159921   0.161   3.266  15.038
 3151TIP3    H259922   0.120   3.412  15.044
 3152TIP3   OH259923   0.942   3.318  15.541
 3152TIP3    H159924   0.947   3.412  15.555
 3152TIP3    H259925   0.848   3.298  15.539
 3153TIP3   OH259926   1.076   3.761  14.512
 3153TIP3    H159927   1.023   3.742  14.434
 3153TIP3    H259928   1.041   3.843  14.546
 3154TIP3   OH259929   0.387   3.591  14.681
 3154TIP3    H159930   0.405   3.544  14.762
 3154TIP3    H259931   0.328   3.532  14.632
 3155TIP3   OH259932   0.570   2.037  15.109
 3155TIP3    H159933   0.494   2.043  15.051
 3155TIP3    H259934   0.591   2.128  15.131
 3156TIP3   OH259935   1.312   2.382  15.414
 3156TIP3    H159936   1.267   2.373  15.498
 3156TIP3    H259937   1.351   2.469  15.417
 3157TIP3   OH259938   1.156   2.591  14.524
 3157TIP3    H159939   1.105   2.666  14.493
 3157TIP3    H259940   1.197   2.556  14.445
 3158TIP3   OH259941   1.082   2.628  15.706
 3158TIP3    H159942   1.064   2.564  15.637
 3158TIP3    H259943   1.150   2.587  15.760
 3159TIP3   OH259944   1.190   2.539  14.787
 3159TIP3    H159945   1.179   2.580  14.702
 3159TIP3    H259946   1.198   2.445  14.767
 3160TIP3   OH259947   1.131   2.675  15.275
 3160TIP3    H159948   1.171   2.625  15.204
 3160TIP3    H259949   1.092   2.608  15.332
 3161TIP3   OH259950   1.323   2.257  14.971
 3161TIP3    H159951   1.271   2.240  15.049
 3161TIP3    H259952   1.310   2.180  14.915
 3162TIP3   OH259953   0.961   2.634  14.910
 3162TIP3    H159954   1.032   2.602  14.854
 3162TIP3    H259955   0.938   2.559  14.965
 3163TIP3   OH259956   0.843   3.025  14.380
 3163TIP3    H159957   0.781   3.075  14.327
 3163TIP3    H259958   0.816   3.041  14.471
 3164TIP3   OH259959   1.585   2.981  15.183
 3164TIP3    H159960   1.650   3.038  15.141
 3164TIP3    H259961   1.521   2.963  15.114
 3165TIP3   OH259962   1.084   3.097  15.476
 3165TIP3    H159963   1.014   3.034  15.491
 3165TIP3    H259964   1.046   3.181  15.500
 3166TIP3   OH259965   1.358   2.462  14.306
 3166TIP3    H159966   1.363   2.416  14.222
 3166TIP3    H259967   1.349   2.554  14.283
 3167TIP3   OH259968   0.411   2.987  14.966
 3167TIP3    H159969   0.443   2.950  14.883
 3167TIP3    H259970   0.339   2.930  14.992
 3168TIP3   OH259971   1.119   3.212  14.321
 3168TIP3    H159972   1.153   3.258  14.244
 3168TIP3    H259973   1.046   3.160  14.288
 3169TIP3   OH259974   0.789   2.774  15.727
 3169TIP3    H159975   0.705   2.750  15.689
 3169TIP3    H259976   0.853   2.752  15.659
 3170TIP3   OH259977   1.870   3.183  15.608
 3170TIP3    H159978   1.775   3.195  15.602
 3170TIP3    H259979   1.894   3.137  15.528
 3171TIP3   OH259980   1.769   3.290  14.278
 3171TIP3    H159981   1.709   3.236  14.330
 3171TIP3    H259982   1.715   3.323  14.206
 3172TIP3   OH259983   1.373   2.902  14.984
 3172TIP3    H159984   1.281   2.886  15.004
 3172TIP3    H259985   1.376   2.915  14.890
 3173TIP3   OH259986   0.655   3.330  14.692
 3173TIP3    H159987   0.684   3.416  14.663
 3173TIP3    H259988   0.581   3.309  14.635
 3174TIP3   OH259989   0.735   3.066  14.633
 3174TIP3    H159990   0.728   3.160  14.651
 3174TIP3    H259991   0.662   3.027  14.682
 3175TIP3   OH259992   0.656   3.595  14.602
 3175TIP3    H159993   0.562   3.608  14.611
 3175TIP3    H259994   0.694   3.680  14.625
 3176TIP3   OH259995   1.124   3.132  15.203
 3176TIP3    H159996   1.117   3.126  15.299
 3176TIP3    H259997   1.204   3.084  15.182
 3177TIP3   OH259998   1.559   3.125  14.372
 3177TIP3    H159999   1.525   3.041  14.401
 3177TIP3    H260000   1.509   3.146  14.293
 3178TIP3   OH260001   0.219   3.455  15.360
 3178TIP3    H160002   0.259   3.425  15.278
 3178TIP3    H260003   0.237   3.549  15.363
 3179TIP3   OH260004   0.706   3.274  14.273
 3179TIP3    H160005   0.783   3.271  14.216
 3179TIP3    H260006   0.698   3.366  14.298
 3180TIP3   OH260007   1.182   2.267  15.208
 3180TIP3    H160008   1.231   2.313  15.276
 3180TIP3    H260009   1.090   2.286  15.226
 3181TIP3   OH260010   1.254   2.230  14.423
 3181TIP3    H160011   1.195   2.204  14.352
 3181TIP3    H260012   1.297   2.309  14.390
 3182TIP3   OH260013   1.007   2.483  15.434
 3182TIP3    H160014   0.911   2.481  15.439
 3182TIP3    H260015   1.035   2.410  15.489
 3183TIP3   OH260016   0.704   3.541  14.328
 3183TIP3    H160017   0.682   3.617  14.275
 3183TIP3    H260018   0.695   3.571  14.419
 3184TIP3   OH260019   1.565   2.280  15.541
 3184TIP3    H160020   1.496   2.261  15.477
 3184TIP3    H260021   1.640   2.308  15.488
 3185TIP3   OH260022   1.446   2.633  14.862
 3185TIP3    H160023   1.357   2.643  14.828
 3185TIP3    H260024   1.452   2.700  14.931
 3186TIP3   OH260025   0.439   3.261  14.184
 3186TIP3    H160026   0.528   3.262  14.220
 3186TIP3    H260027   0.445   3.202  14.108
 3187TIP3   OH260028   0.358   2.027  14.942
 3187TIP3    H160029   0.344   2.039  14.848
 3187TIP3    H260030   0.305   1.950  14.964
 3188TIP3   OH260031   0.202   3.412  14.571
 3188TIP3    H160032   0.181   3.324  14.539
 3188TIP3    H260033   0.203   3.467  14.493
 3189TIP3   OH260034   0.281   3.796  15.653
 3189TIP3    H160035   0.298   3.707  15.685
 3189TIP3    H260036   0.213   3.829  15.711
 3190TIP3   OH260037   0.605   3.512  15.826
 3190TIP3    H160038   0.672   3.450  15.855
 3190TIP3    H260039   0.575   3.477  15.742
 3191TIP3   OH260040   1.217   3.395  15.727
 3191TIP3    H160041   1.180   3.308  15.742
 3191TIP3    H260042   1.311   3.381  15.723
 3192TIP3   OH260043   0.831   3.061  15.734
 3192TIP3    H160044   0.778   3.098  15.663
 3192TIP3    H260045   0.804   2.969  15.738
 3193TIP3   OH260046   1.337   3.029  15.567
 3193TIP3    H160047   1.408   3.073  15.521
 3193TIP3    H260048   1.257   3.065  15.528
 3194TIP3   OH260049   0.599   2.748  15.518
 3194TIP3    H160050   0.574   2.835  15.548
 3194TIP3    H260051   0.679   2.762  15.467
 3195TIP3   OH260052   1.113   2.878  15.817
 3195TIP3    H160053   1.153   2.940  15.756
 3195TIP3    H260054   1.100   2.799  15.765
 3196TIP3   OH260055   0.858   2.799  15.406
 3196TIP3    H160056   0.938   2.768  15.364
 3196TIP3    H260057   0.816   2.855  15.341
 3197TIP3   OH260058   1.278   2.517  15.876
 3197TIP3    H160059   1.290   2.422  15.868
 3197TIP3    H260060   1.362   2.553  15.846
 3198TIP3   OH260061   1.436   2.794  15.645
 3198TIP3    H160062   1.400   2.878  15.616
 3198TIP3    H260063   1.528   2.813  15.663
 3199TIP3   OH260064   1.118   2.303  15.618
 3199TIP3    H160065   1.103   2.211  15.598
 3199TIP3    H260066   1.160   2.303  15.704
 3200TIP3   OH260067   1.273   2.237  15.850
 3200TIP3    H160068   1.294   2.159  15.797
 3200TIP3    H260069   1.218   2.203  15.920
 3201TIP3   OH260070   0.855   2.020  15.805
 3201TIP3    H160071   0.900   1.975  15.734
 3201TIP3    H260072   0.766   2.034  15.773
 3202TIP3   OH260073   0.151   3.240  14.178
 3202TIP3    H160074   0.246   3.241  14.167
 3202TIP3    H260075   0.120   3.316  14.129
 3203TIP3   OH260076   8.104   3.681  14.562
 3203TIP3    H160077   8.011   3.676  14.583
 3203TIP3    H260078   0.002   3.624  14.625
 3204TIP3   OH260079   0.063   3.529  14.778
 3204TIP3    H160080   0.110   3.476  14.714
 3204TIP3    H260081   0.125   3.542  14.849
 3205TIP3   OH260082   1.823   3.616  15.054
 3205TIP3    H160083   1.778   3.697  15.079
 3205TIP3    H260084   1.908   3.644  15.021
 3206TIP3   OH260085   1.929   3.067  14.361
 3206TIP3    H160086   1.918   2.991  14.304
 3206TIP3    H260087   1.887   3.042  14.443
 3207TIP3   OH260088   1.807   2.927  14.577
 3207TIP3    H160089   1.726   2.879  14.559
 3207TIP3    H260090   1.839   2.891  14.659
 3208TIP3   OH260091   1.835   3.097  15.114
 3208TIP3    H160092   1.886   3.040  15.058
 3208TIP3    H260093   1.859   3.186  15.087
 3209TIP3   OH260094   1.562   3.340  15.274
 3209TIP3    H160095   1.488   3.396  15.297
 3209TIP3    H260096   1.565   3.342  15.178
 3210TIP3   OH260097   1.590   2.710  14.623
 3210TIP3    H160098   1.593   2.626  14.576
 3210TIP3    H260099   1.555   2.688  14.709
 3211TIP3   OH260100   1.568   2.452  14.503
 3211TIP3    H160101   1.643   2.399  14.477
 3211TIP3    H260102   1.516   2.461  14.423
 3212TIP3   OH260103   1.620   2.426  15.045
 3212TIP3    H160104   1.715   2.426  15.035
 3212TIP3    H260105   1.604   2.471  15.128
 3213TIP3   OH260106   1.631   2.577  15.281
 3213TIP3    H160107   1.551   2.606  15.325
 3213TIP3    H260108   1.685   2.655  15.275
 3214TIP3   OH260109   0.036   2.394  15.707
 3214TIP3    H160110   0.093   2.332  15.661
 3214TIP3    H260111   8.092   2.359  15.696
 3215TIP3   OH260112   1.726   2.194  15.744
 3215TIP3    H160113   1.666   2.219  15.673
 3215TIP3    H260114   1.810   2.179  15.700
 3216TIP3   OH260115   8.106   2.215  14.511
 3216TIP3    H160116   8.078   2.186  14.425
 3216TIP3    H260117   0.058   2.220  14.504
 3217TIP3   OH260118   0.053   2.084  15.289
 3217TIP3    H160119   8.120   2.068  15.344
 3217TIP3    H260120   0.020   2.081  15.199
 3218TIP3   OH260121   0.249   3.326  15.773
 3218TIP3    H160122   0.183   3.342  15.705
 3218TIP3    H260123   0.278   3.413  15.799
 3219TIP3   OH260124   0.578   3.412  15.327
 3219TIP3    H160125   0.553   3.503  15.313
 3219TIP3    H260126   0.658   3.401  15.276
 3220TIP3   OH260127   1.016   3.572  15.642
 3220TIP3    H160128   0.992   3.593  15.733
 3220TIP3    H260129   1.096   3.519  15.651
 3221TIP3   OH260130   0.257   3.726  15.367
 3221TIP3    H160131   0.229   3.771  15.287
 3221TIP3    H260132   0.210   3.771  15.437
 3222TIP3   OH260133   0.515   3.671  15.293
 3222TIP3    H160134   0.430   3.695  15.329
 3222TIP3    H260135   0.532   3.736  15.225
 3223TIP3   OH260136   0.213   3.567  15.017
 3223TIP3    H160137   0.205   3.657  15.049
 3223TIP3    H260138   0.305   3.558  14.993
 3224TIP3   OH260139   0.463   3.493  14.928
 3224TIP3    H160140   0.443   3.406  14.964
 3224TIP3    H260141   0.559   3.498  14.932
 3225TIP3   OH260142   0.323   2.005  14.662
 3225TIP3    H160143   0.235   2.024  14.629
 3225TIP3    H260144   0.334   1.911  14.648
 3226TIP3   OH260145   0.738   1.928  14.679
 3226TIP3    H160146   0.717   2.010  14.633
 3226TIP3    H260147   0.765   1.956  14.766
 3227TIP3   OH260148   1.373   1.970  14.447
 3227TIP3    H160149   1.330   2.056  14.449
 3227TIP3    H260150   1.316   1.913  14.500
 3228TIP3   OH260151   0.221   3.582  14.360
 3228TIP3    H160152   0.142   3.563  14.310
 3228TIP3    H260153   0.224   3.678  14.363
 3229TIP3   OH260154   0.383   3.529  14.145
 3229TIP3    H160155   0.341   3.547  14.229
 3229TIP3    H260156   0.410   3.438  14.150
 3230TIP3   OH260157   2.328   3.221  15.011
 3230TIP3    H160158   2.344   3.127  15.020
 3230TIP3    H260159   2.319   3.253  15.101
 3231TIP3   OH260160   1.982   2.623  14.548
 3231TIP3    H160161   1.952   2.668  14.469
 3231TIP3    H260162   1.969   2.530  14.529
 3232TIP3   OH260163   2.009   2.809  14.750
 3232TIP3    H160164   1.997   2.734  14.693
 3232TIP3    H260165   2.048   2.876  14.694
 3233TIP3   OH260166   2.867   2.992  15.118
 3233TIP3    H160167   2.834   3.028  15.035
 3233TIP3    H260168   2.954   3.029  15.127
 3234TIP3   OH260169   3.112   2.521  15.060
 3234TIP3    H160170   3.123   2.426  15.066
 3234TIP3    H260171   3.034   2.533  15.007
 3235TIP3   OH260172   3.300   2.287  14.704
 3235TIP3    H160173   3.361   2.266  14.633
 3235TIP3    H260174   3.252   2.363  14.672
 3236TIP3   OH260175   3.461   2.215  14.923
 3236TIP3    H160176   3.403   2.243  14.852
 3236TIP3    H260177   3.496   2.297  14.959
 3237TIP3   OH260178   2.304   3.295  15.277
 3237TIP3    H160179   2.374   3.343  15.323
 3237TIP3    H260180   2.269   3.235  15.343
 3238TIP3   OH260181   2.208   3.209  14.301
 3238TIP3    H160182   2.282   3.241  14.250
 3238TIP3    H260183   2.245   3.139  14.355
 3239TIP3   OH260184   3.341   2.143  15.171
 3239TIP3    H160185   3.265   2.189  15.137
 3239TIP3    H260186   3.408   2.153  15.102
 3240TIP3   OH260187   3.515   3.159  15.443
 3240TIP3    H160188   3.484   3.093  15.381
 3240TIP3    H260189   3.507   3.242  15.395
 3241TIP3   OH260190   3.676   2.773  15.240
 3241TIP3    H160191   3.609   2.841  15.249
 3241TIP3    H260192   3.722   2.795  15.159
 3242TIP3   OH260193   3.340   2.700  15.451
 3242TIP3    H160194   3.348   2.795  15.459
 3242TIP3    H260195   3.258   2.687  15.404
 3243TIP3   OH260196   3.194   2.751  14.188
 3243TIP3    H160197   3.233   2.831  14.154
 3243TIP3    H260198   3.163   2.704  14.110
 3244TIP3   OH260199   2.303   3.349  15.635
 3244TIP3    H160200   2.364   3.400  15.582
 3244TIP3    H260201   2.268   3.283  15.575
 3245TIP3   OH260202   3.534   1.988  14.307
 3245TIP3    H160203   3.445   2.021  14.296
 3245TIP3    H260204   3.581   2.020  14.230
 3246TIP3   OH260205   1.934   3.044  15.372
 3246TIP3    H160206   1.902   3.083  15.291
 3246TIP3    H260207   1.904   2.953  15.368
 3247TIP3   OH260208   1.921   3.359  15.063
 3247TIP3    H160209   1.996   3.380  15.119
 3247TIP3    H260210   1.867   3.438  15.065
 3248TIP3   OH260211   2.789   3.792  14.421
 3248TIP3    H160212   2.763   3.780  14.330
 3248TIP3    H260213   2.875   3.833  14.417
 3249TIP3   OH260214   2.222   3.533  14.627
 3249TIP3    H160215   2.302   3.574  14.593
 3249TIP3    H260216   2.245   3.507  14.716
 3250TIP3   OH260217   3.429   2.540  15.657
 3250TIP3    H160218   3.397   2.604  15.594
 3250TIP3    H260219   3.442   2.460  15.606
 3251TIP3   OH260220   2.183   3.142  15.475
 3251TIP3    H160221   2.203   3.067  15.531
 3251TIP3    H260222   2.098   3.122  15.436
 3252TIP3   OH260223   2.927   1.944  15.443
 3252TIP3    H160224   2.961   1.944  15.532
 3252TIP3    H260225   2.964   2.023  15.403
 3253TIP3   OH260226   3.181   2.394  15.459
 3253TIP3    H160227   3.149   2.425  15.543
 3253TIP3    H260228   3.165   2.467  15.399
 3254TIP3   OH260229   2.980   2.605  14.546
 3254TIP3    H160230   2.928   2.665  14.491
 3254TIP3    H260231   3.060   2.591  14.497
 3255TIP3   OH260232   1.846   2.216  14.662
 3255TIP3    H160233   1.855   2.122  14.675
 3255TIP3    H260234   1.882   2.232  14.574
 3256TIP3   OH260235   3.112   2.625  15.314
 3256TIP3    H160236   3.121   2.597  15.222
 3256TIP3    H260237   3.022   2.658  15.320
 3257TIP3   OH260238   2.604   2.358  14.480
 3257TIP3    H160239   2.660   2.305  14.423
 3257TIP3    H260240   2.519   2.315  14.478
 3258TIP3   OH260241   3.102   2.249  15.085
 3258TIP3    H160242   3.061   2.213  15.164
 3258TIP3    H260243   3.066   2.197  15.013
 3259TIP3   OH260244   2.890   2.525  14.899
 3259TIP3    H160245   2.921   2.577  14.826
 3259TIP3    H260246   2.836   2.456  14.859
 3260TIP3   OH260247   2.632   2.357  15.196
 3260TIP3    H160248   2.624   2.408  15.116
 3260TIP3    H260249   2.726   2.347  15.210
 3261TIP3   OH260250   3.476   2.975  15.223
 3261TIP3    H160251   3.549   3.027  15.188
 3261TIP3    H260252   3.431   2.942  15.145
 3262TIP3   OH260253   3.213   2.570  14.405
 3262TIP3    H160254   3.305   2.546  14.413
 3262TIP3    H260255   3.210   2.625  14.326
 3263TIP3   OH260256   3.675   2.578  14.293
 3263TIP3    H160257   3.661   2.529  14.213
 3263TIP3    H260258   3.684   2.669  14.264
 3264TIP3   OH260259   3.730   3.071  15.588
 3264TIP3    H160260   3.653   3.116  15.553
 3264TIP3    H260261   3.789   3.064  15.513
 3265TIP3   OH260262   2.474   3.647  14.585
 3265TIP3    H160263   2.529   3.615  14.514
 3265TIP3    H260264   2.524   3.718  14.625
 3266TIP3   OH260265   2.119   3.494  15.225
 3266TIP3    H160266   2.185   3.428  15.243
 3266TIP3    H260267   2.140   3.566  15.284
 3267TIP3   OH260268   2.470   3.295  14.192
 3267TIP3    H160269   2.525   3.233  14.143
 3267TIP3    H260270   2.495   3.381  14.159
 3268TIP3   OH260271   3.082   2.156  15.349
 3268TIP3    H160272   3.105   2.238  15.394
 3268TIP3    H260273   3.167   2.116  15.328
 3269TIP3   OH260274   2.812   2.417  14.652
 3269TIP3    H160275   2.868   2.481  14.608
 3269TIP3    H260276   2.734   2.411  14.597
 3270TIP3   OH260277   2.917   2.164  14.645
 3270TIP3    H160278   2.883   2.253  14.655
 3270TIP3    H260279   2.910   2.145  14.552
 3271TIP3   OH260280   3.467   2.333  15.476
 3271TIP3    H160281   3.374   2.322  15.454
 3271TIP3    H260282   3.501   2.388  15.405
 3272TIP3   OH260283   3.336   2.626  14.926
 3272TIP3    H160284   3.296   2.696  14.874
 3272TIP3    H260285   3.263   2.586  14.972
 3273TIP3   OH260286   2.182   1.950  15.035
 3273TIP3    H160287   2.181   1.982  14.945
 3273TIP3    H260288   2.130   1.870  15.033
 3274TIP3   OH260289   2.023   3.351  14.503
 3274TIP3    H160290   1.974   3.348  14.585
 3274TIP3    H260291   2.098   3.407  14.522
 3275TIP3   OH260292   3.229   2.523  15.851
 3275TIP3    H160293   3.255   2.437  15.884
 3275TIP3    H260294   3.296   2.545  15.786
 3276TIP3   OH260295   2.209   2.306  15.723
 3276TIP3    H160296   2.177   2.246  15.655
 3276TIP3    H260297   2.269   2.253  15.776
 3277TIP3   OH260298   2.580   1.911  15.590
 3277TIP3    H160299   2.663   1.959  15.581
 3277TIP3    H260300   2.553   1.894  15.500
 3278TIP3   OH260301   2.023   3.239  14.072
 3278TIP3    H160302   2.111   3.251  14.035
 3278TIP3    H260303   1.968   3.217  13.997
 3279TIP3   OH260304   1.953   3.406  14.774
 3279TIP3    H160305   1.942   3.376  14.864
 3279TIP3    H260306   1.995   3.492  14.783
 3280TIP3   OH260307   3.651   3.593  15.114
 3280TIP3    H160308   3.580   3.653  15.091
 3280TIP3    H260309   3.731   3.642  15.097
 3281TIP3   OH260310   3.538   3.209  15.812
 3281TIP3    H160311   3.463   3.215  15.753
 3281TIP3    H260312   3.597   3.279  15.785
 3282TIP3   OH260313   3.770   2.946  14.441
 3282TIP3    H160314   3.808   3.034  14.438
 3282TIP3    H260315   3.762   2.920  14.349
 3283TIP3   OH260316   3.750   2.805  14.677
 3283TIP3    H160317   3.663   2.765  14.684
 3283TIP3    H260318   3.745   2.861  14.599
 3284TIP3   OH260319   3.701   3.093  15.129
 3284TIP3    H160320   3.747   3.035  15.069
 3284TIP3    H260321   3.725   3.181  15.101
 3285TIP3   OH260322   3.498   3.390  15.288
 3285TIP3    H160323   3.518   3.479  15.317
 3285TIP3    H260324   3.526   3.387  15.197
 3286TIP3   OH260325   3.696   2.839  14.159
 3286TIP3    H160326   3.699   2.825  14.064
 3286TIP3    H260327   3.617   2.891  14.173
 3287TIP3   OH260328   3.607   2.554  14.021
 3287TIP3    H160329   3.610   2.647  13.996
 3287TIP3    H260330   3.572   2.510  13.943
 3288TIP3   OH260331   3.523   2.652  14.697
 3288TIP3    H160332   3.501   2.598  14.621
 3288TIP3    H260333   3.458   2.627  14.763
 3289TIP3   OH260334   1.956   2.823  15.027
 3289TIP3    H160335   1.964   2.826  14.931
 3289TIP3    H260336   2.009   2.747  15.052
 3290TIP3   OH260337   3.567   2.863  15.671
 3290TIP3    H160338   3.621   2.786  15.650
 3290TIP3    H260339   3.615   2.936  15.633
 3291TIP3   OH260340   3.695   2.619  15.641
 3291TIP3    H160341   3.603   2.594  15.650
 3291TIP3    H260342   3.743   2.541  15.669
 3292TIP3   OH260343   3.480   2.487  14.475
 3292TIP3    H160344   3.484   2.391  14.469
 3292TIP3    H260345   3.543   2.517  14.409
 3293TIP3   OH260346   3.526   2.454  15.040
 3293TIP3    H160347   3.474   2.520  14.995
 3293TIP3    H260348   3.523   2.479  15.132
 3294TIP3   OH260349   3.523   2.549  15.306
 3294TIP3    H160350   3.456   2.600  15.352
 3294TIP3    H260351   3.590   2.613  15.282
 3295TIP3   OH260352   3.457   2.205  14.492
 3295TIP3    H160353   3.533   2.153  14.466
 3295TIP3    H260354   3.385   2.169  14.440
 3296TIP3   OH260355   3.682   2.170  15.559
 3296TIP3    H160356   3.608   2.219  15.523
 3296TIP3    H260357   3.729   2.139  15.482
 3297TIP3   OH260358   1.949   2.237  14.403
 3297TIP3    H160359   1.967   2.149  14.368
 3297TIP3    H260360   1.979   2.297  14.334
 3298TIP3   OH260361   3.421   3.618  14.643
 3298TIP3    H160362   3.391   3.634  14.554
 3298TIP3    H260363   3.505   3.664  14.649
 3299TIP3   OH260364   2.069   3.258  15.798
 3299TIP3    H160365   1.998   3.230  15.740
 3299TIP3    H260366   2.121   3.318  15.745
 3300TIP3   OH260367   2.475   3.460  15.420
 3300TIP3    H160368   2.473   3.542  15.372
 3300TIP3    H260369   2.568   3.444  15.437
 3301TIP3   OH260370   3.163   3.749  15.552
 3301TIP3    H160371   3.199   3.745  15.463
 3301TIP3    H260372   3.082   3.800  15.542
 3302TIP3   OH260373   2.184   3.770  15.331
 3302TIP3    H160374   2.155   3.824  15.258
 3302TIP3    H260375   2.181   3.828  15.407
 3303TIP3   OH260376   2.451   3.706  15.280
 3303TIP3    H160377   2.360   3.722  15.304
 3303TIP3    H260378   2.461   3.748  15.194
 3304TIP3   OH260379   2.104   3.621  14.982
 3304TIP3    H160380   2.104   3.582  15.070
 3304TIP3    H260381   2.178   3.580  14.938
 3305TIP3   OH260382   2.320   3.476  14.889
 3305TIP3    H160383   2.321   3.387  14.924
 3305TIP3    H260384   2.412   3.504  14.893
 3306TIP3   OH260385   2.599   3.535  14.919
 3306TIP3    H160386   2.672   3.499  14.868
 3306TIP3    H260387   2.625   3.625  14.939
 3307TIP3   OH260388   2.968   2.091  14.904
 3307TIP3    H160389   2.884   2.087  14.950
 3307TIP3    H260390   2.946   2.119  14.816
 3308TIP3   OH260391   3.450   1.950  14.834
 3308TIP3    H160392   3.479   2.036  14.864
 3308TIP3    H260393   3.363   1.965  14.798
 3309TIP3   OH260394   2.138   1.951  14.760
 3309TIP3    H160395   2.054   1.965  14.716
 3309TIP3    H260396   2.167   1.865  14.728
 3310TIP3   OH260397   2.029   2.016  14.239
 3310TIP3    H160398   2.118   1.993  14.212
 3310TIP3    H260399   1.972   1.963  14.184
 3311TIP3   OH260400   3.209   2.024  14.728
 3311TIP3    H160401   3.227   2.118  14.721
 3311TIP3    H260402   3.115   2.018  14.743
 3312TIP3   OH260403   3.266   2.067  14.346
 3312TIP3    H160404   3.210   2.107  14.279
 3312TIP3    H260405   3.204   2.032  14.410
 3313TIP3   OH260406   2.017   3.491  14.250
 3313TIP3    H160407   2.066   3.529  14.177
 3313TIP3    H260408   1.990   3.567  14.302
 3314TIP3   OH260409   2.741   2.196  14.310
 3314TIP3    H160410   2.823   2.154  14.285
 3314TIP3    H260411   2.699   2.219  14.227
 3315TIP3   OH260412   2.162   2.072  15.576
 3315TIP3    H160413   2.157   2.013  15.501
 3315TIP3    H260414   2.230   2.035  15.632
 3316TIP3   OH260415   2.355   1.972  15.748
 3316TIP3    H160416   2.436   1.949  15.703
 3316TIP3    H260417   2.351   1.911  15.822
 3317TIP3   OH260418   2.158   3.631  14.072
 3317TIP3    H160419   2.179   3.725  14.080
 3317TIP3    H260420   2.187   3.608  13.984
 3318TIP3   OH260421   4.974   2.907  14.635
 3318TIP3    H160422   4.934   2.993  14.647
 3318TIP3    H260423   4.918   2.863  14.571
 3319TIP3   OH260424   4.897   2.845  15.066
 3319TIP3    H160425   4.910   2.785  15.139
 3319TIP3    H260426   4.841   2.797  15.005
 3320TIP3   OH260427   4.070   2.798  15.113
 3320TIP3    H160428   4.077   2.703  15.098
 3320TIP3    H260429   4.130   2.814  15.186
 3321TIP3   OH260430   5.286   3.128  14.903
 3321TIP3    H160431   5.250   3.041  14.921
 3321TIP3    H260432   5.212   3.188  14.915
 3322TIP3   OH260433   4.244   3.252  15.049
 3322TIP3    H160434   4.210   3.170  15.012
 3322TIP3    H260435   4.330   3.263  15.008
 3323TIP3   OH260436   3.841   2.566  14.522
 3323TIP3    H160437   3.797   2.638  14.567
 3323TIP3    H260438   3.793   2.556  14.440
 3324TIP3   OH260439   4.006   2.744  14.740
 3324TIP3    H160440   3.986   2.661  14.784
 3324TIP3    H260441   3.921   2.778  14.713
 3325TIP3   OH260442   4.665   3.093  15.024
 3325TIP3    H160443   4.698   3.044  14.949
 3325TIP3    H260444   4.743   3.122  15.071
 3326TIP3   OH260445   5.589   2.238  15.127
 3326TIP3    H160446   5.606   2.290  15.205
 3326TIP3    H260447   5.665   2.252  15.071
 3327TIP3   OH260448   5.013   2.480  15.062
 3327TIP3    H160449   5.035   2.387  15.071
 3327TIP3    H260450   4.999   2.492  14.968
 3328TIP3   OH260451   4.387   2.283  14.725
 3328TIP3    H160452   4.362   2.376  14.728
 3328TIP3    H260453   4.392   2.263  14.631
 3329TIP3   OH260454   5.133   2.352  14.647
 3329TIP3    H160455   5.179   2.316  14.723
 3329TIP3    H260456   5.200   2.398  14.597
 3330TIP3   OH260457   4.478   2.688  14.839
 3330TIP3    H160458   4.570   2.671  14.858
 3330TIP3    H260459   4.458   2.635  14.763
 3331TIP3   OH260460   5.596   2.386  15.354
 3331TIP3    H160461   5.541   2.465  15.348
 3331TIP3    H260462   5.646   2.398  15.435
 3332TIP3   OH260463   4.827   3.147  14.610
 3332TIP3    H160464   4.827   3.140  14.514
 3332TIP3    H260465   4.834   3.241  14.627
 3333TIP3   OH260466   4.467   2.990  15.196
 3333TIP3    H160467   4.410   3.058  15.231
 3333TIP3    H260468   4.524   3.035  15.134
 3334TIP3   OH260469   5.231   2.293  14.894
 3334TIP3    H160470   5.180   2.244  14.959
 3334TIP3    H260471   5.296   2.341  14.946
 3335TIP3   OH260472   4.303   3.196  15.312
 3335TIP3    H160473   4.284   3.227  15.224
 3335TIP3    H260474   4.221   3.208  15.360
 3336TIP3   OH260475   3.898   3.200  14.421
 3336TIP3    H160476   3.891   3.214  14.326
 3336TIP3    H260477   3.910   3.287  14.457
 3337TIP3   OH260478   5.327   2.124  15.229
 3337TIP3    H160479   5.250   2.156  15.183
 3337TIP3    H260480   5.401   2.151  15.173
 3338TIP3   OH260481   5.113   3.520  14.632
 3338TIP3    H160482   5.163   3.439  14.642
 3338TIP3    H260483   5.109   3.535  14.538
 3339TIP3   OH260484   5.250   3.283  14.657
 3339TIP3    H160485   5.276   3.243  14.574
 3339TIP3    H260486   5.280   3.222  14.724
 3340TIP3   OH260487   4.800   2.812  14.442
 3340TIP3    H160488   4.730   2.876  14.429
 3340TIP3    H260489   4.818   2.777  14.355
 3341TIP3   OH260490   4.859   2.692  14.204
 3341TIP3    H160491   4.953   2.707  14.198
 3341TIP3    H260492   4.833   2.666  14.115
 3342TIP3   OH260493   5.532   2.808  15.263
 3342TIP3    H160494   5.466   2.874  15.243
 3342TIP3    H260495   5.606   2.829  15.205
 3343TIP3   OH260496   5.216   2.885  14.496
 3343TIP3    H160497   5.136   2.892  14.548
 3343TIP3    H260498   5.274   2.830  14.548
 3344TIP3   OH260499   5.157   2.676  15.432
 3344TIP3    H160500   5.151   2.764  15.470
 3344TIP3    H260501   5.089   2.674  15.365
 3345TIP3   OH260502   4.323   2.883  14.718
 3345TIP3    H160503   4.379   2.956  14.693
 3345TIP3    H260504   4.381   2.824  14.767
 3346TIP3   OH260505   4.485   3.287  14.929
 3346TIP3    H160506   4.469   3.286  14.835
 3346TIP3    H260507   4.550   3.218  14.943
 3347TIP3   OH260508   4.386   2.736  15.101
 3347TIP3    H160509   4.412   2.729  15.009
 3347TIP3    H260510   4.407   2.826  15.125
 3348TIP3   OH260511   5.034   3.356  15.243
 3348TIP3    H160512   5.075   3.396  15.166
 3348TIP3    H260513   4.989   3.278  15.208
 3349TIP3   OH260514   4.449   3.255  15.542
 3349TIP3    H160515   4.387   3.319  15.577
 3349TIP3    H260516   4.412   3.228  15.458
 3350TIP3   OH260517   5.125   2.771  14.254
 3350TIP3    H160518   5.157   2.824  14.327
 3350TIP3    H260519   5.167   2.810  14.177
 3351TIP3   OH260520   4.105   2.844  15.443
 3351TIP3    H160521   4.117   2.909  15.513
 3351TIP3    H260522   4.015   2.813  15.454
 3352TIP3   OH260523   4.850   3.425  14.625
 3352TIP3    H160524   4.940   3.454  14.640
 3352TIP3    H260525   4.819   3.480  14.554
 3353TIP3   OH260526   4.272   3.457  15.635
 3353TIP3    H160527   4.281   3.487  15.545
 3353TIP3    H260528   4.178   3.444  15.647
 3354TIP3   OH260529   5.468   1.959  14.245
 3354TIP3    H160530   5.379   1.987  14.265
 3354TIP3    H260531   5.507   2.032  14.197
 3355TIP3   OH260532   4.141   2.825  14.365
 3355TIP3    H160533   4.150   2.920  14.356
 3355TIP3    H260534   4.090   2.799  14.288
 3356TIP3   OH260535   3.870   3.054  15.349
 3356TIP3    H160536   3.808   3.081  15.281
 3356TIP3    H260537   3.915   2.978  15.313
 3357TIP3   OH260538   3.775   3.348  15.068
 3357TIP3    H160539   3.864   3.376  15.048
 3357TIP3    H260540   3.728   3.429  15.089
 3358TIP3   OH260541   5.627   3.403  15.660
 3358TIP3    H160542   5.619   3.330  15.598
 3358TIP3    H260543   5.547   3.453  15.649
 3359TIP3   OH260544   4.711   3.325  15.486
 3359TIP3    H160545   4.737   3.391  15.550
 3359TIP3    H260546   4.620   3.305  15.507
 3360TIP3   OH260547   4.160   3.600  14.671
 3360TIP3    H160548   4.162   3.558  14.757
 3360TIP3    H260549   4.097   3.549  14.621
 3361TIP3   OH260550   5.349   2.571  15.651
 3361TIP3    H160551   5.273   2.590  15.597
 3361TIP3    H260552   5.376   2.482  15.626
 3362TIP3   OH260553   4.066   3.217  15.465
 3362TIP3    H160554   4.086   3.150  15.531
 3362TIP3    H260555   3.997   3.178  15.412
 3363TIP3   OH260556   4.797   2.009  15.406
 3363TIP3    H160557   4.835   1.954  15.475
 3363TIP3    H260558   4.703   1.999  15.417
 3364TIP3   OH260559   5.124   2.400  15.489
 3364TIP3    H160560   5.049   2.389  15.548
 3364TIP3    H260561   5.118   2.490  15.459
 3365TIP3   OH260562   4.791   2.238  14.088
 3365TIP3    H160563   4.703   2.235  14.125
 3365TIP3    H260564   4.777   2.256  13.995
 3366TIP3   OH260565   4.350   2.498  15.229
 3366TIP3    H160566   4.265   2.507  15.274
 3366TIP3    H260567   4.360   2.579  15.180
 3367TIP3   OH260568   4.375   2.550  14.610
 3367TIP3    H160569   4.289   2.534  14.571
 3367TIP3    H260570   4.434   2.553  14.535
 3368TIP3   OH260571   4.857   2.565  14.547
 3368TIP3    H160572   4.827   2.649  14.513
 3368TIP3    H260573   4.937   2.547  14.498
 3369TIP3   OH260574   4.792   2.639  15.724
 3369TIP3    H160575   4.742   2.561  15.746
 3369TIP3    H260576   4.882   2.618  15.751
 3370TIP3   OH260577   4.973   2.521  14.793
 3370TIP3    H160578   4.926   2.566  14.723
 3370TIP3    H260579   5.021   2.451  14.749
 3371TIP3   OH260580   4.107   2.579  15.354
 3371TIP3    H160581   4.140   2.664  15.382
 3371TIP3    H260582   4.012   2.584  15.368
 3372TIP3   OH260583   4.947   2.651  15.258
 3372TIP3    H160584   4.974   2.593  15.187
 3372TIP3    H260585   4.877   2.603  15.303
 3373TIP3   OH260586   4.644   2.275  14.833
 3373TIP3    H160587   4.555   2.264  14.799
 3373TIP3    H260588   4.632   2.328  14.912
 3374TIP3   OH260589   4.116   2.550  14.513
 3374TIP3    H160590   4.021   2.544  14.515
 3374TIP3    H260591   4.139   2.538  14.421
 3375TIP3   OH260592   5.060   2.206  15.105
 3375TIP3    H160593   5.015   2.221  15.187
 3375TIP3    H260594   4.996   2.163  15.049
 3376TIP3   OH260595   5.404   3.802  15.683
 3376TIP3    H160596   5.420   3.862  15.610
 3376TIP3    H260597   5.454   3.839  15.756
 3377TIP3   OH260598   4.102   3.028  15.663
 3377TIP3    H160599   4.173   3.022  15.727
 3377TIP3    H260600   4.024   3.045  15.716
 3378TIP3   OH260601   4.734   2.616  14.942
 3378TIP3    H160602   4.806   2.572  14.899
 3378TIP3    H260603   4.704   2.555  15.009
 3379TIP3   OH260604   4.618   2.451  15.142
 3379TIP3    H160605   4.529   2.475  15.166
 3379TIP3    H260606   4.669   2.463  15.222
 3380TIP3   OH260607   4.595   2.992  14.396
 3380TIP3    H160608   4.560   2.942  14.322
 3380TIP3    H260609   4.540   3.070  14.400
 3381TIP3   OH260610   5.334   2.993  15.213
 3381TIP3    H160611   5.393   3.053  15.168
 3381TIP3    H260612   5.275   2.962  15.145
 3382TIP3   OH260613   5.044   2.313  14.178
 3382TIP3    H160614   4.961   2.283  14.143
 3382TIP3    H260615   5.058   2.399  14.138
 3383TIP3   OH260616   4.846   3.084  15.435
 3383TIP3    H160617   4.775   3.025  15.460
 3383TIP3    H260618   4.812   3.172  15.452
 3384TIP3   OH260619   5.098   2.547  14.415
 3384TIP3    H160620   5.189   2.516  14.414
 3384TIP3    H260621   5.096   2.616  14.348
 3385TIP3   OH260622   4.187   3.001  14.948
 3385TIP3    H160623   4.219   2.966  14.864
 3385TIP3    H260624   4.146   2.926  14.990
 3386TIP3   OH260625   3.859   2.723  15.442
 3386TIP3    H160626   3.805   2.690  15.514
 3386TIP3    H260627   3.796   2.741  15.372
 3387TIP3   OH260628   4.629   2.853  15.647
 3387TIP3    H160629   4.619   2.846  15.552
 3387TIP3    H260630   4.674   2.772  15.671
 3388TIP3   OH260631   5.548   2.532  14.313
 3388TIP3    H160632   5.525   2.490  14.231
 3388TIP3    H260633   5.563   2.624  14.290
 3389TIP3   OH260634   5.595   3.163  15.511
 3389TIP3    H160635   5.505   3.146  15.483
 3389TIP3    H260636   5.646   3.164  15.429
 3390TIP3   OH260637   5.407   3.397  14.325
 3390TIP3    H160638   5.376   3.314  14.360
 3390TIP3    H260639   5.360   3.407  14.242
 3391TIP3   OH260640   5.173   2.890  15.008
 3391TIP3    H160641   5.078   2.884  15.016
 3391TIP3    H260642   5.198   2.811  14.961
 3392TIP3   OH260643   4.401   3.329  14.666
 3392TIP3    H160644   4.427   3.421  14.657
 3392TIP3    H260645   4.322   3.321  14.613
 3393TIP3   OH260646   3.984   2.803  14.143
 3393TIP3    H160647   4.010   2.867  14.076
 3393TIP3    H260648   3.889   2.806  14.145
 3394TIP3   OH260649   4.513   3.078  14.677
 3394TIP3    H160650   4.595   3.073  14.627
 3394TIP3    H260651   4.480   3.166  14.659
 3395TIP3   OH260652   4.567   3.495  15.281
 3395TIP3    H160653   4.569   3.584  15.316
 3395TIP3    H260654   4.641   3.451  15.322
 3396TIP3   OH260655   4.434   3.603  14.633
 3396TIP3    H160656   4.340   3.617  14.639
 3396TIP3    H260657   4.459   3.641  14.548
 3397TIP3   OH260658   4.908   3.108  15.167
 3397TIP3    H160659   4.886   3.096  15.260
 3397TIP3    H260660   4.913   3.019  15.133
 3398TIP3   OH260661   5.351   3.130  14.449
 3398TIP3    H160662   5.293   3.054  14.449
 3398TIP3    H260663   5.438   3.093  14.438
 3399TIP3   OH260664   4.019   3.524  15.288
 3399TIP3    H160665   4.102   3.484  15.315
 3399TIP3    H260666   4.020   3.611  15.328
 3400TIP3   OH260667   4.459   3.292  14.216
 3400TIP3    H160668   4.497   3.276  14.129
 3400TIP3    H260669   4.481   3.382  14.236
 3401TIP3   OH260670   4.151   3.094  14.366
 3401TIP3    H160671   4.065   3.129  14.390
 3401TIP3    H260672   4.173   3.137  14.284
 3402TIP3   OH260673   4.920   2.245  15.340
 3402TIP3    H160674   4.986   2.258  15.408
 3402TIP3    H260675   4.876   2.164  15.364
 3403TIP3   OH260676   5.015   2.211  14.433
 3403TIP3    H160677   5.021   2.257  14.349
 3403TIP3    H260678   5.047   2.274  14.497
 3404TIP3   OH260679   4.674   2.354  14.555
 3404TIP3    H160680   4.732   2.427  14.534
 3404TIP3    H260681   4.676   2.348  14.651
 3405TIP3   OH260682   4.770   2.476  15.376
 3405TIP3    H160683   4.756   2.480  15.471
 3405TIP3    H260684   4.818   2.394  15.363
 3406TIP3   OH260685   4.786   2.092  14.526
 3406TIP3    H160686   4.739   2.172  14.550
 3406TIP3    H260687   4.869   2.123  14.490
 3407TIP3   OH260688   4.519   3.564  14.237
 3407TIP3    H160689   4.576   3.586  14.163
 3407TIP3    H260690   4.437   3.610  14.217
 3408TIP3   OH260691   5.382   2.318  15.536
 3408TIP3    H160692   5.288   2.327  15.516
 3408TIP3    H260693   5.424   2.318  15.450
 3409TIP3   OH260694   5.225   2.640  14.886
 3409TIP3    H160695   5.142   2.609  14.852
 3409TIP3    H260696   5.258   2.567  14.939
 3410TIP3   OH260697   4.203   3.227  14.126
 3410TIP3    H160698   4.289   3.253  14.159
 3410TIP3    H260699   4.200   3.264  14.038
 3411TIP3   OH260700   3.947   3.465  14.541
 3411TIP3    H160701   3.894   3.483  14.618
 3411TIP3    H260702   3.920   3.531  14.477
 3412TIP3   OH260703   3.955   3.672  15.771
 3412TIP3    H160704   4.025   3.656  15.834
 3412TIP3    H260705   3.957   3.595  15.714
 3413TIP3   OH260706   4.397   3.482  15.882
 3413TIP3    H160707   4.469   3.420  15.883
 3413TIP3    H260708   4.360   3.475  15.793
 3414TIP3   OH260709   3.879   3.062  15.827
 3414TIP3    H160710   3.874   2.973  15.862
 3414TIP3    H260711   3.814   3.064  15.757
 3415TIP3   OH260712   4.512   3.080  15.747
 3415TIP3    H160713   4.497   3.130  15.667
 3415TIP3    H260714   4.560   3.002  15.718
 3416TIP3   OH260715   5.110   2.986  15.447
 3416TIP3    H160716   5.157   3.019  15.370
 3416TIP3    H260717   5.025   3.030  15.443
 3417TIP3   OH260718   4.452   2.874  14.197
 3417TIP3    H160719   4.358   2.890  14.186
 3417TIP3    H260720   4.483   2.851  14.109
 3418TIP3   OH260721   4.897   2.891  15.826
 3418TIP3    H160722   4.976   2.889  15.772
 3418TIP3    H260723   4.840   2.825  15.787
 3419TIP3   OH260724   5.507   2.915  14.002
 3419TIP3    H160725   5.459   2.865  13.936
 3419TIP3    H260726   5.491   3.006  13.979
 3420TIP3   OH260727   4.450   2.231  15.253
 3420TIP3    H160728   4.533   2.258  15.214
 3420TIP3    H260729   4.396   2.310  15.253
 3421TIP3   OH260730   4.617   2.843  15.374
 3421TIP3    H160731   4.636   2.767  15.321
 3421TIP3    H260732   4.559   2.897  15.320
 3422TIP3   OH260733   5.034   2.572  15.845
 3422TIP3    H160734   5.067   2.483  15.839
 3422TIP3    H260735   5.112   2.626  15.853
 3423TIP3   OH260736   5.167   2.870  15.684
 3423TIP3    H160737   5.133   2.924  15.613
 3423TIP3    H260738   5.260   2.860  15.665
 3424TIP3   OH260739   4.522   1.990  15.387
 3424TIP3    H160740   4.488   2.070  15.347
 3424TIP3    H260741   4.445   1.933  15.396
 3425TIP3   OH260742   4.687   2.390  15.799
 3425TIP3    H160743   4.684   2.349  15.886
 3425TIP3    H260744   4.597   2.418  15.783
 3426TIP3   OH260745   4.915   2.337  15.651
 3426TIP3    H160746   4.832   2.348  15.697
 3426TIP3    H260747   4.969   2.284  15.710
 3427TIP3   OH260748   5.086   2.210  15.831
 3427TIP3    H160749   5.085   2.114  15.829
 3427TIP3    H260750   5.053   2.232  15.918
 3428TIP3   OH260751   3.923   3.216  14.150
 3428TIP3    H160752   4.017   3.221  14.135
 3428TIP3    H260753   3.885   3.210  14.062
 3429TIP3   OH260754   3.689   3.740  14.638
 3429TIP3    H160755   3.727   3.745  14.550
 3429TIP3    H260756   3.745   3.678  14.684
 3430TIP3   OH260757   3.821   3.541  14.780
 3430TIP3    H160758   3.748   3.488  14.811
 3430TIP3    H260759   3.870   3.562  14.860
 3431TIP3   OH260760   5.603   3.008  14.447
 3431TIP3    H160761   5.678   3.062  14.422
 3431TIP3    H260762   5.628   2.970  14.531
 3432TIP3   OH260763   5.532   3.132  15.078
 3432TIP3    H160764   5.479   3.154  15.002
 3432TIP3    H260765   5.605   3.194  15.076
 3433TIP3   OH260766   5.593   2.797  14.257
 3433TIP3    H160767   5.578   2.825  14.167
 3433TIP3    H260768   5.584   2.877  14.309
 3434TIP3   OH260769   5.471   2.423  14.065
 3434TIP3    H160770   5.494   2.478  13.991
 3434TIP3    H260771   5.387   2.384  14.041
 3435TIP3   OH260772   5.379   2.705  14.659
 3435TIP3    H160773   5.374   2.624  14.609
 3435TIP3    H260774   5.326   2.688  14.737
 3436TIP3   OH260775   3.819   2.867  15.017
 3436TIP3    H160776   3.814   2.853  14.923
 3436TIP3    H260777   3.910   2.847  15.040
 3437TIP3   OH260778   5.443   2.826  15.626
 3437TIP3    H160779   5.425   2.732  15.633
 3437TIP3    H260780   5.477   2.837  15.537
 3438TIP3   OH260781   5.251   2.259  13.984
 3438TIP3    H160782   5.208   2.250  14.069
 3438TIP3    H260783   5.180   2.268  13.922
 3439TIP3   OH260784   5.361   2.455  14.506
 3439TIP3    H160785   5.379   2.362  14.513
 3439TIP3    H260786   5.422   2.486  14.438
 3440TIP3   OH260787   5.395   2.438  15.064
 3440TIP3    H160788   5.461   2.370  15.077
 3440TIP3    H260789   5.385   2.479  15.150
 3441TIP3   OH260790   5.397   2.576  15.309
 3441TIP3    H160791   5.313   2.607  15.344
 3441TIP3    H260792   5.446   2.657  15.290
 3442TIP3   OH260793   3.801   2.373  15.708
 3442TIP3    H160794   3.895   2.361  15.697
 3442TIP3    H260795   3.761   2.301  15.660
 3443TIP3   OH260796   5.648   1.964  15.824
 3443TIP3    H160797   5.708   1.900  15.784
 3443TIP3    H260798   5.641   2.034  15.759
 3444TIP3   OH260799   5.396   2.178  14.524
 3444TIP3    H160800   5.406   2.124  14.602
 3444TIP3    H260801   5.338   2.128  14.467
 3445TIP3   OH260802   5.573   2.146  15.635
 3445TIP3    H160803   5.512   2.219  15.624
 3445TIP3    H260804   5.556   2.088  15.561
 3446TIP3   OH260805   5.588   2.169  14.105
 3446TIP3    H160806   5.607   2.143  14.015
 3446TIP3    H260807   5.552   2.257  14.097
 3447TIP3   OH260808   3.989   3.419  15.646
 3447TIP3    H160809   4.007   3.363  15.571
 3447TIP3    H260810   3.905   3.389  15.679
 3448TIP3   OH260811   4.299   3.514  15.367
 3448TIP3    H160812   4.286   3.596  15.320
 3448TIP3    H260813   4.381   3.479  15.332
 3449TIP3   OH260814   5.473   1.972  15.444
 3449TIP3    H160815   5.405   2.003  15.384
 3449TIP3    H260816   5.484   1.879  15.422
 3450TIP3   OH260817   4.026   3.791  15.373
 3450TIP3    H160818   3.941   3.815  15.337
 3450TIP3    H260819   4.048   3.864  15.431
 3451TIP3   OH260820   4.268   3.754  15.232
 3451TIP3    H160821   4.184   3.781  15.268
 3451TIP3    H260822   4.263   3.779  15.139
 3452TIP3   OH260823   3.954   3.570  15.024
 3452TIP3    H160824   3.970   3.560  15.118
 3452TIP3    H260825   4.041   3.571  14.985
 3453TIP3   OH260826   4.209   3.510  14.934
 3453TIP3    H160827   4.213   3.423  14.973
 3453TIP3    H260828   4.294   3.549  14.953
 3454TIP3   OH260829   4.488   3.548  15.018
 3454TIP3    H160830   4.495   3.462  14.976
 3454TIP3    H260831   4.512   3.532  15.109
 3455TIP3   OH260832   4.853   2.105  14.947
 3455TIP3    H160833   4.790   2.154  14.894
 3455TIP3    H260834   4.914   2.067  14.883
 3456TIP3   OH260835   5.291   1.982  14.947
 3456TIP3    H160836   5.357   2.017  14.887
 3456TIP3    H260837   5.209   1.991  14.899
 3457TIP3   OH260838   5.489   2.036  14.754
 3457TIP3    H160839   5.560   1.981  14.722
 3457TIP3    H260840   5.530   2.120  14.773
 3458TIP3   OH260841   5.053   1.981  14.800
 3458TIP3    H160842   5.066   1.976  14.705
 3458TIP3    H260843   5.018   1.895  14.824
 3459TIP3   OH260844   5.219   2.025  14.379
 3459TIP3    H160845   5.146   2.087  14.378
 3459TIP3    H260846   5.178   1.940  14.393
 3460TIP3   OH260847   3.836   3.684  14.402
 3460TIP3    H160848   3.764   3.649  14.349
 3460TIP3    H260849   3.871   3.756  14.350
 3461TIP3   OH260850   4.575   2.188  14.341
 3461TIP3    H160851   4.650   2.129  14.350
 3461TIP3    H260852   4.598   2.264  14.394
 3462TIP3   OH260853   5.512   3.643  14.380
 3462TIP3    H160854   5.471   3.556  14.378
 3462TIP3    H260855   5.502   3.677  14.292
 3463TIP3   OH260856   4.123   3.694  14.018
 3463TIP3    H160857   4.034   3.723  14.000
 3463TIP3    H260858   4.161   3.679  13.932
 3464TIP3   OH260859   5.117   1.933  15.819
 3464TIP3    H160860   5.109   1.882  15.899
 3464TIP3    H260861   5.207   1.919  15.790
 3465TIP3   OH260862   5.386   3.530  15.662
 3465TIP3    H160863   5.294   3.516  15.687
 3465TIP3    H260864   5.396   3.626  15.665
 3466TIP3   OH260865   6.770   2.797  14.972
 3466TIP3    H160866   6.774   2.768  15.063
 3466TIP3    H260867   6.681   2.831  14.962
 3467TIP3   OH260868   6.106   3.249  15.036
 3467TIP3    H160869   6.112   3.216  15.125
 3467TIP3    H260870   6.195   3.245  15.002
 3468TIP3   OH260871   5.710   2.591  14.537
 3468TIP3    H160872   5.683   2.681  14.555
 3468TIP3    H260873   5.648   2.561  14.470
 3469TIP3   OH260874   7.460   2.268  15.172
 3469TIP3    H160875   7.454   2.323  15.250
 3469TIP3    H260876   7.535   2.302  15.124
 3470TIP3   OH260877   6.879   2.490  15.053
 3470TIP3    H160878   6.900   2.397  15.046
 3470TIP3    H260879   6.891   2.523  14.964
 3471TIP3   OH260880   7.021   2.340  14.612
 3471TIP3    H160881   7.057   2.336  14.700
 3471TIP3    H260882   6.976   2.424  14.608
 3472TIP3   OH260883   7.400   2.432  15.383
 3472TIP3    H160884   7.340   2.499  15.350
 3472TIP3    H260885   7.369   2.413  15.471
 3473TIP3   OH260886   6.853   3.212  14.578
 3473TIP3    H160887   6.835   3.218  14.484
 3473TIP3    H260888   6.770   3.182  14.616
 3474TIP3   OH260889   6.434   3.034  15.268
 3474TIP3    H160890   6.353   3.081  15.288
 3474TIP3    H260891   6.441   3.040  15.172
 3475TIP3   OH260892   7.125   2.294  14.859
 3475TIP3    H160893   7.050   2.264  14.910
 3475TIP3    H260894   7.176   2.348  14.919
 3476TIP3   OH260895   6.196   3.188  15.301
 3476TIP3    H160896   6.189   3.283  15.309
 3476TIP3    H260897   6.181   3.155  15.390
 3477TIP3   OH260898   5.833   3.149  14.388
 3477TIP3    H160899   5.866   3.143  14.299
 3477TIP3    H260900   5.868   3.232  14.421
 3478TIP3   OH260901   7.158   3.333  15.142
 3478TIP3    H160902   7.154   3.273  15.068
 3478TIP3    H260903   7.188   3.416  15.104
 3479TIP3   OH260904   7.202   2.123  15.135
 3479TIP3    H160905   7.141   2.195  15.150
 3479TIP3    H260906   7.289   2.162  15.142
 3480TIP3   OH260907   7.116   3.242  14.492
 3480TIP3    H160908   7.026   3.239  14.523
 3480TIP3    H260909   7.165   3.284  14.563
 3481TIP3   OH260910   6.714   2.771  14.406
 3481TIP3    H160911   6.656   2.846  14.394
 3481TIP3    H260912   6.785   2.786  14.344
 3482TIP3   OH260913   6.999   2.685  15.412
 3482TIP3    H160914   6.987   2.763  15.467
 3482TIP3    H260915   6.927   2.689  15.349
 3483TIP3   OH260916   6.376   3.269  14.958
 3483TIP3    H160917   6.371   3.278  14.863
 3483TIP3    H260918   6.470   3.273  14.977
 3484TIP3   OH260919   6.969   2.789  14.267
 3484TIP3    H160920   7.008   2.859  14.319
 3484TIP3    H260921   6.989   2.812  14.176
 3485TIP3   OH260922   7.265   2.018  14.256
 3485TIP3    H160923   7.258   1.988  14.166
 3485TIP3    H260924   7.335   2.083  14.255
 3486TIP3   OH260925   5.772   3.303  15.093
 3486TIP3    H160926   5.850   3.275  15.044
 3486TIP3    H260927   5.802   3.377  15.146
 3487TIP3   OH260928   6.070   3.584  14.637
 3487TIP3    H160929   6.069   3.555  14.728
 3487TIP3    H260930   6.012   3.523  14.591
 3488TIP3   OH260931   6.677   1.978  15.376
 3488TIP3    H160932   6.699   1.924  15.451
 3488TIP3    H260933   6.583   1.994  15.385
 3489TIP3   OH260934   6.974   2.398  15.404
 3489TIP3    H160935   6.920   2.384  15.482
 3489TIP3    H260936   6.992   2.492  15.405
 3490TIP3   OH260937   6.840   2.557  14.529
 3490TIP3    H160938   6.781   2.625  14.497
 3490TIP3    H260939   6.907   2.549  14.462
 3491TIP3   OH260940   6.701   2.661  15.842
 3491TIP3    H160941   6.641   2.600  15.798
 3491TIP3    H260942   6.781   2.611  15.857
 3492TIP3   OH260943   6.863   2.586  14.802
 3492TIP3    H160944   6.844   2.676  14.829
 3492TIP3    H260945   6.851   2.586  14.707
 3493TIP3   OH260946   5.645   2.265  14.776
 3493TIP3    H160947   5.731   2.264  14.817
 3493TIP3    H260948   5.664   2.272  14.682
 3494TIP3   OH260949   6.789   2.671  15.231
 3494TIP3    H160950   6.830   2.606  15.173
 3494TIP3    H260951   6.710   2.628  15.263
 3495TIP3   OH260952   6.205   2.393  14.471
 3495TIP3    H160953   6.266   2.462  14.443
 3495TIP3    H260954   6.123   2.417  14.429
 3496TIP3   OH260955   6.912   2.214  15.009
 3496TIP3    H160956   6.902   2.193  15.102
 3496TIP3    H260957   6.831   2.182  14.968
 3497TIP3   OH260958   6.586   2.497  15.005
 3497TIP3    H160959   6.542   2.555  14.943
 3497TIP3    H260960   6.679   2.514  14.990
 3498TIP3   OH260961   6.192   2.134  14.601
 3498TIP3    H160962   6.107   2.091  14.610
 3498TIP3    H260963   6.176   2.206  14.541
 3499TIP3   OH260964   6.546   3.000  14.372
 3499TIP3    H160965   6.500   3.046  14.302
 3499TIP3    H260966   6.499   3.024  14.451
 3500TIP3   OH260967   6.837   2.356  14.187
 3500TIP3    H160968   6.763   2.378  14.130
 3500TIP3    H260969   6.901   2.426  14.171
 3501TIP3   OH260970   6.698   3.063  15.436
 3501TIP3    H160971   6.615   3.027  15.404
 3501TIP3    H260972   6.675   3.152  15.464
 3502TIP3   OH260973   7.052   2.544  14.353
 3502TIP3    H160974   7.146   2.557  14.366
 3502TIP3    H260975   7.021   2.626  14.313
 3503TIP3   OH260976   6.776   3.222  14.319
 3503TIP3    H160977   6.797   3.277  14.243
 3503TIP3    H260978   6.702   3.168  14.289
 3504TIP3   OH260979   7.214   3.477  14.345
 3504TIP3    H160980   7.186   3.389  14.371
 3504TIP3    H260981   7.189   3.484  14.253
 3505TIP3   OH260982   6.316   3.332  14.693
 3505TIP3    H160983   6.350   3.417  14.663
 3505TIP3    H260984   6.222   3.336  14.673
 3506TIP3   OH260985   6.378   3.079  14.577
 3506TIP3    H160986   6.363   3.167  14.612
 3506TIP3    H260987   6.290   3.044  14.562
 3507TIP3   OH260988   6.463   3.469  15.257
 3507TIP3    H160989   6.512   3.550  15.270
 3507TIP3    H260990   6.521   3.414  15.204
 3508TIP3   OH260991   6.355   3.596  14.608
 3508TIP3    H160992   6.261   3.612  14.605
 3508TIP3    H260993   6.390   3.645  14.534
 3509TIP3   OH260994   6.809   3.129  15.189
 3509TIP3    H160995   6.778   3.104  15.276
 3509TIP3    H260996   6.856   3.051  15.157
 3510TIP3   OH260997   7.458   3.782  14.171
 3510TIP3    H160998   7.509   3.847  14.123
 3510TIP3    H260999   7.372   3.783  14.128
 3511TIP3   OH261000   5.996   2.299  15.451
 3511TIP3    H161001   5.909   2.328  15.424
 3511TIP3    H261002   5.981   2.253  15.534
 3512TIP3   OH261003   7.094   2.966  14.437
 3512TIP3    H161004   7.092   2.940  14.529
 3512TIP3    H261005   7.109   3.060  14.438
 3513TIP3   OH261006   5.905   3.515  15.236
 3513TIP3    H161007   5.994   3.484  15.257
 3513TIP3    H261008   5.895   3.595  15.288
 3514TIP3   OH261009   6.875   2.173  15.273
 3514TIP3    H161010   6.903   2.249  15.324
 3514TIP3    H261011   6.806   2.133  15.325
 3515TIP3   OH261012   6.875   2.219  14.414
 3515TIP3    H161013   6.858   2.264  14.332
 3515TIP3    H261014   6.924   2.283  14.467
 3516TIP3   OH261015   6.710   2.135  14.647
 3516TIP3    H161016   6.697   2.120  14.741
 3516TIP3    H261017   6.654   2.209  14.627
 3517TIP3   OH261018   7.239   3.580  15.063
 3517TIP3    H161019   7.206   3.658  15.020
 3517TIP3    H261020   7.329   3.602  15.087
 3518TIP3   OH261021   5.923   2.007  14.935
 3518TIP3    H161022   5.943   2.002  14.842
 3518TIP3    H261023   5.919   1.916  14.964
 3519TIP3   OH261024   5.884   3.405  14.525
 3519TIP3    H161025   5.801   3.396  14.572
 3519TIP3    H261026   5.863   3.459  14.448
 3520TIP3   OH261027   5.779   3.733  15.741
 3520TIP3    H161028   5.839   3.705  15.811
 3520TIP3    H261029   5.751   3.652  15.699
 3521TIP3   OH261030   6.898   3.395  15.804
 3521TIP3    H161031   6.880   3.304  15.830
 3521TIP3    H261032   6.988   3.410  15.833
 3522TIP3   OH261033   5.703   3.058  15.749
 3522TIP3    H161034   5.749   2.985  15.708
 3522TIP3    H261035   5.663   3.106  15.677
 3523TIP3   OH261036   6.930   2.932  15.537
 3523TIP3    H161037   6.997   2.999  15.524
 3523TIP3    H261038   6.849   2.971  15.503
 3524TIP3   OH261039   6.866   2.880  15.808
 3524TIP3    H161040   6.891   2.885  15.715
 3524TIP3    H261041   6.799   2.812  15.811
 3525TIP3   OH261042   6.390   2.376  15.557
 3525TIP3    H161043   6.345   2.309  15.506
 3525TIP3    H261044   6.410   2.445  15.494
 3526TIP3   OH261045   6.934   2.511  15.845
 3526TIP3    H161046   6.935   2.417  15.861
 3526TIP3    H261047   6.962   2.520  15.754
 3527TIP3   OH261048   6.400   2.020  15.388
 3527TIP3    H161049   6.384   2.112  15.366
 3527TIP3    H261050   6.325   1.973  15.352
 3528TIP3   OH261051   6.586   2.425  15.747
 3528TIP3    H161052   6.580   2.365  15.821
 3528TIP3    H261053   6.512   2.402  15.692
 3529TIP3   OH261054   6.818   2.346  15.618
 3529TIP3    H161055   6.735   2.378  15.653
 3529TIP3    H261056   6.856   2.293  15.689
 3530TIP3   OH261057   6.934   2.223  15.835
 3530TIP3    H161058   6.948   2.129  15.819
 3530TIP3    H261059   6.919   2.230  15.929
 3531TIP3   OH261060   6.447   1.942  15.652
 3531TIP3    H161061   6.501   1.863  15.651
 3531TIP3    H261062   6.427   1.959  15.560
 3532TIP3   OH261063   6.426   2.092  15.876
 3532TIP3    H161064   6.438   2.042  15.795
 3532TIP3    H261065   6.353   2.150  15.857
 3533TIP3   OH261066   5.706   3.741  14.553
 3533TIP3    H161067   5.626   3.723  14.503
 3533TIP3    H261068   5.692   3.695  14.636
 3534TIP3   OH261069   5.684   3.591  14.787
 3534TIP3    H161070   5.642   3.514  14.824
 3534TIP3    H261071   5.746   3.619  14.855
 3535TIP3   OH261072   7.497   3.650  15.151
 3535TIP3    H161073   7.489   3.739  15.186
 3535TIP3    H261074   7.575   3.653  15.096
 3536TIP3   OH261075   7.416   3.593  15.427
 3536TIP3    H161076   7.341   3.539  15.403
 3536TIP3    H261077   7.474   3.588  15.351
 3537TIP3   OH261078   7.334   3.130  15.903
 3537TIP3    H161079   7.245   3.124  15.939
 3537TIP3    H261080   7.364   3.217  15.927
 3538TIP3   OH261081   7.460   3.103  15.103
 3538TIP3    H161082   7.548   3.068  15.099
 3538TIP3    H261083   7.471   3.198  15.092
 3539TIP3   OH261084   7.174   3.468  15.381
 3539TIP3    H161085   7.121   3.542  15.350
 3539TIP3    H261086   7.171   3.405  15.309
 3540TIP3   OH261087   7.250   2.426  15.065
 3540TIP3    H161088   7.331   2.385  15.096
 3540TIP3    H261089   7.230   2.493  15.130
 3541TIP3   OH261090   7.231   2.621  15.272
 3541TIP3    H161091   7.155   2.643  15.325
 3541TIP3    H261092   7.249   2.701  15.221
 3542TIP3   OH261093   5.746   2.393  15.585
 3542TIP3    H161094   5.807   2.448  15.635
 3542TIP3    H261095   5.746   2.309  15.631
 3543TIP3   OH261096   7.197   2.123  14.559
 3543TIP3    H161097   7.264   2.137  14.626
 3543TIP3    H261098   7.153   2.208  14.552
 3544TIP3   OH261099   5.845   2.259  14.999
 3544TIP3    H161100   5.867   2.168  14.980
 3544TIP3    H261101   5.928   2.300  15.022
 3545TIP3   OH261102   5.651   2.563  14.977
 3545TIP3    H161103   5.646   2.499  14.906
 3545TIP3    H261104   5.561   2.568  15.010
 3546TIP3   OH261105   5.661   2.246  14.494
 3546TIP3    H161106   5.570   2.215  14.495
 3546TIP3    H261107   5.674   2.281  14.406
 3547TIP3   OH261108   5.686   1.999  15.254
 3547TIP3    H161109   5.619   2.003  15.323
 3547TIP3    H261110   5.664   2.072  15.196
 3548TIP3   OH261111   5.855   3.443  15.810
 3548TIP3    H161112   5.788   3.429  15.742
 3548TIP3    H261113   5.856   3.362  15.861
 3549TIP3   OH261114   6.191   3.469  15.300
 3549TIP3    H161115   6.176   3.563  15.287
 3549TIP3    H261116   6.285   3.458  15.291
 3550TIP3   OH261117   7.330   1.924  15.425
 3550TIP3    H161118   7.259   1.917  15.362
 3550TIP3    H261119   7.376   1.841  15.420
 3551TIP3   OH261120   5.891   3.776  15.351
 3551TIP3    H161121   5.804   3.810  15.329
 3551TIP3    H261122   5.916   3.824  15.431
 3552TIP3   OH261123   6.152   3.739  15.251
 3552TIP3    H161124   6.062   3.764  15.272
 3552TIP3    H261125   6.174   3.792  15.174
 3553TIP3   OH261126   5.872   3.640  14.986
 3553TIP3    H161127   5.866   3.609  15.077
 3553TIP3    H261128   5.944   3.590  14.948
 3554TIP3   OH261129   6.081   3.491  14.898
 3554TIP3    H161130   6.076   3.404  14.939
 3554TIP3    H261131   6.164   3.527  14.929
 3555TIP3   OH261132   6.326   3.538  15.010
 3555TIP3    H161133   6.344   3.445  14.996
 3555TIP3    H261134   6.371   3.560  15.091
 3556TIP3   OH261135   6.673   2.106  14.917
 3556TIP3    H161136   6.597   2.156  14.948
 3556TIP3    H261137   6.674   2.028  14.972
 3557TIP3   OH261138   7.185   1.987  14.880
 3557TIP3    H161139   7.260   2.026  14.835
 3557TIP3    H261140   7.171   2.043  14.956
 3558TIP3   OH261141   7.402   2.066  14.731
 3558TIP3    H161142   7.451   1.992  14.696
 3558TIP3    H261143   7.469   2.131  14.752
 3559TIP3   OH261144   5.954   1.968  14.660
 3559TIP3    H161145   5.861   1.962  14.641
 3559TIP3    H261146   5.988   1.881  14.640
 3560TIP3   OH261147   6.432   1.999  14.595
 3560TIP3    H161148   6.356   2.058  14.596
 3560TIP3    H261149   6.397   1.915  14.624
 3561TIP3   OH261150   6.970   2.012  14.672
 3561TIP3    H161151   7.058   2.044  14.654
 3561TIP3    H261152   6.968   1.998  14.767
 3562TIP3   OH261153   6.989   1.957  14.352
 3562TIP3    H161154   7.065   2.002  14.315
 3562TIP3    H261155   6.986   1.874  14.304
 3563TIP3   OH261156   5.790   3.579  14.338
 3563TIP3    H161157   5.703   3.560  14.304
 3563TIP3    H261158   5.776   3.650  14.401
 3564TIP3   OH261159   7.360   3.708  14.427
 3564TIP3    H161160   7.312   3.627  14.408
 3564TIP3    H261161   7.396   3.735  14.343
 3565TIP3   OH261162   5.944   3.699  14.143
 3565TIP3    H161163   5.905   3.644  14.211
 3565TIP3    H261164   5.981   3.637  14.080
 3566TIP3   OH261165   6.979   1.951  15.799
 3566TIP3    H161166   6.987   1.900  15.880
 3566TIP3    H261167   7.067   1.948  15.761
 3567TIP3   OH261168   7.241   3.532  15.653
 3567TIP3    H161169   7.199   3.499  15.574
 3567TIP3    H261170   7.315   3.583  15.622
 3568TIP3   OH261171   7.959   3.293  15.033
 3568TIP3    H161172   7.947   3.215  14.980
 3568TIP3    H261173   8.053   3.296  15.051
 3569TIP3   OH261174   8.102   2.277  14.873
 3569TIP3    H161175   0.040   2.283  14.823
 3569TIP3    H261176   8.034   2.265  14.806
 3570TIP3   OH261177   8.056   3.171  15.369
 3570TIP3    H161178   8.070   3.262  15.345
 3570TIP3    H261179   7.970   3.171  15.413
 3571TIP3   OH261180   0.015   2.827  14.685
 3571TIP3    H161181   8.119   2.812  14.600
 3571TIP3    H261182   0.021   2.922  14.693
 3572TIP3   OH261183   8.060   2.821  14.421
 3572TIP3    H161184   8.057   2.908  14.381
 3572TIP3    H261185   8.079   2.762  14.348
 3573TIP3   OH261186   7.556   3.370  15.078
 3573TIP3    H161187   7.641   3.379  15.122
 3573TIP3    H261188   7.511   3.452  15.098
 3574TIP3   OH261189   7.863   3.633  14.671
 3574TIP3    H161190   7.885   3.594  14.756
 3574TIP3    H261191   7.812   3.566  14.627
 3575TIP3   OH261192   8.055   2.079  15.054
 3575TIP3    H161193   7.978   2.050  15.005
 3575TIP3    H261194   8.089   2.152  15.002
 3576TIP3   OH261195   7.621   2.215  14.776
 3576TIP3    H161196   7.641   2.247  14.864
 3576TIP3    H261197   7.703   2.227  14.728
 3577TIP3   OH261198   7.897   2.224  14.683
 3577TIP3    H161199   7.866   2.135  14.663
 3577TIP3    H261200   7.967   2.239  14.619
 3578TIP3   OH261201   7.803   3.432  15.209
 3578TIP3    H161202   7.857   3.379  15.151
 3578TIP3    H261203   7.860   3.450  15.284
 3579TIP3   OH261204   8.020   2.159  14.255
 3579TIP3    H161205   8.014   2.250  14.226
 3579TIP3    H261206   8.081   2.118  14.193
 3580TIP3   OH261207   7.930   3.299  13.985
 3580TIP3    H161208   7.988   3.352  14.039
 3580TIP3    H261209   7.957   3.208  14.003
 3581TIP3   OH261210   7.821   2.021  14.927
 3581TIP3    H161211   7.813   2.009  14.832
 3581TIP3    H261212   7.780   2.105  14.944
 3582TIP3   OH261213   7.706   3.441  14.557
 3582TIP3    H161214   7.627   3.458  14.609
 3582TIP3    H261215   7.686   3.479  14.471
 3583TIP3   OH261216   7.716   3.641  15.826
 3583TIP3    H161217   7.797   3.673  15.787
 3583TIP3    H261218   7.701   3.556  15.784
 3584TIP3   OH261219   7.973   2.558  15.824
 3584TIP3    H161220   7.923   2.480  15.802
 3584TIP3    H261221   8.063   2.537  15.798
 3585TIP3   OH261222   7.894   2.290  15.758
 3585TIP3    H161223   7.913   2.206  15.717
 3585TIP3    H261224   7.900   2.272  15.852
 3586TIP3   OH261225   7.513   3.760  14.656
 3586TIP3    H161226   7.458   3.743  14.579
 3586TIP3    H261227   7.524   3.675  14.697
 3587TIP3   OH261228   7.575   3.526  14.810
 3587TIP3    H161229   7.563   3.450  14.867
 3587TIP3    H261230   7.631   3.585  14.861
 3588TIP3   OH261231   7.553   2.038  15.305
 3588TIP3    H161232   7.474   2.014  15.354
 3588TIP3    H261233   7.525   2.111  15.250
 3589TIP3   OH261234   7.703   3.388  15.722
 3589TIP3    H161235   7.696   3.326  15.649
 3589TIP3    H261236   7.707   3.333  15.800
 3590TIP3   OH261237   8.082   3.445  15.328
 3590TIP3    H161238   8.066   3.527  15.281
 3590TIP3    H261239   0.033   3.443  15.340
 3591TIP3   OH261240   7.839   3.834  15.361
 3591TIP3    H161241   7.757   3.867  15.322
 3591TIP3    H261242   7.814   3.809  15.450
 3592TIP3   OH261243   8.023   3.685  15.204
 3592TIP3    H161244   7.949   3.736  15.237
 3592TIP3    H261245   8.023   3.701  15.109
 3593TIP3   OH261246   7.741   3.634  15.030
 3593TIP3    H161247   7.761   3.576  15.104
 3593TIP3    H261248   7.818   3.629  14.974
 3594TIP3   OH261249   7.971   3.546  14.915
 3594TIP3    H161250   7.966   3.458  14.950
 3594TIP3    H261251   8.052   3.548  14.864
 3595TIP3   OH261252   7.781   1.979  14.652
 3595TIP3    H161253   7.692   1.967  14.619
 3595TIP3    H261254   7.830   1.903  14.618
 3596TIP3   OH261255   7.765   2.069  14.215
 3596TIP3    H161256   7.851   2.097  14.246
 3596TIP3    H261257   7.740   2.133  14.149
 3597TIP3   OH261258   7.648   3.613  14.344
 3597TIP3    H161259   7.593   3.638  14.271
 3597TIP3    H261260   7.668   3.695  14.388
 3598TIP3   OH261261   7.995   2.017  15.757
 3598TIP3    H161262   8.090   2.004  15.750
 3598TIP3    H261263   7.962   1.932  15.786
 3599TIP3   OH261264   1.183   4.840  14.627
 3599TIP3    H161265   1.223   4.909  14.679
 3599TIP3    H261266   1.103   4.879  14.593
 3600TIP3   OH261267   1.103   4.710  15.047
 3600TIP3    H161268   1.111   4.667  15.132
 3600TIP3    H261269   1.040   4.657  14.998
 3601TIP3   OH261270   0.378   4.741  15.162
 3601TIP3    H161271   0.371   4.734  15.258
 3601TIP3    H261272   0.430   4.820  15.148
 3602TIP3   OH261273   0.079   4.524  14.541
 3602TIP3    H161274   0.020   4.591  14.507
 3602TIP3    H261275   0.045   4.503  14.628
 3603TIP3   OH261276   0.219   4.760  14.789
 3603TIP3    H161277   0.228   4.668  14.812
 3603TIP3    H261278   0.306   4.786  14.757
 3604TIP3   OH261279   1.895   4.171  15.197
 3604TIP3    H161280   1.856   4.249  15.157
 3604TIP3    H261281   1.954   4.137  15.130
 3605TIP3   OH261282   1.232   4.406  15.074
 3605TIP3    H161283   1.253   4.312  15.072
 3605TIP3    H261284   1.226   4.431  14.982
 3606TIP3   OH261285   0.579   4.223  14.788
 3606TIP3    H161286   0.582   4.307  14.743
 3606TIP3    H261287   0.558   4.160  14.719
 3607TIP3   OH261288   1.338   4.289  14.613
 3607TIP3    H161289   1.300   4.226  14.552
 3607TIP3    H261290   1.425   4.308  14.578
 3608TIP3   OH261291   0.209   4.500  14.874
 3608TIP3    H161292   0.263   4.427  14.905
 3608TIP3    H261293   0.132   4.458  14.835
 3609TIP3   OH261294   0.698   4.622  14.826
 3609TIP3    H161295   0.782   4.587  14.858
 3609TIP3    H261296   0.670   4.558  14.760
 3610TIP3   OH261297   1.820   4.309  15.460
 3610TIP3    H161298   1.795   4.379  15.400
 3610TIP3    H261299   1.755   4.240  15.445
 3611TIP3   OH261300   0.449   4.095  15.295
 3611TIP3    H161301   0.475   4.149  15.221
 3611TIP3    H261302   0.355   4.081  15.284
 3612TIP3   OH261303   0.559   4.235  15.085
 3612TIP3    H161304   0.576   4.325  15.114
 3612TIP3    H261305   0.595   4.231  14.997
 3613TIP3   OH261306   1.151   4.831  14.249
 3613TIP3    H161307   1.068   4.865  14.282
 3613TIP3    H261308   1.182   4.897  14.188
 3614TIP3   OH261309   1.155   4.574  14.060
 3614TIP3    H161310   1.222   4.577  13.991
 3614TIP3    H261311   1.073   4.562  14.013
 3615TIP3   OH261312   1.821   4.725  15.296
 3615TIP3    H161313   1.746   4.781  15.277
 3615TIP3    H261314   1.875   4.729  15.217
 3616TIP3   OH261315   1.315   4.663  14.465
 3616TIP3    H161316   1.269   4.723  14.524
 3616TIP3    H261317   1.399   4.647  14.507
 3617TIP3   OH261318   1.411   4.594  15.382
 3617TIP3    H161319   1.443   4.681  15.357
 3617TIP3    H261320   1.321   4.591  15.348
 3618TIP3   OH261321   0.495   4.792  14.710
 3618TIP3    H161322   0.509   4.784  14.616
 3618TIP3    H261323   0.568   4.744  14.749
 3619TIP3   OH261324   1.440   4.705  14.188
 3619TIP3    H161325   1.533   4.683  14.180
 3619TIP3    H261326   1.427   4.775  14.124
 3620TIP3   OH261327   0.503   4.726  14.424
 3620TIP3    H161328   0.449   4.779  14.365
 3620TIP3    H261329   0.449   4.650  14.443
 3621TIP3   OH261330   0.181   4.947  15.386
 3621TIP3    H161331   0.096   4.988  15.372
 3621TIP3    H261332   0.161   4.855  15.403
 3622TIP3   OH261333   0.035   5.250  15.031
 3622TIP3    H161334   0.096   5.182  15.004
 3622TIP3    H261335   0.063   5.274  15.119
 3623TIP3   OH261336   1.089   5.653  14.474
 3623TIP3    H161337   1.054   5.629  14.388
 3623TIP3    H261338   1.063   5.744  14.485
 3624TIP3   OH261339   1.320   5.580  14.603
 3624TIP3    H161340   1.238   5.601  14.558
 3624TIP3    H261341   1.387   5.583  14.535
 3625TIP3   OH261342   1.546   4.445  15.597
 3625TIP3    H161343   1.512   4.501  15.528
 3625TIP3    H261344   1.590   4.374  15.551
 3626TIP3   OH261345   0.505   3.874  15.107
 3626TIP3    H161346   0.506   3.863  15.012
 3626TIP3    H261347   0.554   3.955  15.122
 3627TIP3   OH261348   1.072   3.909  15.435
 3627TIP3    H161349   1.048   3.937  15.523
 3627TIP3    H261350   0.990   3.916  15.385
 3628TIP3   OH261351   1.337   4.301  15.446
 3628TIP3    H161352   1.354   4.320  15.538
 3628TIP3    H261353   1.349   4.385  15.402
 3629TIP3   OH261354   0.557   4.500  15.174
 3629TIP3    H161355   0.496   4.512  15.248
 3629TIP3    H261356   0.529   4.566  15.110
 3630TIP3   OH261357   0.594   4.446  14.631
 3630TIP3    H161358   0.510   4.472  14.594
 3630TIP3    H261359   0.649   4.427  14.555
 3631TIP3   OH261360   1.050   4.554  14.352
 3631TIP3    H161361   1.035   4.484  14.416
 3631TIP3    H261362   0.963   4.589  14.333
 3632TIP3   OH261363   1.002   4.426  15.667
 3632TIP3    H161364   0.959   4.349  15.705
 3632TIP3    H261365   1.084   4.434  15.715
 3633TIP3   OH261366   1.214   4.447  14.803
 3633TIP3    H161367   1.181   4.520  14.751
 3633TIP3    H261368   1.249   4.385  14.739
 3634TIP3   OH261369   0.381   4.544  15.392
 3634TIP3    H161370   0.297   4.591  15.397
 3634TIP3    H261371   0.359   4.455  15.421
 3635TIP3   OH261372   0.056   3.891  14.710
 3635TIP3    H161373   0.146   3.892  14.677
 3635TIP3    H261374   0.009   3.833  14.650
 3636TIP3   OH261375   8.136   4.285  14.429
 3636TIP3    H161376   0.038   4.368  14.444
 3636TIP3    H261377   8.059   4.289  14.485
 3637TIP3   OH261378   1.152   4.559  15.279
 3637TIP3    H161379   1.185   4.506  15.206
 3637TIP3    H261380   1.088   4.503  15.322
 3638TIP3   OH261381   0.856   4.186  14.771
 3638TIP3    H161382   0.762   4.197  14.783
 3638TIP3    H261383   0.887   4.152  14.855
 3639TIP3   OH261384   0.355   4.494  14.487
 3639TIP3    H161385   0.265   4.514  14.512
 3639TIP3    H261386   0.348   4.453  14.401
 3640TIP3   OH261387   0.733   4.368  14.403
 3640TIP3    H161388   0.686   4.295  14.363
 3640TIP3    H261389   0.728   4.439  14.339
 3641TIP3   OH261390   1.239   4.132  15.061
 3641TIP3    H161391   1.199   4.136  15.147
 3641TIP3    H261392   1.171   4.095  15.004
 3642TIP3   OH261393   0.523   4.398  14.146
 3642TIP3    H161394   0.430   4.394  14.124
 3642TIP3    H261395   0.566   4.420  14.063
 3643TIP3   OH261396   0.934   4.501  14.946
 3643TIP3    H161397   1.003   4.445  14.909
 3643TIP3    H261398   0.897   4.449  15.018
 3644TIP3   OH261399   0.525   4.059  14.572
 3644TIP3    H161400   0.451   4.000  14.565
 3644TIP3    H261401   0.535   4.096  14.484
 3645TIP3   OH261402   0.814   4.381  15.171
 3645TIP3    H161403   0.739   4.438  15.188
 3645TIP3    H261404   0.868   4.388  15.250
 3646TIP3   OH261405   0.903   4.896  14.340
 3646TIP3    H161406   0.846   4.820  14.332
 3646TIP3    H261407   0.859   4.964  14.289
 3647TIP3   OH261408   1.558   4.832  15.258
 3647TIP3    H161409   1.610   4.898  15.212
 3647TIP3    H261410   1.495   4.802  15.193
 3648TIP3   OH261411   0.942   4.909  15.538
 3648TIP3    H161412   1.007   4.896  15.607
 3648TIP3    H261413   0.966   4.993  15.499
 3649TIP3   OH261414   1.347   4.429  14.263
 3649TIP3    H161415   1.414   4.399  14.324
 3649TIP3    H261416   1.355   4.371  14.187
 3650TIP3   OH261417   0.121   4.657  15.406
 3650TIP3    H161418   0.069   4.610  15.472
 3650TIP3    H261419   0.066   4.659  15.328
 3651TIP3   OH261420   0.793   4.618  15.721
 3651TIP3    H161421   0.731   4.601  15.650
 3651TIP3    H261422   0.872   4.570  15.695
 3652TIP3   OH261423   1.762   4.448  14.264
 3652TIP3    H161424   1.758   4.410  14.176
 3652TIP3    H261425   1.772   4.542  14.249
 3653TIP3   OH261426   1.382   4.737  15.074
 3653TIP3    H161427   1.289   4.744  15.053
 3653TIP3    H261428   1.419   4.686  15.002
 3654TIP3   OH261429   0.283   4.301  15.464
 3654TIP3    H161430   0.209   4.293  15.404
 3654TIP3    H261431   0.305   4.210  15.486
 3655TIP3   OH261432   0.125   5.306  15.287
 3655TIP3    H161433   0.117   5.220  15.329
 3655TIP3    H261434   0.185   5.354  15.344
 3656TIP3   OH261435   1.146   4.150  15.322
 3656TIP3    H161436   1.218   4.194  15.367
 3656TIP3    H261437   1.137   4.066  15.367
 3657TIP3   OH261438   0.965   4.330  14.544
 3657TIP3    H161439   0.886   4.337  14.491
 3657TIP3    H261440   0.934   4.295  14.628
 3658TIP3   OH261441   0.983   4.376  15.390
 3658TIP3    H161442   0.982   4.388  15.484
 3658TIP3    H261443   1.024   4.291  15.377
 3659TIP3   OH261444   0.989   4.003  14.618
 3659TIP3    H161445   0.940   4.072  14.663
 3659TIP3    H261446   1.025   4.046  14.541
 3660TIP3   OH261447   0.560   4.170  14.301
 3660TIP3    H161448   0.536   4.250  14.255
 3660TIP3    H261449   0.559   4.102  14.234
 3661TIP3   OH261450   1.586   4.166  15.448
 3661TIP3    H161451   1.498   4.192  15.421
 3661TIP3    H261452   1.587   4.071  15.436
 3662TIP3   OH261453   1.471   4.549  14.879
 3662TIP3    H161454   1.390   4.500  14.863
 3662TIP3    H261455   1.522   4.494  14.938
 3663TIP3   OH261456   0.463   3.835  14.845
 3663TIP3    H161457   0.418   3.873  14.769
 3663TIP3    H261458   0.477   3.743  14.821
 3664TIP3   OH261459   0.746   4.895  15.743
 3664TIP3    H161460   0.791   4.921  15.662
 3664TIP3    H261461   0.760   4.801  15.749
 3665TIP3   OH261462   0.768   4.646  14.295
 3665TIP3    H161463   0.680   4.673  14.322
 3665TIP3    H261464   0.764   4.644  14.200
 3666TIP3   OH261465   0.640   4.557  15.501
 3666TIP3    H161466   0.553   4.566  15.461
 3666TIP3    H261467   0.698   4.607  15.444
 3667TIP3   OH261468   0.776   4.629  14.020
 3667TIP3    H161469   0.711   4.571  13.980
 3667TIP3    H261470   0.821   4.669  13.946
 3668TIP3   OH261471   1.106   4.833  15.773
 3668TIP3    H161472   1.197   4.811  15.754
 3668TIP3    H261473   1.076   4.763  15.832
 3669TIP3   OH261474   0.677   4.305  15.616
 3669TIP3    H161475   0.694   4.246  15.543
 3669TIP3    H261476   0.664   4.391  15.575
 3670TIP3   OH261477   0.709   4.165  15.374
 3670TIP3    H161478   0.742   4.206  15.295
 3670TIP3    H261479   0.622   4.133  15.351
 3671TIP3   OH261480   0.836   4.706  15.376
 3671TIP3    H161481   0.915   4.686  15.325
 3671TIP3    H261482   0.861   4.781  15.429
 3672TIP3   OH261483   1.235   4.440  15.827
 3672TIP3    H161484   1.234   4.371  15.894
 3672TIP3    H261485   1.327   4.443  15.799
 3673TIP3   OH261486   0.530   4.298  15.853
 3673TIP3    H161487   0.454   4.345  15.818
 3673TIP3    H261488   0.591   4.295  15.779
 3674TIP3   OH261489   0.258   4.166  15.778
 3674TIP3    H161490   0.293   4.138  15.694
 3674TIP3    H261491   0.322   4.135  15.843
 3675TIP3   OH261492   1.652   4.957  15.948
 3675TIP3    H161493   1.558   4.967  15.937
 3675TIP3    H261494   1.690   5.021  15.888
 3676TIP3   OH261495   1.840   4.687  14.598
 3676TIP3    H161496   1.744   4.688  14.600
 3676TIP3    H261497   1.863   4.760  14.541
 3677TIP3   OH261498   1.745   4.986  15.123
 3677TIP3    H161499   1.814   4.955  15.064
 3677TIP3    H261500   1.746   5.081  15.112
 3678TIP3   OH261501   1.775   4.709  14.160
 3678TIP3    H161502   1.785   4.690  14.067
 3678TIP3    H261503   1.836   4.780  14.177
 3679TIP3   OH261504   1.546   4.600  14.611
 3679TIP3    H161505   1.568   4.512  14.582
 3679TIP3    H261506   1.530   4.591  14.705
 3680TIP3   OH261507   0.122   4.748  15.056
 3680TIP3    H161508   0.135   4.766  14.963
 3680TIP3    H261509   0.211   4.746  15.092
 3681TIP3   OH261510   1.782   4.573  15.691
 3681TIP3    H161511   1.699   4.540  15.657
 3681TIP3    H261512   1.835   4.495  15.706
 3682TIP3   OH261513   1.578   4.350  14.470
 3682TIP3    H161514   1.632   4.300  14.531
 3682TIP3    H261515   1.639   4.377  14.401
 3683TIP3   OH261516   1.622   4.408  15.059
 3683TIP3    H161517   1.714   4.415  15.032
 3683TIP3    H261518   1.625   4.415  15.154
 3684TIP3   OH261519   1.667   4.496  15.322
 3684TIP3    H161520   1.579   4.534  15.324
 3684TIP3    H261521   1.725   4.572  15.310
 3685TIP3   OH261522   0.072   4.360  15.826
 3685TIP3    H161523   0.142   4.297  15.808
 3685TIP3    H261524   0.002   4.335  15.765
 3686TIP3   OH261525   1.867   3.840  15.808
 3686TIP3    H161526   1.859   3.767  15.747
 3686TIP3    H261527   1.877   3.917  15.751
 3687TIP3   OH261528   0.337   4.264  14.934
 3687TIP3    H161529   0.388   4.242  14.856
 3687TIP3    H261530   0.399   4.258  15.006
 3688TIP3   OH261531   8.109   4.538  15.117
 3688TIP3    H161532   8.088   4.496  15.033
 3688TIP3    H261533   0.023   4.610  15.093
 3689TIP3   OH261534   8.134   4.009  14.437
 3689TIP3    H161535   8.040   3.996  14.429
 3689TIP3    H261536   0.002   4.104  14.427
 3690TIP3   OH261537   8.137   3.852  15.394
 3690TIP3    H161538   8.050   3.856  15.433
 3690TIP3    H261539   8.127   3.795  15.318
 3691TIP3   OH261540   1.518   5.695  15.260
 3691TIP3    H161541   1.518   5.791  15.260
 3691TIP3    H261542   1.496   5.672  15.170
 3692TIP3   OH261543   1.045   3.998  14.912
 3692TIP3    H161544   1.036   3.916  14.960
 3692TIP3    H261545   1.037   3.973  14.820
 3693TIP3   OH261546   0.323   3.854  14.610
 3693TIP3    H161547   0.285   3.860  14.523
 3693TIP3    H261548   0.338   3.760  14.624
 3694TIP3   OH261549   0.203   3.855  14.374
 3694TIP3    H161550   0.226   3.889  14.287
 3694TIP3    H261551   0.121   3.899  14.396
 3695TIP3   OH261552   0.743   3.849  14.663
 3695TIP3    H161553   0.826   3.888  14.636
 3695TIP3    H261554   0.679   3.919  14.650
 3696TIP3   OH261555   0.484   4.101  14.030
 3696TIP3    H161556   0.490   4.068  13.940
 3696TIP3    H261557   0.444   4.187  14.021
 3697TIP3   OH261558   0.365   4.042  15.555
 3697TIP3    H161559   0.339   3.950  15.565
 3697TIP3    H261560   0.415   4.045  15.474
 3698TIP3   OH261561   0.530   3.844  15.807
 3698TIP3    H161562   0.570   3.761  15.782
 3698TIP3    H261563   0.457   3.855  15.746
 3699TIP3   OH261564   2.236   4.655  15.141
 3699TIP3    H161565   2.240   4.560  15.136
 3699TIP3    H261566   2.234   4.675  15.234
 3700TIP3   OH261567   3.322   5.016  14.934
 3700TIP3    H161568   3.313   5.031  14.840
 3700TIP3    H261569   3.352   5.101  14.969
 3701TIP3   OH261570   2.281   5.181  15.052
 3701TIP3    H161571   2.243   5.121  14.988
 3701TIP3    H261572   2.361   5.137  15.081
 3702TIP3   OH261573   1.878   4.415  14.522
 3702TIP3    H161574   1.880   4.505  14.556
 3702TIP3    H261575   1.854   4.425  14.430
 3703TIP3   OH261576   2.040   4.693  14.802
 3703TIP3    H161577   2.069   4.602  14.808
 3703TIP3    H261578   1.981   4.695  14.727
 3704TIP3   OH261579   3.056   5.468  14.951
 3704TIP3    H161580   3.105   5.431  14.877
 3704TIP3    H261581   3.072   5.408  15.023
 3705TIP3   OH261582   3.704   4.095  15.143
 3705TIP3    H161583   3.709   4.174  15.196
 3705TIP3    H261584   3.765   4.111  15.071
 3706TIP3   OH261585   2.455   4.228  14.759
 3706TIP3    H161586   2.458   4.313  14.716
 3706TIP3    H261587   2.409   4.171  14.699
 3707TIP3   OH261588   3.223   4.242  14.639
 3707TIP3    H161589   3.266   4.197  14.712
 3707TIP3    H261590   3.294   4.287  14.593
 3708TIP3   OH261591   2.106   4.424  14.859
 3708TIP3    H161592   2.176   4.379  14.905
 3708TIP3    H261593   2.114   4.394  14.768
 3709TIP3   OH261594   3.672   4.281  15.342
 3709TIP3    H161595   3.627   4.360  15.311
 3709TIP3    H261596   3.607   4.238  15.398
 3710TIP3   OH261597   2.313   4.109  15.218
 3710TIP3    H161598   2.297   4.161  15.139
 3710TIP3    H261599   2.246   4.138  15.280
 3711TIP3   OH261600   3.052   5.083  14.543
 3711TIP3    H161601   3.010   4.997  14.538
 3711TIP3    H261602   3.065   5.108  14.452
 3712TIP3   OH261603   3.407   4.084  14.945
 3712TIP3    H161604   3.455   4.046  14.872
 3712TIP3    H261605   3.440   4.173  14.952
 3713TIP3   OH261606   2.303   4.267  14.982
 3713TIP3    H161607   2.358   4.325  15.034
 3713TIP3    H261608   2.356   4.245  14.905
 3714TIP3   OH261609   2.064   5.009  14.396
 3714TIP3    H161610   2.008   5.010  14.319
 3714TIP3    H261611   2.114   5.091  14.391
 3715TIP3   OH261612   3.371   5.267  15.090
 3715TIP3    H161613   3.277   5.262  15.101
 3715TIP3    H261614   3.386   5.352  15.047
 3716TIP3   OH261615   3.440   4.075  15.221
 3716TIP3    H161616   3.389   4.088  15.141
 3716TIP3    H261617   3.531   4.079  15.193
 3717TIP3   OH261618   2.670   3.808  14.943
 3717TIP3    H161619   2.664   3.817  14.848
 3717TIP3    H261620   2.588   3.847  14.976
 3718TIP3   OH261621   3.226   5.380  14.762
 3718TIP3    H161622   3.250   5.293  14.732
 3718TIP3    H261623   3.287   5.439  14.718
 3719TIP3   OH261624   3.318   5.139  14.667
 3719TIP3    H161625   3.248   5.099  14.616
 3719TIP3    H261626   3.383   5.168  14.602
 3720TIP3   OH261627   3.478   5.022  15.446
 3720TIP3    H161628   3.487   4.960  15.373
 3720TIP3    H261629   3.489   5.108  15.405
 3721TIP3   OH261630   2.942   4.837  14.472
 3721TIP3    H161631   2.863   4.804  14.515
 3721TIP3    H261632   2.988   4.758  14.443
 3722TIP3   OH261633   3.700   4.691  15.276
 3722TIP3    H161634   3.633   4.751  15.246
 3722TIP3    H261635   3.755   4.675  15.199
 3723TIP3   OH261636   3.311   4.734  14.504
 3723TIP3    H161637   3.279   4.823  14.516
 3723TIP3    H261638   3.357   4.735  14.421
 3724TIP3   OH261639   3.246   4.536  15.434
 3724TIP3    H161640   3.217   4.625  15.452
 3724TIP3    H261641   3.185   4.504  15.368
 3725TIP3   OH261642   3.104   5.289  15.157
 3725TIP3    H161643   3.086   5.362  15.215
 3725TIP3    H261644   3.050   5.217  15.191
 3726TIP3   OH261645   2.212   4.684  15.415
 3726TIP3    H161646   2.281   4.731  15.462
 3726TIP3    H261647   2.132   4.703  15.463
 3727TIP3   OH261648   3.539   3.886  14.282
 3727TIP3    H161649   3.502   3.813  14.233
 3727TIP3    H261650   3.592   3.934  14.218
 3728TIP3   OH261651   3.837   5.322  14.308
 3728TIP3    H161652   3.759   5.366  14.274
 3728TIP3    H261653   3.862   5.260  14.240
 3729TIP3   OH261654   3.752   5.331  15.651
 3729TIP3    H161655   3.754   5.239  15.623
 3729TIP3    H261656   3.660   5.356  15.643
 3730TIP3   OH261657   3.191   5.607  14.177
 3730TIP3    H161658   3.195   5.533  14.117
 3730TIP3    H261659   3.159   5.569  14.260
 3731TIP3   OH261660   3.119   5.525  14.441
 3731TIP3    H161661   3.054   5.476  14.391
 3731TIP3    H261662   3.182   5.459  14.471
 3732TIP3   OH261663   3.431   4.434  15.618
 3732TIP3    H161664   3.368   4.471  15.556
 3732TIP3    H261665   3.457   4.351  15.579
 3733TIP3   OH261666   2.185   5.211  15.557
 3733TIP3    H161667   2.128   5.135  15.570
 3733TIP3    H261668   2.176   5.231  15.464
 3734TIP3   OH261669   2.422   3.890  15.066
 3734TIP3    H161670   2.351   3.885  15.001
 3734TIP3    H261671   2.400   3.967  15.119
 3735TIP3   OH261672   2.928   3.871  15.446
 3735TIP3    H161673   2.952   3.798  15.389
 3735TIP3    H261674   2.832   3.875  15.440
 3736TIP3   OH261675   3.186   4.262  15.536
 3736TIP3    H161676   3.123   4.214  15.482
 3736TIP3    H261677   3.182   4.352  15.504
 3737TIP3   OH261678   2.440   4.424  15.154
 3737TIP3    H161679   2.380   4.415  15.228
 3737TIP3    H261680   2.491   4.503  15.174
 3738TIP3   OH261681   2.425   4.450  14.607
 3738TIP3    H161682   2.336   4.449  14.573
 3738TIP3    H261683   2.476   4.492  14.538
 3739TIP3   OH261684   2.241   4.417  15.334
 3739TIP3    H161685   2.215   4.496  15.383
 3739TIP3    H261686   2.186   4.348  15.370
 3740TIP3   OH261687   1.977   4.196  14.260
 3740TIP3    H161688   2.011   4.196  14.171
 3740TIP3    H261689   1.939   4.283  14.272
 3741TIP3   OH261690   2.720   4.152  14.744
 3741TIP3    H161691   2.629   4.180  14.756
 3741TIP3    H261692   2.752   4.140  14.833
 3742TIP3   OH261693   2.147   4.326  14.609
 3742TIP3    H161694   2.070   4.331  14.553
 3742TIP3    H261695   2.193   4.247  14.580
 3743TIP3   OH261696   3.494   5.671  15.740
 3743TIP3    H161697   3.501   5.699  15.649
 3743TIP3    H261698   3.580   5.692  15.778
 3744TIP3   OH261699   2.311   4.094  14.569
 3744TIP3    H161700   2.265   4.013  14.588
 3744TIP3    H261701   2.351   4.079  14.483
 3745TIP3   OH261702   3.499   4.870  15.216
 3745TIP3    H161703   3.545   4.926  15.154
 3745TIP3    H261704   3.419   4.844  15.171
 3746TIP3   OH261705   1.965   4.720  15.535
 3746TIP3    H161706   1.907   4.668  15.591
 3746TIP3    H261707   1.919   4.727  15.452
 3747TIP3   OH261708   3.084   5.213  15.517
 3747TIP3    H161709   2.991   5.195  15.507
 3747TIP3    H261710   3.097   5.225  15.611
 3748TIP3   OH261711   3.714   5.063  15.586
 3748TIP3    H161712   3.625   5.045  15.557
 3748TIP3    H261713   3.769   5.030  15.515
 3749TIP3   OH261714   3.450   5.269  14.447
 3749TIP3    H161715   3.432   5.183  14.410
 3749TIP3    H261716   3.484   5.320  14.374
 3750TIP3   OH261717   3.268   4.789  15.088
 3750TIP3    H161718   3.266   4.861  15.026
 3750TIP3    H261719   3.286   4.712  15.034
 3751TIP3   OH261720   3.304   5.435  15.460
 3751TIP3    H161721   3.221   5.392  15.441
 3751TIP3    H261722   3.308   5.507  15.397
 3752TIP3   OH261723   2.102   4.180  15.395
 3752TIP3    H161724   2.017   4.196  15.355
 3752TIP3    H261725   2.090   4.100  15.447
 3753TIP3   OH261726   3.379   5.003  14.384
 3753TIP3    H161727   3.344   4.987  14.296
 3753TIP3    H261728   3.463   4.956  14.386
 3754TIP3   OH261729   2.176   5.290  15.291
 3754TIP3    H161730   2.207   5.253  15.208
 3754TIP3    H261731   2.171   5.384  15.275
 3755TIP3   OH261732   2.223   4.786  14.357
 3755TIP3    H161733   2.170   4.863  14.379
 3755TIP3    H261734   2.221   4.783  14.261
 3756TIP3   OH261735   3.016   4.127  15.372
 3756TIP3    H161736   3.005   4.133  15.278
 3756TIP3    H261737   2.989   4.037  15.394
 3757TIP3   OH261738   3.088   4.091  14.452
 3757TIP3    H161739   3.073   4.139  14.371
 3757TIP3    H261740   3.135   4.151  14.508
 3758TIP3   OH261741   2.965   5.390  14.260
 3758TIP3    H161742   2.985   5.300  14.233
 3758TIP3    H261743   2.954   5.437  14.178
 3759TIP3   OH261744   2.770   4.396  14.598
 3759TIP3    H161745   2.761   4.383  14.504
 3759TIP3    H261746   2.759   4.308  14.636
 3760TIP3   OH261747   2.943   4.004  14.672
 3760TIP3    H161748   2.875   4.070  14.663
 3760TIP3    H261749   3.000   4.017  14.596
 3761TIP3   OH261750   3.442   4.184  15.473
 3761TIP3    H161751   3.351   4.197  15.500
 3761TIP3    H261752   3.436   4.140  15.389
 3762TIP3   OH261753   3.342   4.561  14.942
 3762TIP3    H161754   3.368   4.573  14.850
 3762TIP3    H261755   3.387   4.481  14.970
 3763TIP3   OH261756   3.429   5.542  15.040
 3763TIP3    H161757   3.416   5.612  14.976
 3763TIP3    H261758   3.523   5.530  15.045
 3764TIP3   OH261759   2.193   3.874  14.907
 3764TIP3    H161760   2.187   3.880  14.811
 3764TIP3    H261761   2.156   3.788  14.928
 3765TIP3   OH261762   2.481   5.326  15.906
 3765TIP3    H161763   2.556   5.295  15.855
 3765TIP3    H261764   2.420   5.360  15.840
 3766TIP3   OH261765   3.125   5.229  15.791
 3766TIP3    H161766   3.088   5.172  15.859
 3766TIP3    H261767   3.204   5.265  15.830
 3767TIP3   OH261768   3.254   5.364  14.058
 3767TIP3    H161769   3.231   5.300  13.990
 3767TIP3    H261770   3.349   5.354  14.069
 3768TIP3   OH261771   1.934   4.920  15.731
 3768TIP3    H161772   1.978   4.853  15.677
 3768TIP3    H261773   1.849   4.932  15.689
 3769TIP3   OH261774   3.224   4.970  15.550
 3769TIP3    H161775   3.312   4.976  15.514
 3769TIP3    H261776   3.182   5.052  15.527
 3770TIP3   OH261777   2.577   4.101  15.305
 3770TIP3    H161778   2.621   4.169  15.254
 3770TIP3    H261779   2.484   4.110  15.282
 3771TIP3   OH261780   3.260   4.440  15.849
 3771TIP3    H161781   3.312   4.416  15.772
 3771TIP3    H261782   3.244   4.534  15.839
 3772TIP3   OH261783   3.275   4.754  15.725
 3772TIP3    H161784   3.250   4.824  15.664
 3772TIP3    H261785   3.365   4.734  15.704
 3773TIP3   OH261786   2.344   4.298  15.863
 3773TIP3    H161787   2.282   4.283  15.791
 3773TIP3    H261788   2.428   4.269  15.828
 3774TIP3   OH261789   2.651   3.858  15.407
 3774TIP3    H161790   2.632   3.946  15.375
 3774TIP3    H261791   2.590   3.802  15.359
 3775TIP3   OH261792   3.291   4.049  15.894
 3775TIP3    H161793   3.278   3.960  15.860
 3775TIP3    H261794   3.245   4.105  15.832
 3776TIP3   OH261795   2.130   4.167  15.731
 3776TIP3    H161796   2.148   4.107  15.659
 3776TIP3    H261797   2.149   4.117  15.810
 3777TIP3   OH261798   2.589   3.772  15.662
 3777TIP3    H161799   2.646   3.696  15.671
 3777TIP3    H261800   2.612   3.809  15.577
 3778TIP3   OH261801   1.877   5.600  14.593
 3778TIP3    H161802   1.904   5.586  14.502
 3778TIP3    H261803   1.929   5.537  14.644
 3779TIP3   OH261804   3.695   5.542  15.099
 3779TIP3    H161805   3.702   5.525  15.193
 3779TIP3    H261806   3.732   5.630  15.088
 3780TIP3   OH261807   3.699   5.469  15.367
 3780TIP3    H161808   3.638   5.395  15.355
 3780TIP3    H261809   3.780   5.428  15.398
 3781TIP3   OH261810   3.509   5.032  15.905
 3781TIP3    H161811   3.469   5.042  15.819
 3781TIP3    H261812   3.571   5.105  15.910
 3782TIP3   OH261813   3.623   4.858  14.410
 3782TIP3    H161814   3.699   4.916  14.415
 3782TIP3    H261815   3.634   4.811  14.328
 3783TIP3   OH261816   3.680   4.701  14.640
 3783TIP3    H161817   3.596   4.660  14.659
 3783TIP3    H261818   3.662   4.759  14.566
 3784TIP3   OH261819   3.722   5.007  15.101
 3784TIP3    H161820   3.733   4.966  15.015
 3784TIP3    H261821   3.736   5.101  15.085
 3785TIP3   OH261822   3.500   5.276  15.334
 3785TIP3    H161823   3.427   5.324  15.374
 3785TIP3    H261824   3.472   5.263  15.243
 3786TIP3   OH261825   3.651   4.724  14.172
 3786TIP3    H161826   3.630   4.633  14.151
 3786TIP3    H261827   3.666   4.766  14.088
 3787TIP3   OH261828   3.434   4.560  14.678
 3787TIP3    H161829   3.446   4.480  14.627
 3787TIP3    H261830   3.384   4.618  14.620
 3788TIP3   OH261831   1.977   4.723  15.067
 3788TIP3    H161832   1.982   4.729  14.971
 3788TIP3    H261833   2.068   4.712  15.095
 3789TIP3   OH261834   3.541   4.680  15.693
 3789TIP3    H161835   3.520   4.588  15.675
 3789TIP3    H261836   3.620   4.697  15.643
 3790TIP3   OH261837   3.452   4.332  14.509
 3790TIP3    H161838   3.486   4.243  14.506
 3790TIP3    H261839   3.467   4.367  14.422
 3791TIP3   OH261840   3.491   4.344  15.040
 3791TIP3    H161841   3.583   4.361  15.018
 3791TIP3    H261842   3.481   4.378  15.129
 3792TIP3   OH261843   3.496   4.485  15.286
 3792TIP3    H161844   3.414   4.516  15.325
 3792TIP3    H261845   3.552   4.563  15.283
 3793TIP3   OH261846   1.906   4.332  15.716
 3793TIP3    H161847   1.987   4.284  15.731
 3793TIP3    H261848   1.884   4.317  15.625
 3794TIP3   OH261849   3.790   3.830  15.932
 3794TIP3    H161850   3.844   3.786  15.867
 3794TIP3    H261851   3.747   3.901  15.884
 3795TIP3   OH261852   3.527   4.066  14.491
 3795TIP3    H161853   3.512   4.011  14.568
 3795TIP3    H261854   3.518   4.006  14.417
 3796TIP3   OH261855   2.077   4.103  15.007
 3796TIP3    H161856   2.110   4.022  14.968
 3796TIP3    H261857   2.143   4.169  14.986
 3797TIP3   OH261858   1.893   4.447  15.036
 3797TIP3    H161859   1.959   4.425  14.970
 3797TIP3    H261860   1.910   4.539  15.057
 3798TIP3   OH261861   3.700   4.019  14.098
 3798TIP3    H161862   3.686   3.970  14.016
 3798TIP3    H261863   3.690   4.111  14.073
 3799TIP3   OH261864   1.986   3.997  14.459
 3799TIP3    H161865   1.900   3.957  14.442
 3799TIP3    H261866   1.994   4.064  14.392
 3800TIP3   OH261867   3.375   5.585  14.649
 3800TIP3    H161868   3.418   5.536  14.578
 3800TIP3    H261869   3.436   5.657  14.668
 3801TIP3   OH261870   3.152   5.656  15.587
 3801TIP3    H161871   3.203   5.577  15.566
 3801TIP3    H261872   3.168   5.670  15.680
 3802TIP3   OH261873   2.159   5.798  15.238
 3802TIP3    H161874   2.072   5.816  15.272
 3802TIP3    H261875   2.154   5.707  15.207
 3803TIP3   OH261876   3.087   5.529  15.285
 3803TIP3    H161877   3.020   5.592  15.312
 3803TIP3    H261878   3.162   5.583  15.260
 3804TIP3   OH261879   3.349   5.648  15.279
 3804TIP3    H161880   3.353   5.741  15.261
 3804TIP3    H261881   3.375   5.606  15.197
 3805TIP3   OH261882   2.137   5.532  15.130
 3805TIP3    H161883   2.052   5.493  15.109
 3805TIP3    H261884   2.190   5.517  15.052
 3806TIP3   OH261885   2.267   5.419  14.905
 3806TIP3    H161886   2.286   5.338  14.951
 3806TIP3    H261887   2.335   5.426  14.839
 3807TIP3   OH261888   2.895   3.996  14.943
 3807TIP3    H161889   2.836   3.922  14.952
 3807TIP3    H261890   2.929   3.989  14.854
 3808TIP3   OH261891   3.564   3.955  14.757
 3808TIP3    H161892   3.604   3.878  14.717
 3808TIP3    H261893   3.635   4.018  14.764
 3809TIP3   OH261894   2.155   3.870  14.633
 3809TIP3    H161895   2.091   3.914  14.577
 3809TIP3    H261896   2.168   3.784  14.592
 3810TIP3   OH261897   2.662   3.850  14.666
 3810TIP3    H161898   2.710   3.818  14.589
 3810TIP3    H261899   2.682   3.943  14.669
 3811TIP3   OH261900   3.204   3.831  14.418
 3811TIP3    H161901   3.174   3.922  14.428
 3811TIP3    H261902   3.217   3.819  14.324
 3812TIP3   OH261903   1.991   5.518  14.345
 3812TIP3    H161904   1.982   5.532  14.251
 3812TIP3    H261905   2.075   5.473  14.355
 3813TIP3   OH261906   2.227   3.900  14.047
 3813TIP3    H161907   2.231   3.896  13.951
 3813TIP3    H261908   2.294   3.964  14.071
 3814TIP3   OH261909   3.613   5.528  14.519
 3814TIP3    H161910   3.619   5.434  14.535
 3814TIP3    H261911   3.608   5.536  14.424
 3815TIP3   OH261912   2.156   3.924  15.575
 3815TIP3    H161913   2.101   3.853  15.608
 3815TIP3    H261914   2.238   3.914  15.622
 3816TIP3   OH261915   2.349   3.861  15.760
 3816TIP3    H161916   2.437   3.839  15.730
 3816TIP3    H261917   2.325   3.790  15.819
 3817TIP3   OH261918   3.272   3.788  15.806
 3817TIP3    H161919   3.262   3.703  15.849
 3817TIP3    H261920   3.237   3.774  15.718
 3818TIP3   OH261921   3.482   5.407  15.670
 3818TIP3    H161922   3.423   5.402  15.594
 3818TIP3    H261923   3.485   5.500  15.691
 3819TIP3   OH261924   4.157   5.138  15.040
 3819TIP3    H161925   4.086   5.082  15.007
 3819TIP3    H261926   4.215   5.149  14.964
 3820TIP3   OH261927   3.883   4.475  14.589
 3820TIP3    H161928   3.809   4.534  14.576
 3820TIP3    H261929   3.897   4.435  14.503
 3821TIP3   OH261930   3.907   4.658  14.793
 3821TIP3    H161931   3.929   4.586  14.734
 3821TIP3    H261932   3.833   4.702  14.750
 3822TIP3   OH261933   4.767   4.902  15.127
 3822TIP3    H161934   4.741   4.970  15.064
 3822TIP3    H261935   4.862   4.913  15.135
 3823TIP3   OH261936   5.620   4.113  15.155
 3823TIP3    H161937   5.607   4.207  15.143
 3823TIP3    H261938   5.686   4.090  15.089
 3824TIP3   OH261939   4.934   4.404  15.093
 3824TIP3    H161940   4.989   4.337  15.052
 3824TIP3    H261941   4.857   4.411  15.037
 3825TIP3   OH261942   5.054   4.206  14.656
 3825TIP3    H161943   5.136   4.159  14.676
 3825TIP3    H261944   5.071   4.248  14.571
 3826TIP3   OH261945   5.619   4.275  15.448
 3826TIP3    H161946   5.551   4.299  15.384
 3826TIP3    H261947   5.629   4.353  15.502
 3827TIP3   OH261948   4.174   5.219  15.301
 3827TIP3    H161949   4.175   5.188  15.210
 3827TIP3    H261950   4.142   5.144  15.351
 3828TIP3   OH261951   3.848   5.017  14.411
 3828TIP3    H161952   3.873   5.039  14.321
 3828TIP3    H261953   3.871   5.095  14.462
 3829TIP3   OH261954   4.914   4.460  14.171
 3829TIP3    H161955   4.836   4.430  14.124
 3829TIP3    H261956   4.962   4.512  14.106
 3830TIP3   OH261957   5.594   4.623  15.237
 3830TIP3    H161958   5.513   4.675  15.242
 3830TIP3    H261959   5.654   4.677  15.186
 3831TIP3   OH261960   5.217   4.577  15.437
 3831TIP3    H161961   5.230   4.672  15.443
 3831TIP3    H261962   5.132   4.567  15.394
 3832TIP3   OH261963   4.856   5.367  14.525
 3832TIP3    H161964   4.850   5.391  14.617
 3832TIP3    H261965   4.769   5.383  14.489
 3833TIP3   OH261966   3.818   4.946  15.356
 3833TIP3    H161967   3.790   4.975  15.270
 3833TIP3    H261968   3.793   4.854  15.360
 3834TIP3   OH261969   3.783   5.269  15.035
 3834TIP3    H161970   3.838   5.276  14.957
 3834TIP3    H261971   3.745   5.357  15.045
 3835TIP3   OH261972   5.046   5.540  14.393
 3835TIP3    H161973   5.016   5.534  14.302
 3835TIP3    H261974   4.989   5.480  14.441
 3836TIP3   OH261975   5.332   4.414  15.630
 3836TIP3    H161976   5.287   4.476  15.572
 3836TIP3    H261977   5.288   4.330  15.614
 3837TIP3   OH261978   4.065   5.018  15.457
 3837TIP3    H161979   4.093   4.933  15.491
 3837TIP3    H261980   3.980   5.000  15.417
 3838TIP3   OH261981   4.239   3.841  14.967
 3838TIP3    H161982   4.167   3.844  14.904
 3838TIP3    H261983   4.318   3.839  14.913
 3839TIP3   OH261984   3.779   4.120  14.775
 3839TIP3    H161985   3.857   4.093  14.823
 3839TIP3    H261986   3.803   4.110  14.683
 3840TIP3   OH261987   4.978   4.576  15.303
 3840TIP3    H161988   4.966   4.512  15.232
 3840TIP3    H261989   4.891   4.612  15.318
 3841TIP3   OH261990   4.541   4.296  14.448
 3841TIP3    H161991   4.625   4.250  14.450
 3841TIP3    H261992   4.481   4.233  14.409
 3842TIP3   OH261993   5.397   5.690  15.690
 3842TIP3    H161994   5.408   5.711  15.597
 3842TIP3    H261995   5.475   5.727  15.732
 3843TIP3   OH261996   4.729   4.414  14.910
 3843TIP3    H161997   4.770   4.455  14.834
 3843TIP3    H261998   4.648   4.375  14.877
 3844TIP3   OH261999   5.370   4.776  15.225
 3844TIP3    H162000   5.403   4.841  15.164
 3844TIP3    H262001   5.280   4.760  15.198
 3845TIP3   OH262002   5.087   4.300  14.391
 3845TIP3    H162003   5.168   4.352  14.394
 3845TIP3    H262004   5.031   4.347  14.329
 3846TIP3   OH262005   3.778   4.686  15.549
 3846TIP3    H162006   3.798   4.601  15.588
 3846TIP3    H262007   3.759   4.666  15.457
 3847TIP3   OH262008   5.553   4.439  14.267
 3847TIP3    H162009   5.532   4.405  14.180
 3847TIP3    H262010   5.569   4.532  14.253
 3848TIP3   OH262011   5.589   5.310  14.319
 3848TIP3    H162012   5.615   5.218  14.323
 3848TIP3    H262013   5.554   5.321  14.231
 3849TIP3   OH262014   4.464   5.172  14.312
 3849TIP3    H162015   4.527   5.124  14.259
 3849TIP3    H262016   4.378   5.148  14.275
 3850TIP3   OH262017   5.220   4.524  14.881
 3850TIP3    H162018   5.133   4.493  14.855
 3850TIP3    H262019   5.253   4.456  14.940
 3851TIP3   OH262020   3.923   5.261  14.556
 3851TIP3    H162021   3.885   5.291  14.474
 3851TIP3    H262022   4.013   5.293  14.554
 3852TIP3   OH262023   3.953   5.516  15.704
 3852TIP3    H162024   4.034   5.469  15.684
 3852TIP3    H262025   3.884   5.453  15.683
 3853TIP3   OH262026   3.819   4.886  15.781
 3853TIP3    H162027   3.829   4.811  15.724
 3853TIP3    H262028   3.784   4.955  15.724
 3854TIP3   OH262029   4.520   5.022  15.739
 3854TIP3    H162030   4.497   5.090  15.676
 3854TIP3    H262031   4.572   4.959  15.689
 3855TIP3   OH262032   4.519   3.753  15.358
 3855TIP3    H162033   4.566   3.835  15.339
 3855TIP3    H262034   4.434   3.765  15.315
 3856TIP3   OH262035   4.105   4.196  15.685
 3856TIP3    H162036   4.074   4.108  15.663
 3856TIP3    H262037   4.057   4.219  15.765
 3857TIP3   OH262038   3.913   5.102  14.151
 3857TIP3    H162039   3.996   5.128  14.110
 3857TIP3    H262040   3.865   5.058  14.081
 3858TIP3   OH262041   5.644   4.673  14.635
 3858TIP3    H162042   5.558   4.636  14.656
 3858TIP3    H262043   5.625   4.742  14.571
 3859TIP3   OH262044   5.395   4.569  14.669
 3859TIP3    H162045   5.371   4.506  14.601
 3859TIP3    H262046   5.332   4.554  14.739
 3860TIP3   OH262047   3.887   4.673  15.063
 3860TIP3    H162048   3.884   4.670  14.967
 3860TIP3    H262049   3.970   4.715  15.083
 3861TIP3   OH262050   5.598   4.495  15.624
 3861TIP3    H162051   5.504   4.480  15.633
 3861TIP3    H262052   5.638   4.440  15.691
 3862TIP3   OH262053   5.359   4.377  14.463
 3862TIP3    H162054   5.379   4.287  14.489
 3862TIP3    H262055   5.418   4.396  14.391
 3863TIP3   OH262056   5.347   4.354  15.060
 3863TIP3    H162057   5.437   4.348  15.028
 3863TIP3    H262058   5.355   4.366  15.154
 3864TIP3   OH262059   5.417   4.421  15.321
 3864TIP3    H162060   5.345   4.470  15.361
 3864TIP3    H262061   5.480   4.488  15.294
 3865TIP3   OH262062   5.610   3.928  15.842
 3865TIP3    H162063   5.670   3.862  15.807
 3865TIP3    H262064   5.594   3.987  15.768
 3866TIP3   OH262065   5.403   4.112  14.536
 3866TIP3    H162066   5.408   4.089  14.629
 3866TIP3    H262067   5.339   4.052  14.499
 3867TIP3   OH262068   3.758   4.409  15.014
 3867TIP3    H162069   3.797   4.372  14.935
 3867TIP3    H262070   3.809   4.488  15.032
 3868TIP3   OH262071   5.523   4.089  15.632
 3868TIP3    H162072   5.430   4.107  15.627
 3868TIP3    H262073   5.560   4.128  15.553
 3869TIP3   OH262074   3.815   4.044  14.512
 3869TIP3    H162075   3.725   4.064  14.486
 3869TIP3    H262076   3.856   4.012  14.431
 3870TIP3   OH262077   3.779   3.877  15.290
 3870TIP3    H162078   3.691   3.861  15.326
 3870TIP3    H262079   3.767   3.950  15.229
 3871TIP3   OH262080   4.063   3.850  14.748
 3871TIP3    H162081   4.001   3.883  14.682
 3871TIP3    H262082   4.099   3.771  14.709
 3872TIP3   OH262083   3.911   3.941  14.267
 3872TIP3    H162084   3.992   3.972  14.226
 3872TIP3    H262085   3.842   3.963  14.204
 3873TIP3   OH262086   5.204   3.961  14.426
 3873TIP3    H162087   5.158   4.033  14.383
 3873TIP3    H262088   5.138   3.921  14.483
 3874TIP3   OH262089   5.547   5.577  14.373
 3874TIP3    H162090   5.561   5.482  14.366
 3874TIP3    H262091   5.456   5.586  14.399
 3875TIP3   OH262092   4.024   3.929  15.675
 3875TIP3    H162093   3.981   3.844  15.680
 3875TIP3    H262094   4.113   3.913  15.707
 3876TIP3   OH262095   4.257   3.826  15.778
 3876TIP3    H162096   4.315   3.780  15.718
 3876TIP3    H262097   4.229   3.759  15.840
 3877TIP3   OH262098   5.357   5.419  15.700
 3877TIP3    H162099   5.339   5.406  15.607
 3877TIP3    H262100   5.379   5.512  15.707
 3878TIP3   OH262101   5.988   4.674  15.197
 3878TIP3    H162102   5.990   4.586  15.235
 3878TIP3    H262103   6.065   4.678  15.141
 3879TIP3   OH262104   6.088   5.124  15.052
 3879TIP3    H162105   6.052   5.047  15.008
 3879TIP3    H262106   6.179   5.128  15.022
 3880TIP3   OH262107   5.728   4.426  14.516
 3880TIP3    H162108   5.705   4.510  14.555
 3880TIP3    H262109   5.672   4.418  14.440
 3881TIP3   OH262110   5.823   4.713  14.849
 3881TIP3    H162111   5.839   4.621  14.869
 3881TIP3    H262112   5.769   4.711  14.770
 3882TIP3   OH262113   6.823   5.551  14.891
 3882TIP3    H162114   6.847   5.499  14.815
 3882TIP3    H262115   6.849   5.498  14.966
 3883TIP3   OH262116   6.538   4.975  15.048
 3883TIP3    H162117   6.555   4.958  14.955
 3883TIP3    H262118   6.625   4.982  15.087
 3884TIP3   OH262119   7.399   4.113  15.209
 3884TIP3    H162120   7.353   4.160  15.278
 3884TIP3    H262121   7.418   4.180  15.144
 3885TIP3   OH262122   5.847   4.437  14.905
 3885TIP3    H162123   5.921   4.395  14.950
 3885TIP3    H262124   5.847   4.399  14.818
 3886TIP3   OH262125   6.348   4.557  14.822
 3886TIP3    H162126   6.428   4.573  14.771
 3886TIP3    H262127   6.333   4.463  14.814
 3887TIP3   OH262128   6.089   4.124  15.212
 3887TIP3    H162129   6.067   4.172  15.133
 3887TIP3    H262130   6.015   4.140  15.271
 3888TIP3   OH262131   6.866   5.124  14.577
 3888TIP3    H162132   6.922   5.081  14.512
 3888TIP3    H262133   6.780   5.083  14.565
 3889TIP3   OH262134   6.349   4.873  15.215
 3889TIP3    H162135   6.303   4.946  15.255
 3889TIP3    H262136   6.415   4.913  15.159
 3890TIP3   OH262137   7.190   4.102  14.945
 3890TIP3    H162138   7.106   4.092  14.990
 3890TIP3    H262139   7.219   4.190  14.968
 3891TIP3   OH262140   6.059   4.260  14.965
 3891TIP3    H162141   6.128   4.311  15.006
 3891TIP3    H262142   6.087   4.250  14.874
 3892TIP3   OH262143   6.211   5.105  15.304
 3892TIP3    H162144   6.220   5.200  15.312
 3892TIP3    H262145   6.152   5.094  15.229
 3893TIP3   OH262146   7.171   3.938  15.260
 3893TIP3    H162147   7.104   3.964  15.197
 3893TIP3    H262148   7.250   3.984  15.231
 3894TIP3   OH262149   6.913   5.370  14.691
 3894TIP3    H162150   6.903   5.280  14.661
 3894TIP3    H262151   7.007   5.385  14.690
 3895TIP3   OH262152   6.224   4.794  14.724
 3895TIP3    H162153   6.179   4.787  14.640
 3895TIP3    H262154   6.252   4.705  14.744
 3896TIP3   OH262155   6.347   5.150  14.969
 3896TIP3    H162156   6.353   5.117  14.879
 3896TIP3    H262157   6.413   5.101  15.017
 3897TIP3   OH262158   6.230   4.665  15.061
 3897TIP3    H162159   6.269   4.651  14.975
 3897TIP3    H262160   6.269   4.746  15.093
 3898TIP3   OH262161   6.951   5.176  15.091
 3898TIP3    H162162   6.932   5.258  15.136
 3898TIP3    H262163   6.878   5.118  15.114
 3899TIP3   OH262164   6.359   5.147  15.542
 3899TIP3    H162165   6.292   5.201  15.584
 3899TIP3    H262166   6.316   5.106  15.468
 3900TIP3   OH262167   6.014   4.675  15.506
 3900TIP3    H162168   6.038   4.751  15.454
 3900TIP3    H262169   5.918   4.672  15.500
 3901TIP3   OH262170   6.688   5.414  14.526
 3901TIP3    H162171   6.765   5.404  14.582
 3901TIP3    H262172   6.614   5.394  14.583
 3902TIP3   OH262173   6.150   5.328  15.598
 3902TIP3    H162174   6.188   5.361  15.516
 3902TIP3    H262175   6.057   5.320  15.579
 3903TIP3   OH262176   6.089   4.759  14.489
 3903TIP3    H162177   6.067   4.826  14.424
 3903TIP3    H262178   6.072   4.676  14.444
 3904TIP3   OH262179   5.750   4.940  15.352
 3904TIP3    H162180   5.753   4.911  15.261
 3904TIP3    H262181   5.749   4.859  15.403
 3905TIP3   OH262182   6.612   5.237  15.476
 3905TIP3    H162183   6.612   5.322  15.521
 3905TIP3    H262184   6.531   5.195  15.505
 3906TIP3   OH262185   6.674   5.688  14.357
 3906TIP3    H162186   6.623   5.732  14.289
 3906TIP3    H262187   6.674   5.748  14.431
 3907TIP3   OH262188   6.047   5.483  14.655
 3907TIP3    H162189   6.061   5.442  14.740
 3907TIP3    H262190   5.988   5.423  14.608
 3908TIP3   OH262191   6.917   5.463  14.347
 3908TIP3    H162192   6.963   5.531  14.395
 3908TIP3    H262193   6.985   5.402  14.320
 3909TIP3   OH262194   6.225   3.937  15.060
 3909TIP3    H162195   6.160   3.919  14.993
 3909TIP3    H262196   6.185   4.004  15.115
 3910TIP3   OH262197   6.207   4.407  15.142
 3910TIP3    H162198   6.143   4.411  15.212
 3910TIP3    H262199   6.218   4.498  15.114
 3911TIP3   OH262200   6.746   4.459  14.500
 3911TIP3    H162201   6.739   4.493  14.411
 3911TIP3    H262202   6.733   4.365  14.491
 3912TIP3   OH262203   6.009   4.430  15.335
 3912TIP3    H162204   6.011   4.480  15.417
 3912TIP3    H262205   5.964   4.349  15.357
 3913TIP3   OH262206   5.665   4.093  14.732
 3913TIP3    H162207   5.711   4.094  14.816
 3913TIP3    H262208   5.704   4.164  14.682
 3914TIP3   OH262209   5.695   4.176  14.160
 3914TIP3    H162210   5.724   4.265  14.181
 3914TIP3    H262211   5.666   4.140  14.243
 3915TIP3   OH262212   5.906   4.290  14.677
 3915TIP3    H162213   5.856   4.335  14.609
 3915TIP3    H262214   5.964   4.231  14.629
 3916TIP3   OH262215   6.340   4.329  14.288
 3916TIP3    H162216   6.432   4.355  14.288
 3916TIP3    H262217   6.300   4.380  14.218
 3917TIP3   OH262218   6.955   4.013  15.089
 3917TIP3    H162219   6.876   4.019  15.143
 3917TIP3    H262220   6.932   3.948  15.022
 3918TIP3   OH262221   6.259   4.466  14.061
 3918TIP3    H162222   6.177   4.492  14.018
 3918TIP3    H262223   6.313   4.431  13.989
 3919TIP3   OH262224   6.062   4.099  14.546
 3919TIP3    H162225   6.031   4.011  14.566
 3919TIP3    H262226   6.097   4.093  14.457
 3920TIP3   OH262227   6.447   4.352  15.261
 3920TIP3    H162228   6.368   4.358  15.206
 3920TIP3    H262229   6.461   4.442  15.291
 3921TIP3   OH262230   6.034   4.899  14.901
 3921TIP3    H162231   6.102   4.871  14.840
 3921TIP3    H262232   5.960   4.842  14.881
 3922TIP3   OH262233   5.742   4.675  15.468
 3922TIP3    H162234   5.695   4.630  15.539
 3922TIP3    H262235   5.696   4.648  15.388
 3923TIP3   OH262236   6.825   5.058  15.438
 3923TIP3    H162237   6.752   5.119  15.448
 3923TIP3    H262238   6.884   5.078  15.511
 3924TIP3   OH262239   7.233   5.339  14.368
 3924TIP3    H162240   7.279   5.413  14.407
 3924TIP3    H262241   7.271   5.330  14.280
 3925TIP3   OH262242   6.318   5.206  14.609
 3925TIP3    H162243   6.317   5.301  14.599
 3925TIP3    H262244   6.292   5.173  14.523
 3926TIP3   OH262245   5.873   4.737  14.106
 3926TIP3    H162246   5.868   4.683  14.027
 3926TIP3    H262247   5.839   4.822  14.079
 3927TIP3   OH262248   6.417   4.993  14.755
 3927TIP3    H162249   6.393   5.060  14.691
 3927TIP3    H262250   6.357   4.921  14.738
 3928TIP3   OH262251   6.500   5.389  15.259
 3928TIP3    H162252   6.567   5.449  15.228
 3928TIP3    H262253   6.547   5.326  15.313
 3929TIP3   OH262254   6.311   5.483  14.557
 3929TIP3    H162255   6.219   5.492  14.581
 3929TIP3    H262256   6.352   5.564  14.588
 3930TIP3   OH262257   6.777   4.978  15.179
 3930TIP3    H162258   6.791   4.999  15.272
 3930TIP3    H262259   6.816   4.892  15.168
 3931TIP3   OH262260   5.880   4.183  15.393
 3931TIP3    H162261   5.788   4.210  15.392
 3931TIP3    H262262   5.880   4.100  15.441
 3932TIP3   OH262263   5.902   5.356  15.229
 3932TIP3    H162264   5.843   5.292  15.190
 3932TIP3    H262265   5.988   5.313  15.228
 3933TIP3   OH262266   6.444   5.116  14.272
 3933TIP3    H162267   6.481   5.028  14.262
 3933TIP3    H262268   6.399   5.132  14.189
 3934TIP3   OH262269   6.008   4.919  14.276
 3934TIP3    H162270   5.972   4.850  14.221
 3934TIP3    H262271   6.032   4.989  14.216
 3935TIP3   OH262272   6.663   5.269  14.228
 3935TIP3    H162273   6.596   5.206  14.254
 3935TIP3    H262274   6.662   5.266  14.132
 3936TIP3   OH262275   6.473   5.484  14.325
 3936TIP3    H162276   6.432   5.545  14.264
 3936TIP3    H262277   6.406   5.467  14.391
 3937TIP3   OH262278   6.188   4.095  14.276
 3937TIP3    H162279   6.233   4.179  14.287
 3937TIP3    H262280   6.229   4.056  14.199
 3938TIP3   OH262281   7.232   4.231  15.391
 3938TIP3    H162282   7.189   4.313  15.414
 3938TIP3    H262283   7.172   4.163  15.421
 3939TIP3   OH262284   6.077   5.126  14.094
 3939TIP3    H162285   6.172   5.142  14.092
 3939TIP3    H262286   6.052   5.119  14.002
 3940TIP3   OH262287   7.135   5.533  15.156
 3940TIP3    H162288   7.194   5.564  15.087
 3940TIP3    H262289   7.178   5.455  15.191
 3941TIP3   OH262290   5.992   3.881  14.909
 3941TIP3    H162291   5.987   3.881  14.814
 3941TIP3    H262292   5.944   3.804  14.937
 3942TIP3   OH262293   5.874   5.297  14.535
 3942TIP3    H162294   5.792   5.297  14.485
 3942TIP3    H262295   5.924   5.224  14.499
 3943TIP3   OH262296   5.789   5.570  15.750
 3943TIP3    H162297   5.864   5.562  15.809
 3943TIP3    H262298   5.772   5.481  15.720
 3944TIP3   OH262299   6.203   5.349  15.872
 3944TIP3    H162300   6.293   5.317  15.880
 3944TIP3    H262301   6.185   5.347  15.778
 3945TIP3   OH262302   5.916   4.604  15.787
 3945TIP3    H162303   5.967   4.609  15.706
 3945TIP3    H262304   5.875   4.691  15.795
 3946TIP3   OH262305   6.406   4.698  14.199
 3946TIP3    H162306   6.345   4.629  14.173
 3946TIP3    H262307   6.428   4.742  14.117
 3947TIP3   OH262308   6.278   4.548  15.480
 3947TIP3    H162309   6.199   4.603  15.478
 3947TIP3    H262310   6.335   4.588  15.414
 3948TIP3   OH262311   6.309   4.299  15.583
 3948TIP3    H162312   6.314   4.234  15.513
 3948TIP3    H262313   6.298   4.382  15.537
 3949TIP3   OH262314   6.326   4.117  15.366
 3949TIP3    H162315   6.389   4.174  15.323
 3949TIP3    H262316   6.248   4.122  15.311
 3950TIP3   OH262317   6.465   4.634  15.286
 3950TIP3    H162318   6.537   4.628  15.223
 3950TIP3    H262319   6.423   4.718  15.266
 3951TIP3   OH262320   7.026   4.390  15.951
 3951TIP3    H162321   7.069   4.305  15.938
 3951TIP3    H262322   6.980   4.407  15.869
 3952TIP3   OH262323   6.152   4.320  15.811
 3952TIP3    H162324   6.068   4.283  15.785
 3952TIP3    H262325   6.206   4.313  15.733
 3953TIP3   OH262326   6.395   3.831  15.358
 3953TIP3    H162327   6.382   3.925  15.371
 3953TIP3    H262328   6.310   3.798  15.330
 3954TIP3   OH262329   6.519   4.346  15.752
 3954TIP3    H162330   6.587   4.285  15.723
 3954TIP3    H262331   6.445   4.330  15.694
 3955TIP3   OH262332   5.937   4.145  15.757
 3955TIP3    H162333   5.940   4.078  15.688
 3955TIP3    H262334   5.973   4.101  15.834
 3956TIP3   OH262335   6.468   5.711  14.156
 3956TIP3    H162336   6.483   5.686  14.065
 3956TIP3    H262337   6.423   5.795  14.151
 3957TIP3   OH262338   5.692   5.663  14.607
 3957TIP3    H162339   5.653   5.624  14.528
 3957TIP3    H262340   5.707   5.589  14.666
 3958TIP3   OH262341   5.746   5.461  14.780
 3958TIP3    H162342   5.790   5.380  14.756
 3958TIP3    H262343   5.782   5.484  14.866
 3959TIP3   OH262344   7.234   5.306  15.275
 3959TIP3    H162345   7.173   5.236  15.298
 3959TIP3    H262346   7.303   5.261  15.226
 3960TIP3   OH262347   5.762   4.793  15.108
 3960TIP3    H162348   5.768   4.788  15.013
 3960TIP3    H262349   5.847   4.761  15.139
 3961TIP3   OH262350   7.239   4.307  14.416
 3961TIP3    H162351   7.256   4.216  14.439
 3961TIP3    H262352   7.214   4.305  14.324
 3962TIP3   OH262353   7.276   4.355  15.014
 3962TIP3    H162354   7.362   4.379  15.047
 3962TIP3    H262355   7.255   4.423  14.949
 3963TIP3   OH262356   5.696   4.276  15.766
 3963TIP3    H162357   5.783   4.236  15.755
 3963TIP3    H262358   5.635   4.213  15.728
 3964TIP3   OH262359   7.306   4.040  14.493
 3964TIP3    H162360   7.355   4.062  14.573
 3964TIP3    H262361   7.321   3.946  14.481
 3965TIP3   OH262362   5.827   4.095  14.969
 3965TIP3    H162363   5.878   4.016  14.952
 3965TIP3    H262364   5.890   4.167  14.960
 3966TIP3   OH262365   5.632   4.385  15.081
 3966TIP3    H162366   5.697   4.400  15.013
 3966TIP3    H262367   5.629   4.467  15.130
 3967TIP3   OH262368   5.635   4.042  14.402
 3967TIP3    H162369   5.556   4.073  14.447
 3967TIP3    H262370   5.676   3.982  14.465
 3968TIP3   OH262371   5.641   3.893  15.325
 3968TIP3    H162372   5.555   3.850  15.320
 3968TIP3    H262373   5.631   3.971  15.271
 3969TIP3   OH262374   6.235   5.385  15.340
 3969TIP3    H162375   6.203   5.468  15.305
 3969TIP3    H262376   6.328   5.383  15.316
 3970TIP3   OH262377   6.648   5.484  15.608
 3970TIP3    H162378   6.659   5.442  15.693
 3970TIP3    H262379   6.737   5.510  15.582
 3971TIP3   OH262380   7.372   3.864  15.455
 3971TIP3    H162381   7.291   3.883  15.408
 3971TIP3    H262382   7.377   3.769  15.456
 3972TIP3   OH262383   5.911   5.684  15.343
 3972TIP3    H162384   5.835   5.741  15.350
 3972TIP3    H262385   5.876   5.595  15.352
 3973TIP3   OH262386   6.165   5.640  15.248
 3973TIP3    H162387   6.078   5.663  15.279
 3973TIP3    H262388   6.163   5.656  15.154
 3974TIP3   OH262389   6.684   5.577  15.165
 3974TIP3    H162390   6.685   5.611  15.076
 3974TIP3    H262391   6.667   5.653  15.220
 3975TIP3   OH262392   6.897   5.412  15.216
 3975TIP3    H162393   6.823   5.472  15.211
 3975TIP3    H262394   6.974   5.467  15.204
 3976TIP3   OH262395   5.892   5.535  15.014
 3976TIP3    H162396   5.882   5.494  15.100
 3976TIP3    H262397   5.963   5.486  14.972
 3977TIP3   OH262398   6.083   5.374  14.911
 3977TIP3    H162399   6.071   5.285  14.943
 3977TIP3    H262400   6.169   5.400  14.945
 3978TIP3   OH262401   6.327   5.412  15.035
 3978TIP3    H162402   6.342   5.323  15.003
 3978TIP3    H262403   6.388   5.422  15.108
 3979TIP3   OH262404   7.165   3.819  14.955
 3979TIP3    H162405   7.197   3.908  14.938
 3979TIP3    H262406   7.101   3.803  14.886
 3980TIP3   OH262407   5.959   3.844  14.635
 3980TIP3    H162408   5.870   3.828  14.603
 3980TIP3    H262409   6.004   3.760  14.622
 3981TIP3   OH262410   5.752   3.886  14.089
 3981TIP3    H162411   5.828   3.829  14.104
 3981TIP3    H262412   5.679   3.842  14.133
 3982TIP3   OH262413   5.751   5.523  14.177
 3982TIP3    H162414   5.729   5.433  14.198
 3982TIP3    H262415   5.834   5.517  14.130
 3983TIP3   OH262416   5.939   4.093  14.012
 3983TIP3    H162417   6.002   4.097  13.940
 3983TIP3    H262418   5.993   4.088  14.091
 3984TIP3   OH262419   6.734   5.534  14.102
 3984TIP3    H162420   6.790   5.606  14.074
 3984TIP3    H262421   6.707   5.491  14.021
 3985TIP3   OH262422   5.934   3.914  15.598
 3985TIP3    H162423   5.866   3.860  15.637
 3985TIP3    H262424   6.015   3.882  15.638
 3986TIP3   OH262425   6.124   3.796  15.769
 3986TIP3    H162426   6.191   3.740  15.730
 3986TIP3    H262427   6.075   3.737  15.826
 3987TIP3   OH262428   5.971   5.476  14.032
 3987TIP3    H162429   6.022   5.394  14.033
 3987TIP3    H262430   5.994   5.517  13.948
 3988TIP3   OH262431   7.896   4.710  15.172
 3988TIP3    H162432   7.965   4.646  15.159
 3988TIP3    H262433   7.917   4.781  15.111
 3989TIP3   OH262434   7.947   5.111  15.108
 3989TIP3    H162435   7.932   5.034  15.053
 3989TIP3    H262436   8.014   5.161  15.062
 3990TIP3   OH262437   7.722   4.756  14.806
 3990TIP3    H162438   7.751   4.674  14.766
 3990TIP3    H262439   7.701   4.812  14.732
 3991TIP3   OH262440   8.083   5.079  15.348
 3991TIP3    H162441   8.037   5.082  15.264
 3991TIP3    H262442   8.014   5.084  15.414
 3992TIP3   OH262443   8.083   4.777  14.750
 3992TIP3    H162444   8.055   4.753  14.662
 3992TIP3    H262445   0.034   4.780  14.745
 3993TIP3   OH262446   7.967   5.400  15.679
 3993TIP3    H162447   7.995   5.413  15.589
 3993TIP3    H262448   7.891   5.342  15.673
 3994TIP3   OH262449   7.987   4.676  14.500
 3994TIP3    H162450   7.971   4.750  14.441
 3994TIP3    H262451   7.916   4.614  14.480
 3995TIP3   OH262452   7.579   5.261  15.090
 3995TIP3    H162453   7.635   5.239  15.016
 3995TIP3    H262454   7.641   5.280  15.161
 3996TIP3   OH262455   7.855   5.055  15.513
 3996TIP3    H162456   7.869   4.988  15.580
 3996TIP3    H262457   7.794   5.015  15.451
 3997TIP3   OH262458   7.884   4.869  15.712
 3997TIP3    H162459   7.958   4.857  15.772
 3997TIP3    H262460   7.852   4.781  15.694
 3998TIP3   OH262461   7.925   4.881  14.951
 3998TIP3    H162462   7.995   4.856  14.891
 3998TIP3    H262463   7.845   4.851  14.909
 3999TIP3   OH262464   7.796   5.288  15.263
 3999TIP3    H162465   7.847   5.226  15.211
 3999TIP3    H262466   7.861   5.336  15.314
 4000TIP3   OH262467   7.908   4.879  14.329
 4000TIP3    H162468   7.842   4.866  14.261
 4000TIP3    H262469   7.961   4.952  14.297
 4001TIP3   OH262470   7.999   5.084  14.163
 4001TIP3    H162471   8.024   5.166  14.120
 4001TIP3    H262472   7.945   5.038  14.099
 4002TIP3   OH262473   7.749   5.360  14.559
 4002TIP3    H162474   7.721   5.406  14.480
 4002TIP3    H262475   7.789   5.279  14.526
 4003TIP3   OH262476   7.661   5.484  15.797
 4003TIP3    H162477   7.746   5.519  15.826
 4003TIP3    H262478   7.684   5.409  15.742
 4004TIP3   OH262479   7.646   4.650  15.063
 4004TIP3    H162480   7.652   4.698  14.980
 4004TIP3    H262481   7.723   4.677  15.113
 4005TIP3   OH262482   7.525   4.408  15.110
 4005TIP3    H162483   7.604   4.359  15.132
 4005TIP3    H262484   7.555   4.497  15.094
 4006TIP3   OH262485   7.579   3.911  15.282
 4006TIP3    H162486   7.522   3.897  15.357
 4006TIP3    H262487   7.547   3.991  15.241
 4007TIP3   OH262488   7.745   5.241  15.688
 4007TIP3    H162489   7.773   5.182  15.618
 4007TIP3    H262490   7.692   5.185  15.745
 4008TIP3   OH262491   8.023   5.419  15.389
 4008TIP3    H162492   8.021   5.505  15.348
 4008TIP3    H262493   8.098   5.375  15.349
 4009TIP3   OH262494   7.745   5.728  15.316
 4009TIP3    H162495   7.695   5.758  15.240
 4009TIP3    H262496   7.682   5.676  15.366
 4010TIP3   OH262497   8.015   5.671  15.265
 4010TIP3    H162498   7.925   5.694  15.288
 4010TIP3    H262499   8.028   5.710  15.179
 4011TIP3   OH262500   8.000   5.432  14.906
 4011TIP3    H162501   7.961   5.381  14.835
 4011TIP3    H262502   8.061   5.372  14.948
 4012TIP3   OH262503   7.678   5.452  14.305
 4012TIP3    H162504   7.597   5.431  14.260
 4012TIP3    H262505   7.736   5.486  14.237
 4013TIP3   OH262506   7.812   5.560  14.079
 4013TIP3    H162507   7.780   5.588  13.993
 4013TIP3    H262508   7.905   5.543  14.064
 4014TIP3   OH262509   1.451   6.927  14.839
 4014TIP3    H162510   1.418   6.837  14.829
 4014TIP3    H262511   1.450   6.942  14.933
 4015TIP3   OH262512   0.451   7.001  15.073
 4015TIP3    H162513   0.390   6.929  15.056
 4015TIP3    H262514   0.531   6.978  15.027
 4016TIP3   OH262515   0.043   6.334  14.441
 4016TIP3    H162516   8.139   6.356  14.361
 4016TIP3    H262517   0.109   6.271  14.414
 4017TIP3   OH262518   1.262   7.357  14.864
 4017TIP3    H162519   1.319   7.308  14.805
 4017TIP3    H262520   1.232   7.292  14.928
 4018TIP3   OH262521   1.800   6.014  15.120
 4018TIP3    H162522   1.818   6.107  15.110
 4018TIP3    H262523   1.848   5.972  15.049
 4019TIP3   OH262524   1.253   6.310  15.087
 4019TIP3    H162525   1.276   6.218  15.104
 4019TIP3    H262526   1.234   6.312  14.993
 4020TIP3   OH262527   0.584   6.032  14.763
 4020TIP3    H162528   0.536   6.074  14.692
 4020TIP3    H262529   0.600   5.943  14.733
 4021TIP3   OH262530   1.269   6.082  14.648
 4021TIP3    H162531   1.348   6.068  14.699
 4021TIP3    H262532   1.296   6.143  14.578
 4022TIP3   OH262533   1.900   6.203  15.362
 4022TIP3    H162534   1.809   6.231  15.349
 4022TIP3    H262535   1.895   6.107  15.365
 4023TIP3   OH262536   0.422   6.111  15.249
 4023TIP3    H162537   0.441   6.124  15.156
 4023TIP3    H262538   0.340   6.062  15.250
 4024TIP3   OH262539   1.046   6.917  14.638
 4024TIP3    H162540   1.042   6.897  14.545
 4024TIP3    H262541   1.050   7.012  14.642
 4025TIP3   OH262542   1.475   6.073  14.835
 4025TIP3    H162543   1.512   5.986  14.849
 4025TIP3    H262544   1.516   6.128  14.901
 4026TIP3   OH262545   0.457   6.147  14.980
 4026TIP3    H162546   0.454   6.232  14.936
 4026TIP3    H262547   0.507   6.091  14.921
 4027TIP3   OH262548   0.443   6.884  15.339
 4027TIP3    H162549   0.467   6.899  15.248
 4027TIP3    H262550   0.392   6.961  15.364
 4028TIP3   OH262551   0.106   6.880  14.347
 4028TIP3    H162552   0.109   6.823  14.270
 4028TIP3    H262553   0.020   6.864  14.385
 4029TIP3   OH262554   1.498   7.164  15.070
 4029TIP3    H162555   1.403   7.157  15.064
 4029TIP3    H262556   1.526   7.193  14.984
 4030TIP3   OH262557   1.541   5.970  15.236
 4030TIP3    H162558   1.465   5.998  15.185
 4030TIP3    H262559   1.617   5.989  15.180
 4031TIP3   OH262560   0.815   5.680  14.883
 4031TIP3    H162561   0.794   5.589  14.862
 4031TIP3    H262562   0.750   5.706  14.948
 4032TIP3   OH262563   1.449   7.100  14.616
 4032TIP3    H162564   1.462   7.039  14.543
 4032TIP3    H262565   1.445   7.045  14.693
 4033TIP3   OH262566   1.585   6.898  15.435
 4033TIP3    H162567   1.581   6.838  15.360
 4033TIP3    H262568   1.598   6.985  15.395
 4034TIP3   OH262569   1.764   6.549  15.276
 4034TIP3    H162570   1.694   6.614  15.267
 4034TIP3    H262571   1.829   6.574  15.211
 4035TIP3   OH262572   1.385   6.663  14.545
 4035TIP3    H162573   1.308   6.649  14.601
 4035TIP3    H262574   1.448   6.598  14.574
 4036TIP3   OH262575   1.396   6.412  15.441
 4036TIP3    H162576   1.384   6.483  15.504
 4036TIP3    H262577   1.346   6.439  15.364
 4037TIP3   OH262578   0.687   6.985  14.929
 4037TIP3    H162579   0.664   7.018  14.842
 4037TIP3    H262580   0.782   6.975  14.927
 4038TIP3   OH262581   1.223   7.152  15.068
 4038TIP3    H162582   1.215   7.210  15.143
 4038TIP3    H262583   1.203   7.065  15.102
 4039TIP3   OH262584   1.363   6.502  14.308
 4039TIP3    H162585   1.364   6.576  14.369
 4039TIP3    H262586   1.371   6.543  14.221
 4040TIP3   OH262587   1.029   7.194  14.567
 4040TIP3    H162588   1.023   7.289  14.561
 4040TIP3    H262589   1.024   7.164  14.476
 4041TIP3   OH262590   0.124   7.104  15.088
 4041TIP3    H162591   0.144   7.012  15.072
 4041TIP3    H262592   0.037   7.103  15.128
 4042TIP3   OH262593   0.899   7.120  15.479
 4042TIP3    H162594   0.927   7.205  15.513
 4042TIP3    H262595   0.818   7.102  15.525
 4043TIP3   OH262596   1.047   7.459  14.475
 4043TIP3    H162597   1.021   7.457  14.382
 4043TIP3    H262598   1.039   7.551  14.500
 4044TIP3   OH262599   0.411   7.295  14.665
 4044TIP3    H162600   0.423   7.266  14.756
 4044TIP3    H262601   0.363   7.224  14.624
 4045TIP3   OH262602   1.250   7.373  14.220
 4045TIP3    H162603   1.312   7.355  14.149
 4045TIP3    H262604   1.306   7.390  14.296
 4046TIP3   OH262605   1.320   7.385  14.501
 4046TIP3    H162606   1.224   7.385  14.499
 4046TIP3    H262607   1.343   7.294  14.519
 4047TIP3   OH262608   1.567   6.287  15.626
 4047TIP3    H162609   1.512   6.338  15.566
 4047TIP3    H262610   1.570   6.199  15.587
 4048TIP3   OH262611   0.635   5.743  15.083
 4048TIP3    H162612   0.568   5.690  15.126
 4048TIP3    H262613   0.648   5.817  15.142
 4049TIP3   OH262614   0.898   5.861  15.406
 4049TIP3    H162615   0.868   5.802  15.476
 4049TIP3    H262616   0.818   5.884  15.358
 4050TIP3   OH262617   1.279   6.158  15.512
 4050TIP3    H162618   1.268   6.182  15.604
 4050TIP3    H262619   1.308   6.239  15.469
 4051TIP3   OH262620   1.371   6.624  14.054
 4051TIP3    H162621   1.297   6.577  14.014
 4051TIP3    H262622   1.413   6.668  13.980
 4052TIP3   OH262623   1.230   6.309  14.804
 4052TIP3    H162624   1.189   6.359  14.733
 4052TIP3    H262625   1.237   6.220  14.770
 4053TIP3   OH262626   0.139   6.020  14.711
 4053TIP3    H162627   0.074   5.955  14.737
 4053TIP3    H262628   0.143   6.014  14.615
 4054TIP3   OH262629   0.195   6.147  14.307
 4054TIP3    H162630   0.253   6.073  14.286
 4054TIP3    H262631   0.171   6.183  14.222
 4055TIP3   OH262632   0.863   6.094  14.778
 4055TIP3    H162633   0.770   6.075  14.781
 4055TIP3    H262634   0.903   6.029  14.837
 4056TIP3   OH262635   1.294   6.030  15.116
 4056TIP3    H162636   1.222   6.020  15.178
 4056TIP3    H262637   1.265   5.983  15.038
 4057TIP3   OH262638   1.587   7.593  15.779
 4057TIP3    H162639   1.601   7.608  15.685
 4057TIP3    H262640   1.593   7.681  15.818
 4058TIP3   OH262641   0.860   6.138  15.189
 4058TIP3    H162642   0.870   6.181  15.104
 4058TIP3    H262643   0.948   6.109  15.212
 4059TIP3   OH262644   1.576   6.744  15.209
 4059TIP3    H162645   1.638   6.795  15.157
 4059TIP3    H262646   1.512   6.713  15.145
 4060TIP3   OH262647   1.031   6.878  15.417
 4060TIP3    H162648   0.979   6.799  15.437
 4060TIP3    H262649   0.973   6.951  15.440
 4061TIP3   OH262650   1.357   6.283  14.480
 4061TIP3    H162651   1.451   6.269  14.472
 4061TIP3    H262652   1.337   6.348  14.413
 4062TIP3   OH262653   1.036   6.919  14.359
 4062TIP3    H162654   1.041   7.009  14.326
 4062TIP3    H262655   1.050   6.864  14.281
 4063TIP3   OH262656   1.230   7.116  15.487
 4063TIP3    H162657   1.144   7.099  15.449
 4063TIP3    H262658   1.212   7.127  15.581
 4064TIP3   OH262659   1.824   6.312  14.277
 4064TIP3    H162660   1.760   6.275  14.218
 4064TIP3    H262661   1.839   6.401  14.245
 4065TIP3   OH262662   1.784   6.891  15.620
 4065TIP3    H162663   1.716   6.900  15.553
 4065TIP3    H262664   1.866   6.902  15.573
 4066TIP3   OH262665   1.680   7.088  14.332
 4066TIP3    H162666   1.607   7.039  14.369
 4066TIP3    H262667   1.653   7.108  14.242
 4067TIP3   OH262668   1.394   6.657  15.020
 4067TIP3    H162669   1.301   6.636  15.015
 4067TIP3    H262670   1.436   6.585  14.972
 4068TIP3   OH262671   0.656   7.090  14.681
 4068TIP3    H162672   0.686   7.169  14.637
 4068TIP3    H262673   0.617   7.037  14.612
 4069TIP3   OH262674   0.838   7.245  15.225
 4069TIP3    H162675   0.892   7.324  15.223
 4069TIP3    H262676   0.873   7.193  15.297
 4070TIP3   OH262677   0.684   7.332  14.543
 4070TIP3    H162678   0.591   7.341  14.566
 4070TIP3    H262679   0.724   7.412  14.576
 4071TIP3   OH262680   1.186   6.906  15.190
 4071TIP3    H162681   1.136   6.892  15.270
 4071TIP3    H262682   1.256   6.841  15.194
 4072TIP3   OH262683   1.460   7.032  14.130
 4072TIP3    H162684   1.430   6.956  14.180
 4072TIP3    H262685   1.429   7.016  14.041
 4073TIP3   OH262686   1.423   7.325  15.456
 4073TIP3    H162687   1.363   7.252  15.440
 4073TIP3    H262688   1.420   7.377  15.376
 4074TIP3   OH262689   1.507   6.885  14.431
 4074TIP3    H162690   1.449   6.819  14.469
 4074TIP3    H262691   1.578   6.834  14.391
 4075TIP3   OH262692   0.304   7.124  15.322
 4075TIP3    H162693   0.278   7.105  15.232
 4075TIP3    H262694   0.378   7.185  15.313
 4076TIP3   OH262695   1.098   6.031  15.313
 4076TIP3    H162696   1.147   6.062  15.389
 4076TIP3    H262697   1.038   5.965  15.349
 4077TIP3   OH262698   1.047   7.180  14.268
 4077TIP3    H162699   0.999   7.188  14.186
 4077TIP3    H262700   1.125   7.234  14.256
 4078TIP3   OH262701   1.030   5.954  14.593
 4078TIP3    H162702   0.978   6.012  14.649
 4078TIP3    H262703   1.119   5.988  14.599
 4079TIP3   OH262704   0.690   7.409  14.256
 4079TIP3    H162705   0.779   7.376  14.243
 4079TIP3    H262706   0.669   7.384  14.346
 4080TIP3   OH262707   1.534   6.044  15.503
 4080TIP3    H162708   1.440   6.056  15.510
 4080TIP3    H262709   1.548   6.017  15.412
 4081TIP3   OH262710   1.466   6.428  14.882
 4081TIP3    H162711   1.385   6.386  14.854
 4081TIP3    H262712   1.510   6.362  14.937
 4082TIP3   OH262713   0.254   7.081  14.570
 4082TIP3    H162714   0.183   7.145  14.567
 4082TIP3    H262715   0.228   7.012  14.509
 4083TIP3   OH262716   0.094   7.324  15.778
 4083TIP3    H162717   0.179   7.347  15.815
 4083TIP3    H262718   0.081   7.233  15.803
 4084TIP3   OH262719   0.653   7.313  15.792
 4084TIP3    H162720   0.709   7.241  15.820
 4084TIP3    H262721   0.566   7.275  15.783
 4085TIP3   OH262722   1.222   7.103  15.766
 4085TIP3    H162723   1.243   7.010  15.774
 4085TIP3    H262724   1.298   7.148  15.802
 4086TIP3   OH262725   1.467   7.307  14.067
 4086TIP3    H162726   1.478   7.213  14.080
 4086TIP3    H262727   1.523   7.327  13.991
 4087TIP3   OH262728   0.137   6.753  15.774
 4087TIP3    H162729   0.177   6.666  15.771
 4087TIP3    H262730   0.110   6.769  15.683
 4088TIP3   OH262731   1.365   6.886  15.592
 4088TIP3    H162732   1.446   6.890  15.540
 4088TIP3    H262733   1.305   6.944  15.546
 4089TIP3   OH262734   0.221   6.496  15.693
 4089TIP3    H162735   0.233   6.482  15.599
 4089TIP3    H262736   0.183   6.414  15.725
 4090TIP3   OH262737   0.668   5.958  15.262
 4090TIP3    H162738   0.730   6.023  15.229
 4090TIP3    H262739   0.587   6.008  15.274
 4091TIP3   OH262740   1.326   6.249  15.773
 4091TIP3    H162741   1.330   6.160  15.810
 4091TIP3    H262742   1.418   6.271  15.756
 4092TIP3   OH262743   1.411   6.616  15.644
 4092TIP3    H162744   1.385   6.706  15.623
 4092TIP3    H262745   1.506   6.620  15.650
 4093TIP3   OH262746   0.323   6.111  15.729
 4093TIP3    H162747   0.384   6.146  15.664
 4093TIP3    H262748   0.367   6.033  15.763
 4094TIP3   OH262749   0.829   5.852  15.841
 4094TIP3    H162750   0.832   5.797  15.763
 4094TIP3    H262751   0.757   5.913  15.824
 4095TIP3   OH262752   0.784   7.601  14.067
 4095TIP3    H162753   0.861   7.589  14.122
 4095TIP3    H262754   0.819   7.611  13.978
 4096TIP3   OH262755   0.106   7.309  14.569
 4096TIP3    H162756   0.020   7.348  14.552
 4096TIP3    H262757   0.124   7.332  14.660
 4097TIP3   OH262758   0.108   7.353  14.844
 4097TIP3    H162759   0.027   7.303  14.843
 4097TIP3    H262760   0.128   7.365  14.937
 4098TIP3   OH262761   1.617   6.931  15.834
 4098TIP3    H162762   1.537   6.901  15.790
 4098TIP3    H262763   1.685   6.925  15.767
 4099TIP3   OH262764   1.754   6.754  14.366
 4099TIP3    H162765   1.791   6.840  14.382
 4099TIP3    H262766   1.779   6.702  14.443
 4100TIP3   OH262767   1.824   6.608  14.593
 4100TIP3    H162768   1.739   6.568  14.614
 4100TIP3    H262769   1.868   6.616  14.677
 4101TIP3   OH262770   1.781   6.861  15.069
 4101TIP3    H162771   1.845   6.789  15.076
 4101TIP3    H262772   1.775   6.879  14.976
 4102TIP3   OH262773   1.606   7.141  15.322
 4102TIP3    H162774   1.574   7.219  15.367
 4102TIP3    H262775   1.575   7.151  15.232
 4103TIP3   OH262776   1.855   6.567  14.173
 4103TIP3    H162777   1.824   6.576  14.083
 4103TIP3    H262778   1.806   6.634  14.222
 4104TIP3   OH262779   1.583   6.479  14.638
 4104TIP3    H162780   1.591   6.396  14.591
 4104TIP3    H262781   1.546   6.456  14.723
 4105TIP3   OH262782   1.685   6.635  15.686
 4105TIP3    H162783   1.739   6.556  15.680
 4105TIP3    H262784   1.738   6.704  15.646
 4106TIP3   OH262785   1.801   6.385  15.720
 4106TIP3    H162786   1.722   6.348  15.680
 4106TIP3    H262787   1.866   6.315  15.713
 4107TIP3   OH262788   1.654   5.994  13.920
 4107TIP3    H162789   1.712   5.955  13.986
 4107TIP3    H262790   1.569   6.000  13.963
 4108TIP3   OH262791   1.632   6.241  14.492
 4108TIP3    H162792   1.636   6.147  14.508
 4108TIP3    H262793   1.703   6.258  14.430
 4109TIP3   OH262794   1.596   6.238  15.034
 4109TIP3    H162795   1.690   6.250  15.019
 4109TIP3    H262796   1.586   6.247  15.129
 4110TIP3   OH262797   1.637   6.309  15.308
 4110TIP3    H162798   1.554   6.334  15.350
 4110TIP3    H262799   1.683   6.392  15.295
 4111TIP3   OH262800   0.058   6.160  15.664
 4111TIP3    H162801   0.147   6.137  15.691
 4111TIP3    H262802   0.042   6.107  15.587
 4112TIP3   OH262803   1.646   5.958  14.498
 4112TIP3    H162804   1.644   5.896  14.571
 4112TIP3    H262805   1.578   5.927  14.439
 4113TIP3   OH262806   0.181   6.125  14.962
 4113TIP3    H162807   0.167   6.088  14.875
 4113TIP3    H262808   0.276   6.125  14.974
 4114TIP3   OH262809   0.038   6.360  14.965
 4114TIP3    H162810   0.008   6.356  14.874
 4114TIP3    H262811   0.093   6.283  14.975
 4115TIP3   OH262812   1.760   5.953  15.637
 4115TIP3    H162813   1.679   5.992  15.603
 4115TIP3    H262814   1.766   5.868  15.594
 4116TIP3   OH262815   1.842   5.905  14.095
 4116TIP3    H162816   1.892   5.827  14.070
 4116TIP3    H262817   1.899   5.951  14.156
 4117TIP3   OH262818   0.011   5.982  14.440
 4117TIP3    H162819   8.112   5.951  14.361
 4117TIP3    H262820   0.079   6.042  14.410
 4118TIP3   OH262821   0.001   5.858  15.443
 4118TIP3    H162822   8.127   5.778  15.393
 4118TIP3    H262823   8.097   5.927  15.399
 4119TIP3   OH262824   0.544   7.271  15.267
 4119TIP3    H162825   0.611   7.336  15.247
 4119TIP3    H262826   0.588   7.187  15.259
 4120TIP3   OH262827   0.964   7.357  15.598
 4120TIP3    H162828   0.976   7.332  15.690
 4120TIP3    H262829   1.044   7.405  15.576
 4121TIP3   OH262830   1.210   7.478  15.559
 4121TIP3    H162831   1.277   7.425  15.515
 4121TIP3    H262832   1.244   7.490  15.648
 4122TIP3   OH262833   1.701   5.717  15.475
 4122TIP3    H162834   1.635   5.706  15.407
 4122TIP3    H262835   1.690   5.640  15.532
 4123TIP3   OH262836   0.487   7.521  15.436
 4123TIP3    H162837   0.494   7.597  15.495
 4123TIP3    H262838   0.542   7.454  15.476
 4124TIP3   OH262839   0.659   7.514  15.202
 4124TIP3    H162840   0.711   7.540  15.278
 4124TIP3    H262841   0.675   7.584  15.138
 4125TIP3   OH262842   0.984   7.485  15.191
 4125TIP3    H162843   0.955   7.515  15.104
 4125TIP3    H262844   1.008   7.565  15.237
 4126TIP3   OH262845   1.215   7.353  15.252
 4126TIP3    H162846   1.133   7.398  15.229
 4126TIP3    H262847   1.283   7.418  15.235
 4127TIP3   OH262848   1.438   7.516  15.245
 4127TIP3    H162849   1.449   7.610  15.259
 4127TIP3    H262850   1.507   7.493  15.183
 4128TIP3   OH262851   0.262   7.338  15.103
 4128TIP3    H162852   0.199   7.266  15.113
 4128TIP3    H262853   0.322   7.309  15.034
 4129TIP3   OH262854   0.470   7.249  14.944
 4129TIP3    H162855   0.456   7.162  14.981
 4129TIP3    H262856   0.565   7.260  14.944
 4130TIP3   OH262857   0.744   7.298  14.968
 4130TIP3    H162858   0.784   7.236  14.907
 4130TIP3    H262859   0.774   7.270  15.054
 4131TIP3   OH262860   1.002   5.890  14.904
 4131TIP3    H162861   0.944   5.814  14.896
 4131TIP3    H262862   1.079   5.868  14.852
 4132TIP3   OH262863   1.543   5.729  14.947
 4132TIP3    H162864   1.598   5.742  14.869
 4132TIP3    H262865   1.453   5.740  14.915
 4133TIP3   OH262866   1.696   5.772  14.716
 4133TIP3    H162867   1.755   5.712  14.670
 4133TIP3    H262868   1.753   5.845  14.742
 4134TIP3   OH262869   0.665   5.795  14.650
 4134TIP3    H162870   0.712   5.829  14.575
 4134TIP3    H262871   0.733   5.755  14.705
 4135TIP3   OH262872   1.289   5.749  14.840
 4135TIP3    H162873   1.291   5.699  14.758
 4135TIP3    H262874   1.235   5.696  14.899
 4136TIP3   OH262875   0.267   7.308  14.330
 4136TIP3    H162876   0.293   7.216  14.322
 4136TIP3    H262877   0.212   7.311  14.408
 4137TIP3   OH262878   0.804   5.911  14.445
 4137TIP3    H162879   0.889   5.930  14.486
 4137TIP3    H262880   0.808   5.955  14.360
 4138TIP3   OH262881   0.995   7.472  14.193
 4138TIP3    H162882   1.091   7.464  14.194
 4138TIP3    H262883   0.966   7.407  14.129
 4139TIP3   OH262884   0.460   7.324  14.080
 4139TIP3    H162885   0.378   7.279  14.104
 4139TIP3    H262886   0.485   7.286  13.996
 4140TIP3   OH262887   3.045   6.732  14.665
 4140TIP3    H162888   3.028   6.825  14.650
 4140TIP3    H262889   2.961   6.689  14.648
 4141TIP3   OH262890   3.008   6.611  15.057
 4141TIP3    H162891   3.009   6.558  15.136
 4141TIP3    H262892   2.987   6.550  14.987
 4142TIP3   OH262893   2.181   6.557  15.194
 4142TIP3    H162894   2.181   6.468  15.229
 4142TIP3    H262895   2.266   6.566  15.151
 4143TIP3   OH262896   3.349   6.907  14.855
 4143TIP3    H162897   3.317   6.821  14.883
 4143TIP3    H262898   3.389   6.945  14.933
 4144TIP3   OH262899   1.973   6.384  14.511
 4144TIP3    H162900   1.927   6.465  14.531
 4144TIP3    H262901   1.924   6.347  14.436
 4145TIP3   OH262902   1.994   6.608  14.821
 4145TIP3    H162903   2.011   6.513  14.821
 4145TIP3    H262904   2.080   6.648  14.822
 4146TIP3   OH262905   2.971   7.367  14.751
 4146TIP3    H162906   3.062   7.339  14.742
 4146TIP3    H262907   2.962   7.391  14.843
 4147TIP3   OH262908   2.789   6.870  15.080
 4147TIP3    H162909   2.821   6.796  15.028
 4147TIP3    H262910   2.865   6.900  15.129
 4148TIP3   OH262911   3.104   6.279  15.059
 4148TIP3    H162912   3.136   6.191  15.078
 4148TIP3    H262913   3.100   6.283  14.963
 4149TIP3   OH262914   3.200   6.071  14.660
 4149TIP3    H162915   3.260   6.068  14.734
 4149TIP3    H262916   3.253   6.044  14.585
 4150TIP3   OH262917   2.039   6.336  14.836
 4150TIP3    H162918   2.111   6.284  14.872
 4150TIP3    H262919   2.035   6.311  14.744
 4151TIP3   OH262920   2.561   6.468  14.866
 4151TIP3    H162921   2.619   6.408  14.912
 4151TIP3    H262922   2.522   6.415  14.796
 4152TIP3   OH262923   3.697   6.219  15.426
 4152TIP3    H162924   3.638   6.273  15.373
 4152TIP3    H262925   3.655   6.133  15.429
 4153TIP3   OH262926   3.039   6.990  14.537
 4153TIP3    H162927   3.039   6.933  14.460
 4153TIP3    H262928   3.130   6.996  14.563
 4154TIP3   OH262929   2.586   6.754  15.230
 4154TIP3    H162930   2.527   6.818  15.270
 4154TIP3    H262931   2.649   6.807  15.181
 4155TIP3   OH262932   3.368   6.080  14.876
 4155TIP3    H162933   3.396   5.991  14.896
 4155TIP3    H262934   3.422   6.136  14.932
 4156TIP3   OH262935   2.237   6.180  14.953
 4156TIP3    H162936   2.283   6.227  15.023
 4156TIP3    H262937   2.305   6.133  14.906
 4157TIP3   OH262938   2.406   6.944  15.326
 4157TIP3    H162939   2.389   6.998  15.248
 4157TIP3    H262940   2.319   6.925  15.361
 4158TIP3   OH262941   3.451   7.021  15.094
 4158TIP3    H162942   3.369   7.068  15.109
 4158TIP3    H262943   3.518   7.089  15.089
 4159TIP3   OH262944   3.398   5.913  15.210
 4159TIP3    H162945   3.317   5.957  15.187
 4159TIP3    H262946   3.443   5.900  15.126
 4160TIP3   OH262947   3.225   7.267  14.665
 4160TIP3    H162948   3.246   7.176  14.642
 4160TIP3    H262949   3.289   7.289  14.734
 4161TIP3   OH262950   3.304   7.011  14.603
 4161TIP3    H162951   3.363   6.972  14.538
 4161TIP3    H262952   3.325   6.966  14.685
 4162TIP3   OH262953   2.842   6.584  14.280
 4162TIP3    H162954   2.812   6.670  14.307
 4162TIP3    H262955   2.937   6.591  14.277
 4163TIP3   OH262956   2.979   6.411  14.099
 4163TIP3    H162957   3.034   6.479  14.060
 4163TIP3    H262958   3.017   6.329  14.070
 4164TIP3   OH262959   3.644   6.581  15.279
 4164TIP3    H162960   3.587   6.652  15.252
 4164TIP3    H262961   3.687   6.552  15.199
 4165TIP3   OH262962   3.223   6.574  14.516
 4165TIP3    H162963   3.189   6.634  14.582
 4165TIP3    H262964   3.310   6.549  14.549
 4166TIP3   OH262965   3.235   6.399  15.442
 4166TIP3    H162966   3.223   6.473  15.502
 4166TIP3    H262967   3.166   6.410  15.377
 4167TIP3   OH262968   2.453   6.662  14.660
 4167TIP3    H162969   2.416   6.623  14.581
 4167TIP3    H262970   2.483   6.587  14.712
 4168TIP3   OH262971   2.420   6.604  15.061
 4168TIP3    H162972   2.477   6.559  14.999
 4168TIP3    H262973   2.480   6.649  15.120
 4169TIP3   OH262974   3.202   7.120  15.146
 4169TIP3    H162975   3.172   7.207  15.173
 4169TIP3    H262976   3.133   7.061  15.175
 4170TIP3   OH262977   3.108   6.631  14.269
 4170TIP3    H162978   3.168   6.611  14.341
 4170TIP3    H262979   3.166   6.651  14.195
 4171TIP3   OH262980   2.287   6.591  15.464
 4171TIP3    H162981   2.227   6.578  15.538
 4171TIP3    H262982   2.229   6.606  15.389
 4172TIP3   OH262983   2.926   7.241  14.512
 4172TIP3    H162984   2.920   7.288  14.595
 4172TIP3    H262985   2.947   7.151  14.537
 4173TIP3   OH262986   2.462   7.172  15.645
 4173TIP3    H162987   2.471   7.178  15.550
 4173TIP3    H262988   2.398   7.102  15.658
 4174TIP3   OH262989   3.425   5.667  14.058
 4174TIP3    H162990   3.333   5.659  14.084
 4174TIP3    H262991   3.471   5.604  14.114
 4175TIP3   OH262992   2.366   6.598  14.381
 4175TIP3    H162993   2.364   6.692  14.364
 4175TIP3    H262994   2.284   6.565  14.344
 4176TIP3   OH262995   1.950   6.867  15.395
 4176TIP3    H162996   1.913   6.860  15.307
 4176TIP3    H262997   1.965   6.776  15.422
 4177TIP3   OH262998   2.871   7.105  15.496
 4177TIP3    H162999   2.870   7.191  15.538
 4177TIP3    H263000   2.802   7.110  15.429
 4178TIP3   OH263001   2.914   7.509  14.377
 4178TIP3    H163002   2.844   7.558  14.332
 4178TIP3    H263003   2.937   7.564  14.452
 4179TIP3   OH263004   3.182   7.315  14.390
 4179TIP3    H163005   3.193   7.309  14.485
 4179TIP3    H263006   3.271   7.305  14.355
 4180TIP3   OH263007   3.459   6.322  15.612
 4180TIP3    H163008   3.388   6.349  15.554
 4180TIP3    H263009   3.502   6.250  15.565
 4181TIP3   OH263010   2.948   5.733  15.429
 4181TIP3    H163011   3.026   5.717  15.483
 4181TIP3    H263012   2.878   5.685  15.473
 4182TIP3   OH263013   3.209   6.121  15.502
 4182TIP3    H163014   3.188   6.125  15.595
 4182TIP3    H263015   3.212   6.213  15.474
 4183TIP3   OH263016   2.424   6.364  14.650
 4183TIP3    H163017   2.337   6.325  14.641
 4183TIP3    H263018   2.464   6.355  14.563
 4184TIP3   OH263019   3.037   6.365  14.518
 4184TIP3    H163020   3.087   6.447  14.512
 4184TIP3    H263021   3.082   6.305  14.458
 4185TIP3   OH263022   3.112   6.302  14.782
 4185TIP3    H163023   3.074   6.345  14.706
 4185TIP3    H263024   3.140   6.217  14.749
 4186TIP3   OH263025   2.154   6.310  15.313
 4186TIP3    H163026   2.206   6.288  15.390
 4186TIP3    H263027   2.068   6.271  15.330
 4187TIP3   OH263028   1.851   5.988  14.775
 4187TIP3    H163029   1.927   5.988  14.834
 4187TIP3    H263030   1.886   6.017  14.691
 4188TIP3   OH263031   2.007   6.082  14.249
 4188TIP3    H163032   2.086   6.085  14.195
 4188TIP3    H263033   1.970   6.170  14.242
 4189TIP3   OH263034   3.017   6.423  15.269
 4189TIP3    H163035   3.048   6.367  15.198
 4189TIP3    H263036   2.929   6.389  15.288
 4190TIP3   OH263037   2.181   6.232  14.594
 4190TIP3    H163038   2.118   6.292  14.555
 4190TIP3    H263039   2.147   6.145  14.577
 4191TIP3   OH263040   2.678   6.283  14.325
 4191TIP3    H163041   2.715   6.247  14.406
 4191TIP3    H263042   2.610   6.220  14.300
 4192TIP3   OH263043   3.152   6.014  15.134
 4192TIP3    H163044   3.083   6.011  15.200
 4192TIP3    H263045   3.112   5.972  15.057
 4193TIP3   OH263046   2.776   6.865  14.353
 4193TIP3    H163047   2.698   6.874  14.298
 4193TIP3    H263048   2.742   6.855  14.442
 4194TIP3   OH263049   3.441   6.768  15.204
 4194TIP3    H163050   3.463   6.853  15.167
 4194TIP3    H263051   3.387   6.726  15.137
 4195TIP3   OH263052   2.917   6.826  15.482
 4195TIP3    H163053   2.944   6.791  15.567
 4195TIP3    H263054   2.895   6.917  15.501
 4196TIP3   OH263055   3.215   6.249  14.338
 4196TIP3    H163056   3.294   6.239  14.392
 4196TIP3    H263057   3.248   6.284  14.256
 4197TIP3   OH263058   2.251   6.701  14.856
 4197TIP3    H163059   2.318   6.700  14.787
 4197TIP3    H263060   2.299   6.677  14.935
 4198TIP3   OH263061   2.953   7.086  14.258
 4198TIP3    H163062   2.965   7.056  14.168
 4198TIP3    H263063   2.905   7.015  14.301
 4199TIP3   OH263064   1.966   6.607  15.483
 4199TIP3    H163065   2.009   6.555  15.550
 4199TIP3    H263066   1.912   6.544  15.435
 4200TIP3   OH263067   2.678   6.517  15.721
 4200TIP3    H163068   2.610   6.480  15.665
 4200TIP3    H263069   2.736   6.563  15.661
 4201TIP3   OH263070   3.155   7.063  15.475
 4201TIP3    H163071   3.060   7.067  15.479
 4201TIP3    H263072   3.183   7.154  15.485
 4202TIP3   OH263073   3.656   6.323  14.270
 4202TIP3    H163074   3.664   6.279  14.185
 4202TIP3    H263075   3.664   6.416  14.251
 4203TIP3   OH263076   3.277   6.673  15.000
 4203TIP3    H163077   3.183   6.659  15.013
 4203TIP3    H263078   3.307   6.593  14.957
 4204TIP3   OH263079   2.470   7.056  14.647
 4204TIP3    H163080   2.491   7.076  14.555
 4204TIP3    H263081   2.403   6.988  14.643
 4205TIP3   OH263082   2.140   6.573  14.213
 4205TIP3    H163083   2.160   6.587  14.121
 4205TIP3    H263084   2.044   6.567  14.216
 4206TIP3   OH263085   2.657   6.840  14.600
 4206TIP3    H163086   2.629   6.915  14.652
 4206TIP3    H263087   2.594   6.771  14.621
 4207TIP3   OH263088   3.023   6.900  15.228
 4207TIP3    H163089   2.999   6.874  15.316
 4207TIP3    H263090   3.076   6.827  15.195
 4208TIP3   OH263091   3.247   7.328  15.465
 4208TIP3    H163092   3.220   7.344  15.375
 4208TIP3    H263093   3.338   7.298  15.458
 4209TIP3   OH263094   2.987   6.003  15.359
 4209TIP3    H163095   3.064   6.028  15.411
 4209TIP3    H263096   2.973   5.911  15.380
 4210TIP3   OH263097   2.781   7.316  14.196
 4210TIP3    H163098   2.686   7.317  14.208
 4210TIP3    H263099   2.792   7.303  14.102
 4211TIP3   OH263100   2.800   6.206  14.555
 4211TIP3    H163101   2.881   6.256  14.551
 4211TIP3    H263102   2.828   6.116  14.573
 4212TIP3   OH263103   2.864   5.932  14.598
 4212TIP3    H163104   2.960   5.935  14.592
 4212TIP3    H263105   2.838   5.873  14.527
 4213TIP3   OH263106   3.472   6.041  15.456
 4213TIP3    H163107   3.381   6.062  15.477
 4213TIP3    H263108   3.467   5.996  15.372
 4214TIP3   OH263109   3.341   6.428  14.886
 4214TIP3    H163110   3.265   6.378  14.857
 4214TIP3    H263111   3.392   6.366  14.938
 4215TIP3   OH263112   2.550   7.311  15.876
 4215TIP3    H163113   2.628   7.256  15.883
 4215TIP3    H263114   2.507   7.281  15.795
 4216TIP3   OH263115   3.163   7.128  15.854
 4216TIP3    H163116   3.099   7.058  15.862
 4216TIP3    H263117   3.233   7.091  15.799
 4217TIP3   OH263118   3.252   6.802  15.424
 4217TIP3    H163119   3.315   6.806  15.352
 4217TIP3    H263120   3.224   6.893  15.435
 4218TIP3   OH263121   2.133   6.499  15.683
 4218TIP3    H163122   2.190   6.422  15.689
 4218TIP3    H263123   2.110   6.519  15.773
 4219TIP3   OH263124   2.565   6.511  14.187
 4219TIP3    H163125   2.506   6.523  14.261
 4219TIP3    H263126   2.522   6.558  14.115
 4220TIP3   OH263127   2.520   6.452  15.502
 4220TIP3    H163128   2.441   6.503  15.484
 4220TIP3    H263129   2.587   6.492  15.448
 4221TIP3   OH263130   2.753   6.530  13.975
 4221TIP3    H163131   2.681   6.559  13.920
 4221TIP3    H263132   2.832   6.559  13.929
 4222TIP3   OH263133   2.990   6.701  15.751
 4222TIP3    H163134   3.067   6.671  15.703
 4222TIP3    H263135   2.979   6.636  15.821
 4223TIP3   OH263136   2.481   6.182  15.534
 4223TIP3    H163137   2.491   6.138  15.449
 4223TIP3    H263138   2.506   6.273  15.516
 4224TIP3   OH263139   2.735   6.580  15.381
 4224TIP3    H163140   2.818   6.627  15.388
 4224TIP3    H263141   2.680   6.635  15.326
 4225TIP3   OH263142   3.240   6.378  15.934
 4225TIP3    H163143   3.208   6.298  15.975
 4225TIP3    H263144   3.305   6.348  15.870
 4226TIP3   OH263145   3.215   6.615  15.616
 4226TIP3    H163146   3.224   6.682  15.549
 4226TIP3    H263147   3.292   6.626  15.672
 4227TIP3   OH263148   2.288   6.275  15.710
 4227TIP3    H163149   2.246   6.190  15.724
 4227TIP3    H263150   2.366   6.255  15.659
 4228TIP3   OH263151   2.187   6.018  15.689
 4228TIP3    H163152   2.214   6.005  15.598
 4228TIP3    H263153   2.216   5.939  15.734
 4229TIP3   OH263154   3.661   6.791  14.373
 4229TIP3    H163155   3.737   6.849  14.381
 4229TIP3    H263156   3.670   6.729  14.446
 4230TIP3   OH263157   3.690   6.611  14.583
 4230TIP3    H163158   3.609   6.566  14.604
 4230TIP3    H263159   3.744   6.602  14.661
 4231TIP3   OH263160   3.461   7.154  15.389
 4231TIP3    H163161   3.410   7.090  15.440
 4231TIP3    H263162   3.495   7.103  15.316
 4232TIP3   OH263163   3.695   6.585  14.183
 4232TIP3    H163164   3.659   6.605  14.097
 4232TIP3    H263165   3.677   6.663  14.236
 4233TIP3   OH263166   3.456   6.467  14.630
 4233TIP3    H163167   3.462   6.384  14.584
 4233TIP3    H263168   3.428   6.443  14.719
 4234TIP3   OH263169   1.945   6.644  15.090
 4234TIP3    H163170   1.957   6.628  14.997
 4234TIP3    H263171   2.030   6.622  15.129
 4235TIP3   OH263172   3.668   6.408  15.784
 4235TIP3    H163173   3.608   6.388  15.712
 4235TIP3    H263174   3.751   6.429  15.740
 4236TIP3   OH263175   3.479   5.952  13.863
 4236TIP3    H163176   3.493   5.982  13.773
 4236TIP3    H263177   3.428   6.021  13.904
 4237TIP3   OH263178   3.466   6.236  14.467
 4237TIP3    H163179   3.474   6.142  14.482
 4237TIP3    H263180   3.536   6.256  14.404
 4238TIP3   OH263181   3.504   6.260  15.041
 4238TIP3    H163182   3.595   6.284  15.028
 4238TIP3    H263183   3.487   6.276  15.133
 4239TIP3   OH263184   3.485   6.356  15.303
 4239TIP3    H163185   3.397   6.378  15.335
 4239TIP3    H263186   3.532   6.439  15.304
 4240TIP3   OH263187   1.942   6.139  15.734
 4240TIP3    H163188   2.026   6.101  15.709
 4240TIP3    H263189   1.877   6.082  15.695
 4241TIP3   OH263190   3.763   5.719  15.803
 4241TIP3    H163191   3.826   5.651  15.782
 4241TIP3    H263192   3.768   5.781  15.730
 4242TIP3   OH263193   3.434   5.959  14.514
 4242TIP3    H163194   3.493   5.903  14.565
 4242TIP3    H263195   3.381   5.897  14.464
 4243TIP3   OH263196   2.047   5.976  14.967
 4243TIP3    H163197   2.102   5.902  14.994
 4243TIP3    H263198   2.106   6.051  14.969
 4244TIP3   OH263199   1.869   6.278  15.050
 4244TIP3    H163200   1.919   6.298  14.971
 4244TIP3    H263201   1.918   6.321  15.120
 4245TIP3   OH263202   3.656   5.907  15.622
 4245TIP3    H163203   3.600   5.977  15.588
 4245TIP3    H263204   3.646   5.836  15.558
 4246TIP3   OH263205   3.664   5.831  14.046
 4246TIP3    H163206   3.739   5.782  14.080
 4246TIP3    H263207   3.683   5.922  14.069
 4247TIP3   OH263208   1.919   6.038  14.510
 4247TIP3    H163209   1.830   6.005  14.498
 4247TIP3    H263210   1.956   6.042  14.421
 4248TIP3   OH263211   1.901   5.859  15.328
 4248TIP3    H163212   1.833   5.809  15.374
 4248TIP3    H263213   1.854   5.903  15.257
 4249TIP3   OH263214   2.879   7.358  15.614
 4249TIP3    H163215   2.904   7.346  15.705
 4249TIP3    H263216   2.943   7.420  15.579
 4250TIP3   OH263217   3.080   7.533  15.545
 4250TIP3    H163218   3.142   7.464  15.523
 4250TIP3    H263219   3.135   7.609  15.566
 4251TIP3   OH263220   3.563   5.689  15.471
 4251TIP3    H163221   3.490   5.692  15.409
 4251TIP3    H263222   3.620   5.621  15.437
 4252TIP3   OH263223   2.930   7.513  15.129
 4252TIP3    H163224   2.856   7.533  15.071
 4252TIP3    H263225   2.921   7.575  15.201
 4253TIP3   OH263226   3.159   7.391  15.212
 4253TIP3    H163227   3.074   7.424  15.185
 4253TIP3    H263228   3.221   7.457  15.182
 4254TIP3   OH263229   3.030   5.898  14.917
 4254TIP3    H163230   2.977   5.930  14.844
 4254TIP3    H263231   3.085   5.829  14.879
 4255TIP3   OH263232   3.420   5.804  14.910
 4255TIP3    H163233   3.481   5.795  14.836
 4255TIP3    H263234   3.335   5.778  14.874
 4256TIP3   OH263235   3.586   5.767  14.682
 4256TIP3    H163236   3.620   5.696  14.628
 4256TIP3    H263237   3.660   5.826  14.694
 4257TIP3   OH263238   3.180   5.690  14.819
 4257TIP3    H163239   3.223   5.650  14.743
 4257TIP3    H263240   3.137   5.617  14.863
 4258TIP3   OH263241   3.266   5.771  14.401
 4258TIP3    H163242   3.269   5.747  14.309
 4258TIP3    H263243   3.223   5.697  14.444
 4259TIP3   OH263244   3.057   7.384  14.113
 4259TIP3    H163245   3.147   7.407  14.091
 4259TIP3    H263246   3.007   7.403  14.034
 4260TIP3   OH263247   3.240   5.673  15.849
 4260TIP3    H163248   3.246   5.629  15.934
 4260TIP3    H263249   3.330   5.678  15.818
 4261TIP3   OH263250   4.932   6.724  14.620
 4261TIP3    H163251   4.914   6.816  14.605
 4261TIP3    H263252   4.867   6.678  14.566
 4262TIP3   OH263253   4.123   6.588  15.257
 4262TIP3    H163254   4.108   6.494  15.270
 4262TIP3    H263255   4.190   6.592  15.188
 4263TIP3   OH263256   4.193   7.059  14.969
 4263TIP3    H163257   4.170   6.969  14.945
 4263TIP3    H263258   4.289   7.060  14.965
 4264TIP3   OH263259   3.820   6.375  14.493
 4264TIP3    H163260   3.783   6.462  14.507
 4264TIP3    H263261   3.775   6.342  14.415
 4265TIP3   OH263262   3.885   6.575  14.780
 4265TIP3    H163263   3.909   6.487  14.809
 4265TIP3    H263264   3.962   6.607  14.733
 4266TIP3   OH263265   5.593   5.996  15.149
 4266TIP3    H163266   5.592   6.087  15.178
 4266TIP3    H263267   5.644   5.996  15.068
 4267TIP3   OH263268   5.023   6.273  15.070
 4267TIP3    H163269   5.063   6.187  15.084
 4267TIP3    H263270   4.996   6.272  14.978
 4268TIP3   OH263271   4.332   6.060  14.781
 4268TIP3    H163272   4.324   6.147  14.740
 4268TIP3    H263273   4.287   6.001  14.721
 4269TIP3   OH263274   5.139   6.146  14.643
 4269TIP3    H163275   5.185   6.115  14.720
 4269TIP3    H263276   5.208   6.182  14.586
 4270TIP3   OH263277   3.972   6.319  14.852
 4270TIP3    H163278   4.043   6.281  14.904
 4270TIP3    H263279   3.990   6.290  14.762
 4271TIP3   OH263280   4.445   6.449  14.847
 4271TIP3    H163281   4.530   6.406  14.861
 4271TIP3    H263282   4.399   6.392  14.786
 4272TIP3   OH263283   5.598   6.186  15.375
 4272TIP3    H163284   5.549   6.259  15.339
 4272TIP3    H263285   5.534   6.136  15.425
 4273TIP3   OH263286   4.867   6.988  14.543
 4273TIP3    H163287   4.821   6.976  14.460
 4273TIP3    H263288   4.831   7.070  14.578
 4274TIP3   OH263289   4.475   6.782  15.184
 4274TIP3    H163290   4.418   6.841  15.234
 4274TIP3    H263291   4.520   6.839  15.122
 4275TIP3   OH263292   5.254   6.069  14.875
 4275TIP3    H163293   5.272   5.977  14.897
 4275TIP3    H263294   5.295   6.119  14.944
 4276TIP3   OH263295   4.186   6.202  14.980
 4276TIP3    H163296   4.250   6.228  15.047
 4276TIP3    H263297   4.233   6.138  14.926
 4277TIP3   OH263298   4.319   6.967  15.318
 4277TIP3    H163299   4.324   7.062  15.331
 4277TIP3    H263300   4.234   6.943  15.352
 4278TIP3   OH263301   3.893   6.951  14.401
 4278TIP3    H163302   3.890   6.975  14.308
 4278TIP3    H263303   3.967   6.891  14.408
 4279TIP3   OH263304   5.333   5.918  15.244
 4279TIP3    H163305   5.252   5.944  15.199
 4279TIP3    H263306   5.403   5.938  15.182
 4280TIP3   OH263307   4.772   6.606  14.426
 4280TIP3    H163308   4.680   6.597  14.401
 4280TIP3    H263309   4.817   6.630  14.344
 4281TIP3   OH263310   4.947   6.357  13.985
 4281TIP3    H163311   4.950   6.430  14.047
 4281TIP3    H263312   4.909   6.394  13.905
 4282TIP3   OH263313   5.559   6.593  15.229
 4282TIP3    H163314   5.536   6.685  15.220
 4282TIP3    H263315   5.629   6.579  15.165
 4283TIP3   OH263316   5.105   6.533  14.505
 4283TIP3    H163317   5.064   6.604  14.554
 4283TIP3    H263318   5.193   6.526  14.541
 4284TIP3   OH263319   5.176   6.438  15.466
 4284TIP3    H163320   5.168   6.516  15.520
 4284TIP3    H263321   5.107   6.448  15.399
 4285TIP3   OH263322   4.323   6.662  14.703
 4285TIP3    H163323   4.300   6.638  14.613
 4285TIP3    H263324   4.366   6.584  14.739
 4286TIP3   OH263325   4.467   7.062  14.912
 4286TIP3    H163326   4.437   7.099  14.830
 4286TIP3    H263327   4.505   6.977  14.888
 4287TIP3   OH263328   4.333   6.566  15.074
 4287TIP3    H163329   4.371   6.535  14.992
 4287TIP3    H263330   4.388   6.639  15.100
 4288TIP3   OH263331   5.072   6.503  14.229
 4288TIP3    H163332   5.084   6.520  14.322
 4288TIP3    H263333   5.105   6.582  14.186
 4289TIP3   OH263334   4.138   6.598  15.534
 4289TIP3    H163335   4.141   6.687  15.570
 4289TIP3    H263336   4.124   6.611  15.440
 4290TIP3   OH263337   4.750   7.228  14.636
 4290TIP3    H163338   4.656   7.219  14.651
 4290TIP3    H263339   4.760   7.315  14.597
 4291TIP3   OH263340   4.201   7.308  15.595
 4291TIP3    H163341   4.251   7.283  15.517
 4291TIP3    H263342   4.135   7.239  15.604
 4292TIP3   OH263343   5.392   5.736  14.195
 4292TIP3    H163344   5.327   5.770  14.257
 4292TIP3    H263345   5.341   5.693  14.127
 4293TIP3   OH263346   4.254   6.593  14.436
 4293TIP3    H163347   4.206   6.666  14.397
 4293TIP3    H263348   4.233   6.518  14.379
 4294TIP3   OH263349   4.782   7.483  14.517
 4294TIP3    H163350   4.837   7.430  14.459
 4294TIP3    H263351   4.757   7.558  14.463
 4295TIP3   OH263352   5.357   6.315  15.651
 4295TIP3    H163353   5.296   6.354  15.588
 4295TIP3    H263354   5.352   6.221  15.633
 4296TIP3   OH263355   4.729   5.811  15.400
 4296TIP3    H163356   4.699   5.725  15.428
 4296TIP3    H263357   4.659   5.845  15.344
 4297TIP3   OH263358   5.121   6.161  15.498
 4297TIP3    H163359   5.054   6.155  15.567
 4297TIP3    H263360   5.118   6.252  15.471
 4298TIP3   OH263361   4.346   6.311  15.190
 4298TIP3    H163362   4.274   6.310  15.253
 4298TIP3    H263363   4.345   6.399  15.153
 4299TIP3   OH263364   4.311   6.303  14.657
 4299TIP3    H163365   4.218   6.305  14.635
 4299TIP3    H263366   4.355   6.290  14.573
 4300TIP3   OH263367   4.873   6.380  14.554
 4300TIP3    H163368   4.816   6.446  14.515
 4300TIP3    H263369   4.962   6.408  14.530
 4301TIP3   OH263370   4.823   6.416  15.704
 4301TIP3    H163371   4.768   6.337  15.700
 4301TIP3    H263372   4.903   6.386  15.746
 4302TIP3   OH263373   4.957   6.286  14.802
 4302TIP3    H163374   4.912   6.335  14.733
 4302TIP3    H263375   5.010   6.221  14.755
 4303TIP3   OH263376   4.126   6.328  15.360
 4303TIP3    H163377   4.154   6.350  15.448
 4303TIP3    H263378   4.050   6.272  15.372
 4304TIP3   OH263379   4.528   6.171  14.018
 4304TIP3    H163380   4.565   6.087  13.992
 4304TIP3    H263381   4.480   6.202  13.941
 4305TIP3   OH263382   3.789   5.951  14.700
 4305TIP3    H163383   3.817   6.027  14.750
 4305TIP3    H263384   3.820   5.968  14.611
 4306TIP3   OH263385   4.973   6.433  15.285
 4306TIP3    H163386   4.995   6.390  15.203
 4306TIP3    H263387   4.894   6.389  15.315
 4307TIP3   OH263388   4.608   6.088  14.733
 4307TIP3    H163389   4.515   6.071  14.747
 4307TIP3    H263390   4.628   6.162  14.790
 4308TIP3   OH263391   4.045   6.254  14.584
 4308TIP3    H163392   3.967   6.301  14.554
 4308TIP3    H263393   4.067   6.196  14.511
 4309TIP3   OH263394   4.413   6.245  14.410
 4309TIP3    H163395   4.499   6.230  14.372
 4309TIP3    H263396   4.363   6.289  14.341
 4310TIP3   OH263397   5.083   6.000  15.134
 4310TIP3    H163398   5.008   6.007  15.193
 4310TIP3    H263399   5.050   5.952  15.058
 4311TIP3   OH263400   4.282   6.383  14.211
 4311TIP3    H163401   4.211   6.357  14.152
 4311TIP3    H263402   4.352   6.412  14.152
 4312TIP3   OH263403   4.126   6.843  15.677
 4312TIP3    H163404   4.190   6.843  15.748
 4312TIP3    H263405   4.043   6.827  15.720
 4313TIP3   OH263406   4.675   6.294  14.908
 4313TIP3    H163407   4.770   6.293  14.894
 4313TIP3    H263408   4.664   6.267  14.999
 4314TIP3   OH263409   4.217   5.909  14.578
 4314TIP3    H163410   4.140   5.929  14.526
 4314TIP3    H263411   4.286   5.894  14.513
 4315TIP3   OH263412   4.610   6.229  15.172
 4315TIP3    H163413   4.522   6.267  15.182
 4315TIP3    H263414   4.658   6.260  15.248
 4316TIP3   OH263415   4.909   6.070  14.098
 4316TIP3    H163416   4.831   6.026  14.063
 4316TIP3    H263417   4.893   6.075  14.193
 4317TIP3   OH263418   5.139   6.242  14.187
 4317TIP3    H163419   5.189   6.213  14.264
 4317TIP3    H263420   5.120   6.334  14.205
 4318TIP3   OH263421   4.167   6.792  14.898
 4318TIP3    H163422   4.217   6.761  14.823
 4318TIP3    H263423   4.161   6.715  14.956
 4319TIP3   OH263424   3.784   6.649  15.527
 4319TIP3    H163425   3.835   6.572  15.552
 4319TIP3    H263426   3.744   6.625  15.443
 4320TIP3   OH263427   4.545   6.476  15.760
 4320TIP3    H163428   4.480   6.466  15.691
 4320TIP3    H263429   4.629   6.482  15.714
 4321TIP3   OH263430   5.537   6.300  14.284
 4321TIP3    H163431   5.542   6.269  14.194
 4321TIP3    H263432   5.530   6.395  14.277
 4322TIP3   OH263433   5.593   6.897  15.617
 4322TIP3    H163434   5.554   6.984  15.604
 4322TIP3    H263435   5.643   6.881  15.537
 4323TIP3   OH263436   4.389   7.148  14.671
 4323TIP3    H163437   4.392   7.241  14.648
 4323TIP3    H263438   4.340   7.108  14.599
 4324TIP3   OH263439   3.979   6.588  14.160
 4324TIP3    H163440   3.997   6.578  14.067
 4324TIP3    H263441   3.884   6.574  14.168
 4325TIP3   OH263442   4.528   6.842  14.763
 4325TIP3    H163443   4.562   6.867  14.678
 4325TIP3    H263444   4.458   6.779  14.744
 4326TIP3   OH263445   4.619   7.275  15.256
 4326TIP3    H163446   4.683   7.339  15.224
 4326TIP3    H263447   4.670   7.196  15.273
 4327TIP3   OH263448   4.416   7.405  14.591
 4327TIP3    H163449   4.415   7.397  14.496
 4327TIP3    H263450   4.443   7.495  14.608
 4328TIP3   OH263451   4.107   6.785  14.298
 4328TIP3    H163452   4.058   6.715  14.255
 4328TIP3    H263453   4.138   6.841  14.226
 4329TIP3   OH263454   4.899   6.024  15.350
 4329TIP3    H163455   4.977   6.019  15.405
 4329TIP3    H263456   4.849   5.945  15.372
 4330TIP3   OH263457   5.014   5.978  14.461
 4330TIP3    H163458   4.922   6.005  14.465
 4330TIP3    H263459   5.058   6.031  14.527
 4331TIP3   OH263460   4.779   6.114  14.511
 4331TIP3    H163461   4.805   6.205  14.524
 4331TIP3    H263462   4.716   6.096  14.581
 4332TIP3   OH263463   4.776   6.269  15.391
 4332TIP3    H163464   4.783   6.276  15.486
 4332TIP3    H263465   4.816   6.184  15.370
 4333TIP3   OH263466   4.416   7.366  14.320
 4333TIP3    H163467   4.423   7.441  14.262
 4333TIP3    H263468   4.434   7.290  14.265
 4334TIP3   OH263469   5.368   6.053  15.479
 4334TIP3    H163470   5.280   6.087  15.492
 4334TIP3    H263471   5.363   6.003  15.398
 4335TIP3   OH263472   5.233   6.396  14.862
 4335TIP3    H163473   5.140   6.373  14.858
 4335TIP3    H263474   5.268   6.342  14.932
 4336TIP3   OH263475   4.411   7.359  15.766
 4336TIP3    H163476   4.444   7.274  15.795
 4336TIP3    H263477   4.335   7.339  15.712
 4337TIP3   OH263478   3.865   6.792  15.758
 4337TIP3    H163479   3.877   6.722  15.823
 4337TIP3    H263480   3.834   6.746  15.680
 4338TIP3   OH263481   3.936   6.489  15.706
 4338TIP3    H163482   4.017   6.514  15.661
 4338TIP3    H263483   3.950   6.517  15.797
 4339TIP3   OH263484   4.526   6.576  14.320
 4339TIP3    H163485   4.435   6.583  14.348
 4339TIP3    H263486   4.521   6.546  14.229
 4340TIP3   OH263487   4.383   6.459  15.538
 4340TIP3    H163488   4.303   6.511  15.537
 4340TIP3    H263489   4.435   6.494  15.467
 4341TIP3   OH263490   4.503   6.467  14.063
 4341TIP3    H163491   4.492   6.521  13.985
 4341TIP3    H263492   4.529   6.381  14.029
 4342TIP3   OH263493   4.869   6.655  15.854
 4342TIP3    H163494   4.962   6.680  15.851
 4342TIP3    H263495   4.859   6.594  15.781
 4343TIP3   OH263496   4.509   5.985  15.260
 4343TIP3    H163497   4.559   6.057  15.223
 4343TIP3    H263498   4.419   6.017  15.264
 4344TIP3   OH263499   4.549   6.571  15.350
 4344TIP3    H163500   4.642   6.558  15.329
 4344TIP3    H263501   4.522   6.645  15.295
 4345TIP3   OH263502   5.044   6.323  15.855
 4345TIP3    H163503   5.024   6.241  15.811
 4345TIP3    H263504   5.139   6.331  15.850
 4346TIP3   OH263505   5.201   6.669  15.621
 4346TIP3    H163506   5.185   6.737  15.555
 4346TIP3    H263507   5.297   6.666  15.630
 4347TIP3   OH263508   4.666   6.186  15.662
 4347TIP3    H163509   4.602   6.163  15.730
 4347TIP3    H263510   4.617   6.180  15.580
 4348TIP3   OH263511   4.940   6.122  15.696
 4348TIP3    H163512   4.845   6.112  15.696
 4348TIP3    H263513   4.972   6.048  15.748
 4349TIP3   OH263514   5.081   5.958  15.867
 4349TIP3    H163515   5.102   5.864  15.863
 4349TIP3    H263516   5.049   5.971  15.956
 4350TIP3   OH263517   4.491   7.619  14.175
 4350TIP3    H163518   4.514   7.548  14.115
 4350TIP3    H263519   4.436   7.678  14.123
 4351TIP3   OH263520   5.629   7.355  15.151
 4351TIP3    H163521   5.596   7.434  15.193
 4351TIP3    H263522   5.692   7.386  15.086
 4352TIP3   OH263523   5.568   6.776  14.408
 4352TIP3    H163524   5.642   6.836  14.422
 4352TIP3    H263525   5.585   6.703  14.467
 4353TIP3   OH263526   5.600   6.573  14.600
 4353TIP3    H163527   5.511   6.539  14.604
 4353TIP3    H263528   5.610   6.624  14.680
 4354TIP3   OH263529   5.584   6.868  15.154
 4354TIP3    H163530   5.573   6.836  15.064
 4354TIP3    H263531   5.629   6.952  15.144
 4355TIP3   OH263532   5.519   6.564  14.230
 4355TIP3    H163533   5.516   6.585  14.137
 4355TIP3    H263534   5.524   6.648  14.274
 4356TIP3   OH263535   5.351   6.457  14.623
 4356TIP3    H163536   5.351   6.373  14.576
 4356TIP3    H263537   5.314   6.436  14.709
 4357TIP3   OH263538   5.473   6.657  15.671
 4357TIP3    H163539   5.532   6.584  15.652
 4357TIP3    H263540   5.521   6.735  15.642
 4358TIP3   OH263541   5.615   6.409  15.642
 4358TIP3    H163542   5.526   6.375  15.638
 4358TIP3    H263543   5.667   6.336  15.676
 4359TIP3   OH263544   5.249   6.037  13.994
 4359TIP3    H163545   5.335   6.079  13.985
 4359TIP3    H263546   5.263   5.948  13.959
 4360TIP3   OH263547   5.351   6.216  14.471
 4360TIP3    H163548   5.371   6.122  14.478
 4360TIP3    H263549   5.414   6.249  14.408
 4361TIP3   OH263550   5.364   6.238  15.063
 4361TIP3    H163551   5.458   6.250  15.049
 4361TIP3    H263552   5.349   6.273  15.151
 4362TIP3   OH263553   5.404   6.375  15.308
 4362TIP3    H163554   5.326   6.403  15.355
 4362TIP3    H263555   5.444   6.457  15.278
 4363TIP3   OH263556   5.633   5.785  15.807
 4363TIP3    H163557   5.694   5.714  15.788
 4363TIP3    H263558   5.648   5.849  15.737
 4364TIP3   OH263559   5.388   5.941  14.496
 4364TIP3    H163560   5.411   5.910  14.584
 4364TIP3    H263561   5.312   5.887  14.471
 4365TIP3   OH263562   3.770   6.341  15.052
 4365TIP3    H163563   3.826   6.346  14.974
 4365TIP3    H263564   3.817   6.283  15.112
 4366TIP3   OH263565   5.597   5.961  15.599
 4366TIP3    H163566   5.508   5.985  15.572
 4366TIP3    H263567   5.635   5.920  15.521
 4367TIP3   OH263568   5.608   5.878  14.044
 4367TIP3    H163569   5.610   5.874  13.948
 4367TIP3    H263570   5.610   5.971  14.065
 4368TIP3   OH263571   3.867   5.988  14.439
 4368TIP3    H163572   3.799   5.950  14.383
 4368TIP3    H263573   3.930   6.026  14.379
 4369TIP3   OH263574   4.012   7.107  15.595
 4369TIP3    H163575   3.956   7.068  15.527
 4369TIP3    H263576   4.044   7.032  15.645
 4370TIP3   OH263577   4.352   7.250  15.360
 4370TIP3    H163578   4.317   7.329  15.318
 4370TIP3    H263579   4.445   7.250  15.338
 4371TIP3   OH263580   5.423   5.712  15.407
 4371TIP3    H163581   5.378   5.776  15.352
 4371TIP3    H263582   5.393   5.627  15.375
 4372TIP3   OH263583   4.284   7.499  15.245
 4372TIP3    H163584   4.199   7.460  15.224
 4372TIP3    H263585   4.312   7.540  15.163
 4373TIP3   OH263586   4.799   7.466  15.138
 4373TIP3    H163587   4.739   7.508  15.076
 4373TIP3    H263588   4.809   7.529  15.209
 4374TIP3   OH263589   4.197   7.342  15.001
 4374TIP3    H163590   4.178   7.250  14.983
 4374TIP3    H263591   4.293   7.347  14.998
 4375TIP3   OH263592   4.480   7.315  15.018
 4375TIP3    H163593   4.483   7.229  14.977
 4375TIP3    H263594   4.516   7.300  15.106
 4376TIP3   OH263595   5.306   5.799  14.905
 4376TIP3    H163596   5.380   5.804  14.845
 4376TIP3    H263597   5.241   5.745  14.859
 4377TIP3   OH263598   5.512   5.839  14.724
 4377TIP3    H163599   5.575   5.775  14.690
 4377TIP3    H263600   5.563   5.918  14.739
 4378TIP3   OH263601   5.192   5.775  14.396
 4378TIP3    H163602   5.123   5.841  14.408
 4378TIP3    H263603   5.145   5.692  14.397
 4379TIP3   OH263604   3.939   7.364  14.418
 4379TIP3    H163605   3.927   7.269  14.427
 4379TIP3    H263606   4.034   7.376  14.415
 4380TIP3   OH263607   4.012   5.782  15.653
 4380TIP3    H163608   3.996   5.689  15.663
 4380TIP3    H263609   4.041   5.811  15.740
 4381TIP3   OH263610   5.172   5.702  15.854
 4381TIP3    H163611   5.151   5.609  15.869
 4381TIP3    H263612   5.244   5.700  15.792
 4382TIP3   OH263613   6.687   6.598  14.965
 4382TIP3    H163614   6.770   6.553  14.952
 4382TIP3    H263615   6.623   6.545  14.917
 4383TIP3   OH263616   6.083   7.073  15.064
 4383TIP3    H163617   6.044   6.986  15.068
 4383TIP3    H263618   6.173   7.058  15.036
 4384TIP3   OH263619   5.710   6.328  14.512
 4384TIP3    H163620   5.683   6.416  14.538
 4384TIP3    H263621   5.665   6.312  14.429
 4385TIP3   OH263622   6.809   7.337  14.858
 4385TIP3    H163623   6.766   7.291  14.787
 4385TIP3    H263624   6.804   7.277  14.933
 4386TIP3   OH263625   5.855   6.334  14.909
 4386TIP3    H163626   5.892   6.257  14.951
 4386TIP3    H263627   5.869   6.319  14.815
 4387TIP3   OH263628   7.494   6.236  15.342
 4387TIP3    H163629   7.517   6.245  15.249
 4387TIP3    H263630   7.480   6.326  15.371
 4388TIP3   OH263631   6.163   6.021  15.315
 4388TIP3    H163632   6.169   6.001  15.222
 4388TIP3    H263633   6.073   6.052  15.327
 4389TIP3   OH263634   5.789   6.948  14.438
 4389TIP3    H163635   5.800   6.966  14.344
 4389TIP3    H263636   5.814   7.030  14.481
 4390TIP3   OH263637   6.774   6.624  14.377
 4390TIP3    H163638   6.773   6.717  14.352
 4390TIP3    H263639   6.758   6.577  14.296
 4391TIP3   OH263640   7.505   6.574  15.318
 4391TIP3    H163641   7.456   6.655  15.304
 4391TIP3    H263642   7.549   6.558  15.235
 4392TIP3   OH263643   7.087   6.677  14.443
 4392TIP3    H163644   7.019   6.615  14.419
 4392TIP3    H263645   7.142   6.630  14.506
 4393TIP3   OH263646   6.334   7.056  14.954
 4393TIP3    H163647   6.343   7.056  14.859
 4393TIP3    H263648   6.420   7.031  14.987
 4394TIP3   OH263649   6.685   7.214  14.644
 4394TIP3    H163650   6.591   7.199  14.650
 4394TIP3    H263651   6.701   7.233  14.552
 4395TIP3   OH263652   6.162   7.203  15.671
 4395TIP3    H163653   6.174   7.222  15.578
 4395TIP3    H263654   6.074   7.164  15.676
 4396TIP3   OH263655   5.734   6.822  15.397
 4396TIP3    H163656   5.696   6.830  15.309
 4396TIP3    H263657   5.763   6.730  15.401
 4397TIP3   OH263658   5.709   7.101  15.091
 4397TIP3    H163659   5.728   7.112  14.998
 4397TIP3    H263660   5.666   7.183  15.117
 4398TIP3   OH263661   6.064   7.361  14.640
 4398TIP3    H163662   6.060   7.339  14.733
 4398TIP3    H263663   5.998   7.305  14.599
 4399TIP3   OH263664   6.626   5.780  15.336
 4399TIP3    H163665   6.666   5.814  15.416
 4399TIP3    H263666   6.532   5.795  15.348
 4400TIP3   OH263667   6.868   6.367  14.444
 4400TIP3    H163668   6.826   6.453  14.439
 4400TIP3    H263669   6.891   6.346  14.354
 4401TIP3   OH263670   5.959   6.358  15.335
 4401TIP3    H163671   5.894   6.418  15.370
 4401TIP3    H263672   5.924   6.271  15.351
 4402TIP3   OH263673   5.685   6.051  14.748
 4402TIP3    H163674   5.742   6.055  14.825
 4402TIP3    H263675   5.717   6.121  14.690
 4403TIP3   OH263676   5.923   6.241  14.664
 4403TIP3    H163677   5.866   6.274  14.595
 4403TIP3    H263678   5.966   6.165  14.626
 4404TIP3   OH263679   6.320   6.160  14.387
 4404TIP3    H163680   6.402   6.134  14.429
 4404TIP3    H263681   6.322   6.116  14.302
 4405TIP3   OH263682   6.028   6.008  14.559
 4405TIP3    H163683   6.012   5.919  14.592
 4405TIP3    H263684   6.051   5.995  14.466
 4406TIP3   OH263685   5.745   6.531  15.427
 4406TIP3    H163686   5.707   6.486  15.503
 4406TIP3    H263687   5.673   6.537  15.364
 4407TIP3   OH263688   6.359   7.100  14.685
 4407TIP3    H163689   6.346   7.189  14.651
 4407TIP3    H263690   6.327   7.043  14.616
 4408TIP3   OH263691   6.425   7.272  15.235
 4408TIP3    H163692   6.483   7.349  15.233
 4408TIP3    H263693   6.483   7.199  15.213
 4409TIP3   OH263694   6.329   7.350  14.576
 4409TIP3    H163695   6.236   7.366  14.593
 4409TIP3    H263696   6.341   7.370  14.483
 4410TIP3   OH263697   7.464   7.482  14.332
 4410TIP3    H163698   7.474   7.500  14.239
 4410TIP3    H263699   7.370   7.490  14.349
 4411TIP3   OH263700   5.863   6.091  15.360
 4411TIP3    H163701   5.774   6.127  15.361
 4411TIP3    H263702   5.857   6.009  15.408
 4412TIP3   OH263703   5.957   7.250  15.235
 4412TIP3    H163704   5.998   7.188  15.175
 4412TIP3    H263705   5.866   7.222  15.241
 4413TIP3   OH263706   6.795   6.024  14.387
 4413TIP3    H163707   6.816   6.003  14.296
 4413TIP3    H263708   6.802   6.120  14.392
 4414TIP3   OH263709   6.656   5.865  14.570
 4414TIP3    H163710   6.706   5.858  14.651
 4414TIP3    H263711   6.705   5.928  14.517
 4415TIP3   OH263712   6.330   7.397  14.304
 4415TIP3    H163713   6.316   7.474  14.248
 4415TIP3    H263714   6.324   7.323  14.244
 4416TIP3   OH263715   5.928   5.799  14.932
 4416TIP3    H163716   5.947   5.787  14.839
 4416TIP3    H263717   5.910   5.710  14.965
 4417TIP3   OH263718   5.849   7.201  14.551
 4417TIP3    H163719   5.793   7.227  14.625
 4417TIP3    H263720   5.820   7.257  14.479
 4418TIP3   OH263721   6.248   7.332  15.894
 4418TIP3    H163722   6.343   7.330  15.903
 4418TIP3    H263723   6.230   7.278  15.817
 4419TIP3   OH263724   6.950   6.242  15.941
 4419TIP3    H163725   6.911   6.180  15.879
 4419TIP3    H263726   6.940   6.327  15.899
 4420TIP3   OH263727   7.022   6.602  15.686
 4420TIP3    H163728   6.972   6.607  15.605
 4420TIP3    H263729   7.086   6.672  15.679
 4421TIP3   OH263730   6.351   5.797  15.378
 4421TIP3    H163731   6.298   5.877  15.378
 4421TIP3    H263732   6.296   5.732  15.335
 4422TIP3   OH263733   6.542   6.068  15.739
 4422TIP3    H163734   6.515   6.151  15.778
 4422TIP3    H263735   6.514   6.074  15.648
 4423TIP3   OH263736   6.825   6.083  15.754
 4423TIP3    H163737   6.731   6.065  15.754
 4423TIP3    H263738   6.857   6.042  15.673
 4424TIP3   OH263739   6.467   5.704  15.620
 4424TIP3    H163740   6.519   5.625  15.607
 4424TIP3    H263741   6.427   5.720  15.535
 4425TIP3   OH263742   6.398   5.846  15.842
 4425TIP3    H163743   6.417   5.788  15.768
 4425TIP3    H263744   6.453   5.923  15.826
 4426TIP3   OH263745   5.600   7.529  14.634
 4426TIP3    H163746   5.543   7.514  14.559
 4426TIP3    H263747   5.655   7.451  14.639
 4427TIP3   OH263748   5.712   7.302  14.773
 4427TIP3    H163749   5.621   7.294  14.800
 4427TIP3    H263750   5.755   7.347  14.846
 4428TIP3   OH263751   7.515   6.759  14.397
 4428TIP3    H163752   7.535   6.703  14.322
 4428TIP3    H263753   7.494   6.697  14.467
 4429TIP3   OH263754   7.467   6.580  14.603
 4429TIP3    H163755   7.377   6.568  14.633
 4429TIP3    H263756   7.520   6.577  14.683
 4430TIP3   OH263757   7.449   6.798  15.152
 4430TIP3    H163758   7.504   6.735  15.105
 4430TIP3    H263759   7.482   6.884  15.126
 4431TIP3   OH263760   7.197   6.555  14.678
 4431TIP3    H163761   7.128   6.489  14.687
 4431TIP3    H263762   7.165   6.630  14.727
 4432TIP3   OH263763   5.779   6.549  15.070
 4432TIP3    H163764   5.793   6.487  14.998
 4432TIP3    H263765   5.866   6.581  15.091
 4433TIP3   OH263766   5.725   6.160  15.749
 4433TIP3    H163767   5.810   6.117  15.743
 4433TIP3    H263768   5.665   6.102  15.701
 4434TIP3   OH263769   5.832   6.045  14.993
 4434TIP3    H163770   5.867   5.960  14.966
 4434TIP3    H263771   5.862   6.055  15.083
 4435TIP3   OH263772   5.635   6.286  15.076
 4435TIP3    H163773   5.691   6.278  14.999
 4435TIP3    H263774   5.666   6.364  15.121
 4436TIP3   OH263775   5.606   5.864  14.352
 4436TIP3    H163776   5.526   5.895  14.394
 4436TIP3    H263777   5.676   5.914  14.393
 4437TIP3   OH263778   5.671   5.834  15.361
 4437TIP3    H163779   5.595   5.778  15.374
 4437TIP3    H263780   5.651   5.886  15.284
 4438TIP3   OH263781   5.907   7.088  15.688
 4438TIP3    H163782   5.873   7.055  15.605
 4438TIP3    H263783   5.838   7.069  15.752
 4439TIP3   OH263784   6.189   7.261  15.401
 4439TIP3    H163785   6.112   7.268  15.346
 4439TIP3    H263786   6.263   7.263  15.340
 4440TIP3   OH263787   6.567   7.509  15.188
 4440TIP3    H163788   6.544   7.533  15.098
 4440TIP3    H263789   6.561   7.591  15.237
 4441TIP3   OH263790   6.793   7.432  15.327
 4441TIP3    H163791   6.711   7.442  15.278
 4441TIP3    H263792   6.859   7.413  15.259
 4442TIP3   OH263793   6.970   7.434  15.125
 4442TIP3    H163794   6.975   7.454  15.031
 4442TIP3    H263795   7.057   7.453  15.158
 4443TIP3   OH263796   5.853   7.396  14.999
 4443TIP3    H163797   5.883   7.402  15.090
 4443TIP3    H263798   5.932   7.375  14.949
 4444TIP3   OH263799   6.090   7.305  14.909
 4444TIP3    H163800   6.082   7.221  14.954
 4444TIP3    H263801   6.180   7.332  14.925
 4445TIP3   OH263802   6.355   7.342  14.977
 4445TIP3    H163803   6.366   7.256  14.936
 4445TIP3    H263804   6.363   7.326  15.071
 4446TIP3   OH263805   6.794   5.820  14.805
 4446TIP3    H163806   6.802   5.730  14.837
 4446TIP3    H263807   6.884   5.854  14.806
 4447TIP3   OH263808   5.955   5.748  14.656
 4447TIP3    H163809   5.863   5.732  14.635
 4447TIP3    H263810   5.997   5.663  14.649
 4448TIP3   OH263811   5.831   5.790  14.197
 4448TIP3    H163812   5.878   5.788  14.114
 4448TIP3    H263813   5.886   5.842  14.255
 4449TIP3   OH263814   6.427   5.718  14.641
 4449TIP3    H163815   6.503   5.768  14.610
 4449TIP3    H263816   6.396   5.767  14.717
 4450TIP3   OH263817   7.056   5.655  14.485
 4450TIP3    H163818   7.043   5.738  14.531
 4450TIP3    H263819   7.151   5.640  14.490
 4451TIP3   OH263820   5.783   7.362  14.337
 4451TIP3    H163821   5.763   7.329  14.250
 4451TIP3    H263822   5.835   7.441  14.322
 4452TIP3   OH263823   7.881   6.542  15.166
 4452TIP3    H163824   7.867   6.456  15.204
 4452TIP3    H263825   7.907   6.598  15.239
 4453TIP3   OH263826   7.956   6.956  15.006
 4453TIP3    H163827   7.942   6.868  14.971
 4453TIP3    H263828   7.992   6.942  15.094
 4454TIP3   OH263829   7.600   6.349  14.509
 4454TIP3    H163830   7.560   6.432  14.534
 4454TIP3    H263831   7.561   6.329  14.424
 4455TIP3   OH263832   7.671   6.555  14.797
 4455TIP3    H163833   7.702   6.467  14.821
 4455TIP3    H263834   7.743   6.593  14.748
 4456TIP3   OH263835   8.025   6.068  14.829
 4456TIP3    H163836   8.077   6.134  14.784
 4456TIP3    H263837   7.976   6.024  14.760
 4457TIP3   OH263838   7.770   6.311  14.896
 4457TIP3    H163839   7.839   6.275  14.951
 4457TIP3    H263840   7.787   6.276  14.809
 4458TIP3   OH263841   7.984   6.032  15.310
 4458TIP3    H163842   7.991   6.080  15.227
 4458TIP3    H263843   7.892   6.043  15.337
 4459TIP3   OH263844   7.960   6.177  15.065
 4459TIP3    H163845   8.034   6.228  15.098
 4459TIP3    H263846   7.993   6.137  14.984
 4460TIP3   OH263847   8.081   6.914  15.251
 4460TIP3    H163848   8.104   6.972  15.323
 4460TIP3    H263849   8.047   6.835  15.294
 4461TIP3   OH263850   7.750   6.909  14.432
 4461TIP3    H163851   7.671   6.856  14.427
 4461TIP3    H263852   7.724   6.985  14.486
 4462TIP3   OH263853   8.050   6.593  14.709
 4462TIP3    H163854   8.030   6.615  14.618
 4462TIP3    H263855   8.075   6.500  14.706
 4463TIP3   OH263856   7.907   6.673  15.416
 4463TIP3    H163857   7.950   6.686  15.501
 4463TIP3    H263858   7.833   6.616  15.436
 4464TIP3   OH263859   8.035   7.114  15.670
 4464TIP3    H163860   8.084   7.113  15.587
 4464TIP3    H263861   7.944   7.097  15.643
 4465TIP3   OH263862   7.983   6.615  14.443
 4465TIP3    H163863   7.969   6.685  14.379
 4465TIP3    H263864   7.979   6.534  14.392
 4466TIP3   OH263865   7.598   7.024  15.086
 4466TIP3    H163866   7.636   7.061  15.007
 4466TIP3    H263867   7.661   7.044  15.155
 4467TIP3   OH263868   7.902   7.238  14.672
 4467TIP3    H163869   7.955   7.172  14.718
 4467TIP3    H263870   7.824   7.190  14.644
 4468TIP3   OH263871   7.861   6.942  15.473
 4468TIP3    H163872   7.897   6.902  15.553
 4468TIP3    H263873   7.840   6.868  15.417
 4469TIP3   OH263874   8.023   5.813  15.011
 4469TIP3    H163875   8.039   5.752  14.939
 4469TIP3    H263876   8.068   5.894  14.985
 4470TIP3   OH263877   8.122   6.328  15.249
 4470TIP3    H163878   8.036   6.345  15.286
 4470TIP3    H263879   8.127   6.386  15.173
 4471TIP3   OH263880   8.084   6.317  14.696
 4471TIP3    H163881   7.993   6.296  14.672
 4471TIP3    H263882   8.131   6.318  14.613
 4472TIP3   OH263883   7.857   6.343  15.356
 4472TIP3    H163884   7.798   6.392  15.413
 4472TIP3    H263885   7.827   6.252  15.364
 4473TIP3   OH263886   7.822   6.235  14.638
 4473TIP3    H163887   7.751   6.268  14.584
 4473TIP3    H263888   7.839   6.147  14.604
 4474TIP3   OH263889   8.077   6.346  14.178
 4474TIP3    H163890   7.999   6.315  14.132
 4474TIP3    H263891   0.005   6.327  14.117
 4475TIP3   OH263892   7.928   6.789  15.689
 4475TIP3    H163893   7.977   6.828  15.762
 4475TIP3    H263894   7.851   6.749  15.730
 4476TIP3   OH263895   7.920   5.972  14.595
 4476TIP3    H163896   7.887   5.882  14.595
 4476TIP3    H263897   7.995   5.970  14.536
 4477TIP3   OH263898   7.949   6.697  14.939
 4477TIP3    H163899   7.988   6.660  14.859
 4477TIP3    H263900   7.939   6.622  14.998
 4478TIP3   OH263901   7.697   6.516  15.506
 4478TIP3    H163902   7.657   6.506  15.592
 4478TIP3    H263903   7.623   6.539  15.449
 4479TIP3   OH263904   7.740   6.663  14.095
 4479TIP3    H163905   7.804   6.627  14.034
 4479TIP3    H263906   7.655   6.635  14.062
 4480TIP3   OH263907   7.728   6.095  15.404
 4480TIP3    H163908   7.643   6.133  15.386
 4480TIP3    H263909   7.708   6.007  15.437
 4481TIP3   OH263910   7.811   7.123  15.268
 4481TIP3    H163911   7.834   7.057  15.333
 4481TIP3    H263912   7.805   7.204  15.317
 4482TIP3   OH263913   7.930   6.814  14.255
 4482TIP3    H163914   7.869   6.856  14.315
 4482TIP3    H263915   7.874   6.769  14.191
 4483TIP3   OH263916   8.044   5.948  14.192
 4483TIP3    H163917   7.957   5.959  14.154
 4483TIP3    H263918   8.102   5.942  14.116
 4484TIP3   OH263919   7.996   7.109  14.037
 4484TIP3    H163920   7.986   7.058  14.117
 4484TIP3    H263921   7.972   7.049  13.967
 4485TIP3   OH263922   7.848   6.248  14.018
 4485TIP3    H163923   7.835   6.288  13.933
 4485TIP3    H263924   7.825   6.155  14.006
 4486TIP3   OH263925   7.664   7.152  14.547
 4486TIP3    H163926   7.576   7.115  14.533
 4486TIP3    H263927   7.684   7.197  14.465
 4487TIP3   OH263928   7.652   7.281  15.864
 4487TIP3    H163929   7.668   7.208  15.804
 4487TIP3    H263930   7.605   7.345  15.811
 4488TIP3   OH263931   7.980   6.293  15.751
 4488TIP3    H163932   7.930   6.303  15.670
 4488TIP3    H263933   8.056   6.240  15.726
 4489TIP3   OH263934   7.628   6.604  15.064
 4489TIP3    H163935   7.632   6.602  14.968
 4489TIP3    H263936   7.719   6.592  15.092
 4490TIP3   OH263937   7.784   5.958  15.044
 4490TIP3    H163938   7.856   5.897  15.030
 4490TIP3    H263939   7.825   6.043  15.056
 4491TIP3   OH263940   7.577   6.318  15.096
 4491TIP3    H163941   7.642   6.299  15.029
 4491TIP3    H263942   7.541   6.404  15.071
 4492TIP3   OH263943   7.738   7.078  15.700
 4492TIP3    H163944   7.732   7.030  15.618
 4492TIP3    H263945   7.732   7.011  15.768
 4493TIP3   OH263946   0.037   7.111  15.423
 4493TIP3    H163947   0.007   7.184  15.370
 4493TIP3    H263948   0.132   7.108  15.409
 4494TIP3   OH263949   7.847   7.360  15.388
 4494TIP3    H163950   7.854   7.442  15.338
 4494TIP3    H263951   7.898   7.376  15.467
 4495TIP3   OH263952   8.089   7.295  15.247
 4495TIP3    H163953   7.999   7.275  15.274
 4495TIP3    H263954   8.081   7.377  15.198
 4496TIP3   OH263955   7.819   7.194  15.006
 4496TIP3    H163956   7.810   7.185  15.101
 4496TIP3    H263957   7.866   7.115  14.979
 4497TIP3   OH263958   8.096   7.120  14.843
 4497TIP3    H163959   8.043   7.054  14.888
 4497TIP3    H263960   0.040   7.106  14.877
 4498TIP3   OH263961   7.679   7.302  14.316
 4498TIP3    H163962   7.680   7.249  14.236
 4498TIP3    H263963   7.603   7.360  14.305
 4499TIP3   OH263964   8.005   5.778  15.846
 4499TIP3    H163965   8.022   5.776  15.751
 4499TIP3    H263966   7.971   5.692  15.866
 4500TIP3   OH263967   8.003   7.320  13.856
 4500TIP3    H163968   7.909   7.338  13.844
 4500TIP3    H263969   8.006   7.255  13.926
 4501TIP3   OH263970   1.903   7.849  15.175
 4501TIP3    H163971   1.952   7.863  15.256
 4501TIP3    H263972   1.968   7.859  15.105
 4502TIP3   OH263973   0.637   8.022  14.763
 4502TIP3    H163974   0.650   8.099  14.708
 4502TIP3    H263975   0.616   7.952  14.701
 4503TIP3   OH263976   1.335   8.077  14.576
 4503TIP3    H163977   1.383   8.000  14.606
 4503TIP3    H263978   1.385   8.109  14.501
 4504TIP3   OH263979   1.919   8.058  15.485
 4504TIP3    H163980   1.868   8.103  15.417
 4504TIP3    H263981   1.874   7.975  15.498
 4505TIP3   OH263982   0.481   7.876  15.245
 4505TIP3    H163983   0.515   7.943  15.185
 4505TIP3    H263984   0.457   7.925  15.324
 4506TIP3   OH263985   1.419   7.848  14.874
 4506TIP3    H163986   1.375   7.781  14.821
 4506TIP3    H263987   1.512   7.834  14.858
 4507TIP3   OH263988   0.584   8.005  15.027
 4507TIP3    H163989   0.616   8.090  15.059
 4507TIP3    H263990   0.597   8.009  14.932
 4508TIP3   OH263991   1.466   7.798  15.245
 4508TIP3    H163992   1.382   7.817  15.204
 4508TIP3    H263993   1.531   7.838  15.187
 4509TIP3   OH263994   0.860   7.552  14.947
 4509TIP3    H163995   0.816   7.467  14.948
 4509TIP3    H263996   0.790   7.616  14.961
 4510TIP3   OH263997   0.663   7.729  15.017
 4510TIP3    H163998   0.584   7.684  14.986
 4510TIP3    H263999   0.640   7.822  15.013
 4511TIP3   OH264000   1.070   7.658  15.403
 4511TIP3    H164001   1.130   7.593  15.438
 4511TIP3    H264002   1.043   7.710  15.479
 4512TIP3   OH264003   1.386   8.136  15.475
 4512TIP3    H164004   1.340   8.114  15.556
 4512TIP3    H264005   1.323   0.041  15.423
 4513TIP3   OH264006   0.980   7.846  14.141
 4513TIP3    H164007   0.929   7.833  14.062
 4513TIP3    H264008   1.054   7.901  14.114
 4514TIP3   OH264009   0.339   8.033  14.792
 4514TIP3    H164010   0.358   8.111  14.739
 4514TIP3    H264011   0.368   7.960  14.737
 4515TIP3   OH264012   0.193   8.112  14.269
 4515TIP3    H164013   0.201   8.140  14.178
 4515TIP3    H264014   0.099   8.096  14.281
 4516TIP3   OH264015   0.916   7.971  14.805
 4516TIP3    H164016   0.826   7.941  14.793
 4516TIP3    H264017   0.964   7.892  14.830
 4517TIP3   OH264018   0.372   8.058  14.480
 4517TIP3    H164019   0.311   8.081  14.410
 4517TIP3    H264020   0.440   8.006  14.437
 4518TIP3   OH264021   0.707   0.037  14.389
 4518TIP3    H164022   0.783   0.001  14.435
 4518TIP3    H264023   0.735   0.124  14.361
 4519TIP3   OH264024   1.240   7.849  15.077
 4519TIP3    H164025   1.166   7.821  15.023
 4519TIP3    H264026   1.312   7.860  15.015
 4520TIP3   OH264027   0.581   7.805  14.610
 4520TIP3    H164028   0.600   7.711  14.603
 4520TIP3    H264029   0.580   7.836  14.520
 4521TIP3   OH264030   0.880   8.075  15.191
 4521TIP3    H164031   0.877   8.122  15.275
 4521TIP3    H264032   0.957   8.019  15.198
 4522TIP3   OH264033   1.219   7.754  14.264
 4522TIP3    H164034   1.134   7.749  14.219
 4522TIP3    H264035   1.278   7.792  14.198
 4523TIP3   OH264036   0.328   7.913  15.485
 4523TIP3    H164037   0.272   7.879  15.416
 4523TIP3    H264038   0.373   7.835  15.520
 4524TIP3   OH264039   1.082   7.914  15.289
 4524TIP3    H164040   1.149   7.908  15.220
 4524TIP3    H264041   1.079   7.826  15.327
 4525TIP3   OH264042   1.123   7.939  14.461
 4525TIP3    H164043   1.156   7.907  14.377
 4525TIP3    H264044   1.194   7.994  14.495
 4526TIP3   OH264045   0.911   8.093  14.554
 4526TIP3    H164046   0.977   8.054  14.497
 4526TIP3    H264047   0.924   8.051  14.639
 4527TIP3   OH264048   0.976   8.115  15.453
 4527TIP3    H164049   0.943   8.086  15.538
 4527TIP3    H264050   1.022   8.039  15.418
 4528TIP3   OH264051   1.010   7.722  14.579
 4528TIP3    H164052   1.053   7.720  14.665
 4528TIP3    H264053   1.052   7.794  14.533
 4529TIP3   OH264054   0.600   7.930  14.361
 4529TIP3    H164055   0.625   8.022  14.351
 4529TIP3    H264056   0.683   7.882  14.358
 4530TIP3   OH264057   1.588   7.936  15.467
 4530TIP3    H164058   1.531   8.013  15.470
 4530TIP3    H264059   1.548   7.879  15.401
 4531TIP3   OH264060   0.468   7.529  14.984
 4531TIP3    H164061   0.434   7.583  14.913
 4531TIP3    H264062   0.479   7.442  14.944
 4532TIP3   OH264063   0.622   8.041  15.479
 4532TIP3    H164064   0.677   7.973  15.441
 4532TIP3    H264065   0.656   8.123  15.444
 4533TIP3   OH264066   0.746   7.858  15.312
 4533TIP3    H164067   0.788   7.916  15.249
 4533TIP3    H264068   0.660   7.839  15.274
 4534TIP3   OH264069   0.797   7.613  15.415
 4534TIP3    H164070   0.781   7.704  15.391
 4534TIP3    H264071   0.892   7.603  15.412
 4535TIP3   OH264072   0.855   8.036  15.697
 4535TIP3    H164073   0.926   8.019  15.759
 4535TIP3    H264074   0.777   8.004  15.741
 4536TIP3   OH264075   0.982   7.797  15.617
 4536TIP3    H164076   0.923   7.873  15.621
 4536TIP3    H264077   1.003   7.778  15.708
 4537TIP3   OH264078   1.348   7.685  16.002
 4537TIP3    H164079   1.324   7.619  15.936
 4537TIP3    H264080   1.264   7.719  16.033
 4538TIP3   OH264081   0.472   8.028  15.703
 4538TIP3    H164082   0.521   8.038  15.621
 4538TIP3    H264083   0.422   7.947  15.691
 4539TIP3   OH264084   0.755   7.562  15.681
 4539TIP3    H164085   0.772   7.468  15.689
 4539TIP3    H264086   0.772   7.581  15.589
 4540TIP3   OH264087   0.815   7.714  15.899
 4540TIP3    H164088   0.799   7.661  15.822
 4540TIP3    H264089   0.765   7.794  15.884
 4541TIP3   OH264090   1.549   7.865  14.254
 4541TIP3    H164091   1.590   7.781  14.236
 4541TIP3    H264092   1.559   7.915  14.173
 4542TIP3   OH264093   1.581   8.089  14.435
 4542TIP3    H164094   1.571   8.012  14.491
 4542TIP3    H264095   1.600   8.053  14.348
 4543TIP3   OH264096   1.357   8.124  14.924
 4543TIP3    H164097   1.374   8.034  14.897
 4543TIP3    H264098   1.427   0.001  14.986
 4544TIP3   OH264099   0.149   8.096  15.576
 4544TIP3    H164100   0.222   8.038  15.555
 4544TIP3    H264101   0.106   8.054  15.651
 4545TIP3   OH264102   1.867   7.604  15.895
 4545TIP3    H164103   1.837   7.556  15.972
 4545TIP3    H264104   1.787   7.619  15.844
 4546TIP3   OH264105   1.511   7.865  14.589
 4546TIP3    H164106   1.584   7.818  14.627
 4546TIP3    H264107   1.462   7.798  14.541
 4547TIP3   OH264108   0.296   7.926  15.047
 4547TIP3    H164109   0.373   7.889  15.091
 4547TIP3    H264110   0.329   7.959  14.964
 4548TIP3   OH264111   0.314   7.694  14.454
 4548TIP3    H164112   0.225   7.660  14.452
 4548TIP3    H264113   0.313   7.767  14.391
 4549TIP3   OH264114   0.222   7.598  15.232
 4549TIP3    H164115   0.158   7.529  15.251
 4549TIP3    H264116   0.190   7.637  15.150
 4550TIP3   OH264117   1.054   7.741  14.885
 4550TIP3    H164118   0.996   7.668  14.907
 4550TIP3    H264119   1.134   7.699  14.851
 4551TIP3   OH264120   1.716   7.730  14.704
 4551TIP3    H164121   1.745   7.683  14.626
 4551TIP3    H264122   1.790   7.786  14.727
 4552TIP3   OH264123   0.497   7.540  14.581
 4552TIP3    H164124   0.431   7.590  14.531
 4552TIP3    H264125   0.452   7.460  14.606
 4553TIP3   OH264126   0.427   7.529  14.269
 4553TIP3    H164127   0.392   7.596  14.328
 4553TIP3    H264128   0.374   7.452  14.286
 4554TIP3   OH264129   0.796   7.562  14.666
 4554TIP3    H164130   0.858   7.618  14.620
 4554TIP3    H264131   0.836   7.548  14.752
 4555TIP3   OH264132   1.269   7.625  14.766
 4555TIP3    H164133   1.297   7.625  14.675
 4555TIP3    H264134   1.273   7.533  14.793
 4556TIP3   OH264135   1.344   7.662  14.496
 4556TIP3    H164136   1.307   7.694  14.414
 4556TIP3    H264137   1.354   7.567  14.483
 4557TIP3   OH264138   0.558   7.752  14.137
 4557TIP3    H164139   0.576   7.812  14.065
 4557TIP3    H264140   0.567   7.805  14.216
 4558TIP3   OH264141   0.829   7.792  14.364
 4558TIP3    H164142   0.892   7.762  14.429
 4558TIP3    H264143   0.881   7.810  14.286
 4559TIP3   OH264144   0.433   7.716  15.642
 4559TIP3    H164145   0.352   7.667  15.656
 4559TIP3    H264146   0.491   7.688  15.712
 4560TIP3   OH264147   0.522   7.572  15.856
 4560TIP3    H164148   0.601   7.529  15.824
 4560TIP3    H264149   0.461   7.501  15.874
 4561TIP3   OH264150   1.330   7.487  15.806
 4561TIP3    H164151   1.329   7.431  15.884
 4561TIP3    H264152   1.423   7.508  15.793
 4562TIP3   OH264153   3.585   7.849  15.118
 4562TIP3    H164154   3.552   7.938  15.119
 4562TIP3    H264155   3.660   7.851  15.060
 4563TIP3   OH264156   2.455   7.988  14.760
 4563TIP3    H164157   2.482   8.072  14.723
 4563TIP3    H264158   2.405   7.945  14.691
 4564TIP3   OH264159   2.330   7.820  15.202
 4564TIP3    H164160   2.330   7.890  15.137
 4564TIP3    H264161   2.264   7.848  15.266
 4565TIP3   OH264162   2.337   8.014  15.009
 4565TIP3    H164163   2.355   8.104  15.036
 4565TIP3    H264164   2.385   8.003  14.927
 4566TIP3   OH264165   3.314   7.822  15.238
 4566TIP3    H164166   3.275   7.829  15.151
 4566TIP3    H264167   3.408   7.831  15.223
 4567TIP3   OH264168   2.730   7.591  14.954
 4567TIP3    H164169   2.716   7.588  14.859
 4567TIP3    H264170   2.645   7.620  14.989
 4568TIP3   OH264171   2.471   7.669  14.999
 4568TIP3    H164172   2.410   7.640  14.932
 4568TIP3    H264173   2.418   7.720  15.060
 4569TIP3   OH264174   2.911   7.668  15.361
 4569TIP3    H164175   2.959   7.620  15.429
 4569TIP3    H264176   2.819   7.655  15.383
 4570TIP3   OH264177   3.173   8.106  15.584
 4570TIP3    H164178   3.111   8.033  15.590
 4570TIP3    H264179   3.163   8.137  15.494
 4571TIP3   OH264180   2.836   7.885  14.142
 4571TIP3    H164181   2.804   7.831  14.214
 4571TIP3    H264182   2.762   7.889  14.081
 4572TIP3   OH264183   2.577   7.860  14.062
 4572TIP3    H164184   2.487   7.828  14.074
 4572TIP3    H264185   2.579   7.892  13.972
 4573TIP3   OH264186   1.932   7.891  14.748
 4573TIP3    H164187   1.989   7.896  14.825
 4573TIP3    H264188   1.982   7.935  14.679
 4574TIP3   OH264189   2.000   8.022  14.300
 4574TIP3    H164190   2.037   8.073  14.228
 4574TIP3    H264191   1.915   7.992  14.267
 4575TIP3   OH264192   2.748   7.957  14.733
 4575TIP3    H164193   2.659   7.977  14.762
 4575TIP3    H264194   2.795   7.934  14.813
 4576TIP3   OH264195   2.096   8.020  14.558
 4576TIP3    H164196   2.057   8.020  14.471
 4576TIP3    H264197   2.179   7.972  14.547
 4577TIP3   OH264198   2.552   8.022  14.420
 4577TIP3    H164199   2.573   8.088  14.486
 4577TIP3    H264200   2.537   8.072  14.340
 4578TIP3   OH264201   3.135   7.862  15.025
 4578TIP3    H164202   3.097   7.906  15.101
 4578TIP3    H264203   3.060   7.835  14.973
 4579TIP3   OH264204   2.341   7.883  14.530
 4579TIP3    H164205   2.328   7.801  14.483
 4579TIP3    H264206   2.409   7.929  14.481
 4580TIP3   OH264207   2.738   8.092  15.146
 4580TIP3    H164208   2.709   0.010  15.213
 4580TIP3    H264209   2.826   8.120  15.123
 4581TIP3   OH264210   3.161   7.985  14.046
 4581TIP3    H164211   3.162   7.973  13.951
 4581TIP3    H264212   3.246   7.953  14.076
 4582TIP3   OH264213   2.136   7.912  15.378
 4582TIP3    H164214   2.089   7.993  15.398
 4582TIP3    H264215   2.114   7.853  15.450
 4583TIP3   OH264216   3.054   7.908  15.303
 4583TIP3    H164217   3.145   7.878  15.306
 4583TIP3    H264218   3.003   7.830  15.324
 4584TIP3   OH264219   3.051   7.900  14.316
 4584TIP3    H164220   3.096   7.818  14.297
 4584TIP3    H264221   3.082   7.926  14.403
 4585TIP3   OH264222   2.845   8.129  14.526
 4585TIP3    H164223   2.854   0.075  14.556
 4585TIP3    H264224   2.804   8.083  14.600
 4586TIP3   OH264225   2.966   0.022  15.348
 4586TIP3    H164226   2.874   0.017  15.370
 4586TIP3    H264227   2.992   8.075  15.332
 4587TIP3   OH264228   2.891   7.783  14.566
 4587TIP3    H164229   2.856   7.854  14.620
 4587TIP3    H264230   2.879   7.812  14.476
 4588TIP3   OH264231   2.558   7.965  15.595
 4588TIP3    H164232   2.560   7.934  15.505
 4588TIP3    H264233   2.553   8.060  15.589
 4589TIP3   OH264234   2.576   7.897  15.321
 4589TIP3    H164235   2.631   7.944  15.258
 4589TIP3    H264236   2.497   7.877  15.272
 4590TIP3   OH264237   2.635   7.634  15.403
 4590TIP3    H164238   2.613   7.723  15.376
 4590TIP3    H264239   2.562   7.581  15.371
 4591TIP3   OH264240   2.731   7.904  15.798
 4591TIP3    H164241   2.695   7.975  15.850
 4591TIP3    H264242   2.681   7.907  15.716
 4592TIP3   OH264243   2.992   7.908  15.662
 4592TIP3    H164244   2.903   7.895  15.694
 4592TIP3    H264245   3.047   7.863  15.726
 4593TIP3   OH264246   3.155   7.796  15.855
 4593TIP3    H164247   3.245   7.813  15.828
 4593TIP3    H264248   3.151   7.828  15.945
 4594TIP3   OH264249   2.127   7.893  15.790
 4594TIP3    H164250   2.171   7.832  15.731
 4594TIP3    H264251   2.178   7.889  15.871
 4595TIP3   OH264252   2.682   7.553  15.664
 4595TIP3    H164253   2.732   7.473  15.646
 4595TIP3    H264254   2.657   7.586  15.578
 4596TIP3   OH264255   2.604   7.675  15.902
 4596TIP3    H164256   2.613   7.609  15.834
 4596TIP3    H264257   2.649   7.752  15.867
 4597TIP3   OH264258   3.359   8.079  14.392
 4597TIP3    H164259   3.398   8.006  14.440
 4597TIP3    H264260   3.433   8.127  14.354
 4598TIP3   OH264261   3.485   8.100  15.110
 4598TIP3    H164262   3.465   0.005  15.030
 4598TIP3    H264263   3.473   0.020  15.180
 4599TIP3   OH264264   2.012   8.140  15.726
 4599TIP3    H164265   2.055   8.059  15.752
 4599TIP3    H264266   1.974   8.121  15.640
 4600TIP3   OH264267   2.095   7.883  14.975
 4600TIP3    H164268   2.131   7.797  14.956
 4600TIP3    H264269   2.172   7.939  14.987
 4601TIP3   OH264270   2.927   7.774  14.872
 4601TIP3    H164271   2.866   7.711  14.911
 4601TIP3    H264272   2.942   7.741  14.784
 4602TIP3   OH264273   2.684   7.649  14.691
 4602TIP3    H164274   2.753   7.678  14.633
 4602TIP3    H264275   2.620   7.721  14.689
 4603TIP3   OH264276   3.202   7.677  14.268
 4603TIP3    H164277   3.229   7.648  14.181
 4603TIP3    H264278   3.263   7.634  14.327
 4604TIP3   OH264279   2.683   7.779  14.342
 4604TIP3    H164280   2.627   7.750  14.269
 4604TIP3    H264281   2.641   7.858  14.374
 4605TIP3   OH264282   5.506   7.827  15.123
 4605TIP3    H164283   5.549   7.903  15.162
 4605TIP3    H264284   5.465   7.861  15.043
 4606TIP3   OH264285   4.436   7.862  14.765
 4606TIP3    H164286   4.359   7.866  14.708
 4606TIP3    H264287   4.486   7.786  14.733
 4607TIP3   OH264288   5.596   8.029  15.303
 4607TIP3    H164289   5.565   8.092  15.238
 4607TIP3    H264290   5.525   8.023  15.367
 4608TIP3   OH264291   4.226   7.848  15.235
 4608TIP3    H164292   4.243   7.882  15.147
 4608TIP3    H264293   4.198   7.758  15.221
 4609TIP3   OH264294   5.328   7.926  14.932
 4609TIP3    H164295   5.265   7.884  14.874
 4609TIP3    H264296   5.314   8.020  14.919
 4610TIP3   OH264297   4.287   7.938  14.980
 4610TIP3    H164298   4.229   8.006  14.945
 4610TIP3    H264299   4.347   7.919  14.909
 4611TIP3   OH264300   5.240   7.880  15.228
 4611TIP3    H164301   5.179   7.902  15.157
 4611TIP3    H264302   5.318   7.847  15.183
 4612TIP3   OH264303   4.599   7.559  14.960
 4612TIP3    H164304   4.569   7.468  14.962
 4612TIP3    H264305   4.521   7.611  14.982
 4613TIP3   OH264306   4.346   7.663  15.023
 4613TIP3    H164307   4.274   7.632  14.968
 4613TIP3    H264308   4.346   7.758  15.012
 4614TIP3   OH264309   4.784   7.620  15.372
 4614TIP3    H164310   4.814   7.579  15.453
 4614TIP3    H264311   4.689   7.616  15.376
 4615TIP3   OH264312   5.099   8.117  15.518
 4615TIP3    H164313   5.048   8.045  15.555
 4615TIP3    H264314   5.043   0.008  15.448
 4616TIP3   OH264315   4.773   7.873  14.088
 4616TIP3    H164316   4.792   7.780  14.094
 4616TIP3    H264317   4.737   7.885  14.000
 4617TIP3   OH264318   3.746   7.852  14.789
 4617TIP3    H164319   3.827   7.848  14.840
 4617TIP3    H264320   3.773   7.829  14.700
 4618TIP3   OH264321   4.628   8.022  14.884
 4618TIP3    H164322   4.556   7.979  14.837
 4618TIP3    H264323   4.689   7.951  14.904
 4619TIP3   OH264324   4.168   8.061  14.458
 4619TIP3    H164325   4.090   8.014  14.428
 4619TIP3    H264326   4.208   8.002  14.522
 4620TIP3   OH264327   4.569   7.958  14.445
 4620TIP3    H164328   4.645   7.973  14.501
 4620TIP3    H264329   4.526   8.043  14.437
 4621TIP3   OH264330   4.995   7.911  15.057
 4621TIP3    H164331   4.963   7.902  15.147
 4621TIP3    H264332   4.926   7.872  15.003
 4622TIP3   OH264333   4.222   7.828  14.602
 4622TIP3    H164334   4.149   7.767  14.613
 4622TIP3    H264335   4.271   7.794  14.527
 4623TIP3   OH264336   4.609   8.056  15.182
 4623TIP3    H164337   4.600   8.072  15.088
 4623TIP3    H264338   4.692   8.098  15.206
 4624TIP3   OH264339   4.985   7.992  14.220
 4624TIP3    H164340   4.903   7.962  14.182
 4624TIP3    H264341   5.037   8.023  14.146
 4625TIP3   OH264342   4.929   7.856  15.320
 4625TIP3    H164343   5.019   7.833  15.344
 4625TIP3    H264344   4.878   7.777  15.337
 4626TIP3   OH264345   5.056   7.849  14.445
 4626TIP3    H164346   5.022   7.890  14.365
 4626TIP3    H264347   5.141   7.890  14.458
 4627TIP3   OH264348   4.757   8.062  14.631
 4627TIP3    H164349   4.783   0.006  14.603
 4627TIP3    H264350   4.708   8.077  14.711
 4628TIP3   OH264351   4.845   8.116  15.359
 4628TIP3    H164352   4.774   8.108  15.422
 4628TIP3    H264353   4.874   8.026  15.343
 4629TIP3   OH264354   4.878   7.814  14.653
 4629TIP3    H164355   4.834   7.899  14.641
 4629TIP3    H264356   4.929   7.802  14.573
 4630TIP3   OH264357   4.378   7.751  14.394
 4630TIP3    H164358   4.447   7.816  14.410
 4630TIP3    H264359   4.412   7.698  14.322
 4631TIP3   OH264360   5.348   8.025  15.439
 4631TIP3    H164361   5.267   8.061  15.476
 4631TIP3    H264362   5.318   7.971  15.365
 4632TIP3   OH264363   4.114   7.603  14.890
 4632TIP3    H164364   4.087   7.605  14.798
 4632TIP3    H264365   4.111   7.510  14.913
 4633TIP3   OH264366   4.535   7.818  15.705
 4633TIP3    H164367   4.570   7.754  15.643
 4633TIP3    H264368   4.478   7.874  15.652
 4634TIP3   OH264369   4.485   7.868  15.337
 4634TIP3    H164370   4.528   7.925  15.273
 4634TIP3    H264371   4.393   7.869  15.312
 4635TIP3   OH264372   4.506   7.601  15.395
 4635TIP3    H164373   4.495   7.693  15.373
 4635TIP3    H264374   4.433   7.557  15.351
 4636TIP3   OH264375   4.754   8.085  15.757
 4636TIP3    H164376   4.688   8.072  15.825
 4636TIP3    H264377   4.702   8.095  15.677
 4637TIP3   OH264378   4.958   7.930  15.657
 4637TIP3    H164379   4.887   7.981  15.696
 4637TIP3    H264380   5.015   7.908  15.732
 4638TIP3   OH264381   5.136   7.902  15.869
 4638TIP3    H164382   5.218   7.855  15.884
 4638TIP3    H264383   5.100   7.917  15.956
 4639TIP3   OH264384   4.585   7.540  15.652
 4639TIP3    H164385   4.532   7.469  15.689
 4639TIP3    H264386   4.557   7.545  15.561
 4640TIP3   OH264387   4.664   7.654  15.904
 4640TIP3    H164388   4.666   7.587  15.836
 4640TIP3    H264389   4.619   7.728  15.863
 4641TIP3   OH264390   5.342   8.045  14.455
 4641TIP3    H164391   5.358   7.962  14.500
 4641TIP3    H264392   5.411   8.050  14.389
 4642TIP3   OH264393   5.457   0.037  15.125
 4642TIP3    H164394   5.407   0.035  15.043
 4642TIP3    H264395   5.411   0.102  15.179
 4643TIP3   OH264396   3.805   8.061  15.677
 4643TIP3    H164397   3.847   7.986  15.633
 4643TIP3    H264398   3.744   8.096  15.611
 4644TIP3   OH264399   5.574   7.594  15.842
 4644TIP3    H164400   5.566   7.551  15.757
 4644TIP3    H264401   5.506   7.661  15.841
 4645TIP3   OH264402   5.355   7.794  14.578
 4645TIP3    H164403   5.278   7.777  14.632
 4645TIP3    H264404   5.361   7.717  14.521
 4646TIP3   OH264405   3.980   7.848  14.931
 4646TIP3    H164406   4.027   7.765  14.928
 4646TIP3    H264407   4.037   7.910  14.884
 4647TIP3   OH264408   4.783   7.787  14.911
 4647TIP3    H164409   4.727   7.710  14.920
 4647TIP3    H264410   4.812   7.783  14.820
 4648TIP3   OH264411   5.597   7.783  14.738
 4648TIP3    H164412   5.607   7.692  14.710
 4648TIP3    H264413   5.513   7.811  14.703
 4649TIP3   OH264414   4.024   7.633  14.613
 4649TIP3    H164415   4.018   7.643  14.518
 4649TIP3    H264416   3.992   7.544  14.629
 4650TIP3   OH264417   4.568   7.634  14.683
 4650TIP3    H164418   4.635   7.615  14.617
 4650TIP3    H264419   4.595   7.583  14.759
 4651TIP3   OH264420   4.092   7.730  14.331
 4651TIP3    H164421   4.066   7.766  14.246
 4651TIP3    H264422   4.188   7.730  14.328
 4652TIP3   OH264423   4.686   7.692  14.367
 4652TIP3    H164424   4.631   7.664  14.294
 4652TIP3    H264425   4.673   7.787  14.372
 4653TIP3   OH264426   4.313   7.640  15.794
 4653TIP3    H164427   4.385   7.682  15.748
 4653TIP3    H264428   4.335   7.547  15.794
 4654TIP3   OH264429   7.108   7.933  15.058
 4654TIP3    H164430   7.041   7.907  15.121
 4654TIP3    H264431   7.087   7.885  14.978
 4655TIP3   OH264432   6.985   7.937  14.495
 4655TIP3    H164433   7.020   7.852  14.520
 4655TIP3    H264434   7.041   7.966  14.423
 4656TIP3   OH264435   7.103   8.105  15.510
 4656TIP3    H164436   7.154   8.088  15.589
 4656TIP3    H264437   7.027   8.047  15.517
 4657TIP3   OH264438   7.018   7.804  14.829
 4657TIP3    H164439   6.947   7.740  14.829
 4657TIP3    H264440   7.077   7.775  14.759
 4658TIP3   OH264441   7.015   7.903  15.315
 4658TIP3    H164442   6.922   7.922  15.316
 4658TIP3    H264443   7.021   7.808  15.332
 4659TIP3   OH264444   6.460   7.598  14.938
 4659TIP3    H164445   6.423   7.510  14.933
 4659TIP3    H264446   6.420   7.645  14.865
 4660TIP3   OH264447   7.202   7.553  14.345
 4660TIP3    H164448   7.113   7.523  14.361
 4660TIP3    H264449   7.196   7.606  14.266
 4661TIP3   OH264450   6.655   7.661  15.426
 4661TIP3    H164451   6.695   7.574  15.426
 4661TIP3    H264452   6.578   7.652  15.481
 4662TIP3   OH264453   6.861   8.002  15.606
 4662TIP3    H164454   6.907   8.044  15.680
 4662TIP3    H264455   6.775   8.043  15.606
 4663TIP3   OH264456   5.826   7.939  14.718
 4663TIP3    H164457   5.754   7.884  14.748
 4663TIP3    H264458   5.802   7.965  14.630
 4664TIP3   OH264459   6.829   7.900  15.087
 4664TIP3    H164460   6.780   7.892  15.169
 4664TIP3    H264461   6.775   7.854  15.022
 4665TIP3   OH264462   6.867   7.971  14.146
 4665TIP3    H164463   6.846   7.937  14.059
 4665TIP3    H264464   6.909   8.055  14.129
 4666TIP3   OH264465   6.747   7.906  15.356
 4666TIP3    H164466   6.762   7.939  15.444
 4666TIP3    H264467   6.705   7.821  15.368
 4667TIP3   OH264468   6.766   7.814  14.375
 4667TIP3    H164469   6.761   7.837  14.282
 4667TIP3    H264470   6.832   7.874  14.410
 4668TIP3   OH264471   6.660   7.745  14.628
 4668TIP3    H164472   6.564   7.746  14.623
 4668TIP3    H264473   6.689   7.761  14.539
 4669TIP3   OH264474   6.966   7.752  15.619
 4669TIP3    H164475   6.916   7.833  15.606
 4669TIP3    H264476   6.966   7.710  15.533
 4670TIP3   OH264477   6.983   7.768  15.928
 4670TIP3    H164478   6.987   7.675  15.903
 4670TIP3    H264479   6.904   7.801  15.886
 4671TIP3   OH264480   6.440   7.649  15.610
 4671TIP3    H164481   6.486   7.577  15.653
 4671TIP3    H264482   6.349   7.641  15.639
 4672TIP3   OH264483   7.204   7.992  13.935
 4672TIP3    H164484   7.245   7.906  13.931
 4672TIP3    H264485   7.168   8.006  13.847
 4673TIP3   OH264486   7.168   8.023  14.314
 4673TIP3    H164487   7.179   7.943  14.262
 4673TIP3    H264488   7.247   8.074  14.296
 4674TIP3   OH264489   6.903   0.015  15.044
 4674TIP3    H164490   6.898   8.063  15.051
 4674TIP3    H264491   6.812   0.044  15.058
 4675TIP3   OH264492   7.423   7.737  15.863
 4675TIP3    H164493   7.423   7.714  15.956
 4675TIP3    H264494   7.458   7.660  15.819
 4676TIP3   OH264495   7.107   7.705  14.580
 4676TIP3    H164496   7.195   7.679  14.554
 4676TIP3    H264497   7.049   7.647  14.529
 4677TIP3   OH264498   7.193   7.867  15.741
 4677TIP3    H164499   7.113   7.818  15.720
 4677TIP3    H264500   7.252   7.802  15.777
 4678TIP3   OH264501   7.201   7.780  14.180
 4678TIP3    H164502   7.119   7.780  14.130
 4678TIP3    H264503   7.269   7.766  14.114
 4679TIP3   OH264504   5.592   7.604  15.255
 4679TIP3    H164505   5.606   7.648  15.339
 4679TIP3    H264506   5.555   7.673  15.198
 4680TIP3   OH264507   6.987   7.637  15.365
 4680TIP3    H164508   6.913   7.577  15.352
 4680TIP3    H264509   7.059   7.596  15.318
 4681TIP3   OH264510   6.660   7.791  14.907
 4681TIP3    H164511   6.595   7.725  14.929
 4681TIP3    H264512   6.666   7.787  14.811
 4682TIP3   OH264513   7.097   7.518  14.885
 4682TIP3    H164514   7.161   7.578  14.848
 4682TIP3    H264515   7.016   7.534  14.836
 4683TIP3   OH264516   6.857   7.591  14.767
 4683TIP3    H164517   6.789   7.626  14.710
 4683TIP3    H264518   6.825   7.505  14.794
 4684TIP3   OH264519   6.927   7.583  14.403
 4684TIP3    H164520   6.865   7.653  14.382
 4684TIP3    H264521   6.880   7.502  14.380
 4685TIP3   OH264522   6.001   7.736  15.616
 4685TIP3    H164523   5.989   7.694  15.531
 4685TIP3    H264524   6.064   7.680  15.662
 4686TIP3   OH264525   6.182   7.586  15.769
 4686TIP3    H164526   6.224   7.501  15.784
 4686TIP3    H264527   6.111   7.589  15.832
 4687TIP3   OH264528   6.938   7.518  15.810
 4687TIP3    H164529   6.875   7.534  15.740
 4687TIP3    H264530   6.998   7.453  15.774
 4688TIP3   OH264531   0.097   8.084  14.903
 4688TIP3    H164532   0.051   8.099  14.820
 4688TIP3    H264533   0.188   8.068  14.877
 4689TIP3   OH264534   0.146   7.940  15.281
 4689TIP3    H164535   0.195   7.944  15.198
 4689TIP3    H264536   0.111   7.851  15.284
 4690TIP3   OH264537   8.123   0.013  15.164
 4690TIP3    H164538   0.039   0.045  15.097
 4690TIP3    H264539   8.054   8.113  15.114
 4691TIP3   OH264540   8.020   7.529  15.127
 4691TIP3    H164541   7.989   7.485  15.048
 4691TIP3    H264542   8.034   7.620  15.100
 4692TIP3   OH264543   7.559   7.984  14.443
 4692TIP3    H164544   7.500   7.911  14.423
 4692TIP3    H264545   7.532   8.053  14.382
 4693TIP3   OH264546   7.546   0.057  14.277
 4693TIP3    H164547   7.591   0.129  14.233
 4693TIP3    H264548   7.504   0.008  14.207
 4694TIP3   OH264549   7.815   7.931  14.465
 4694TIP3    H164550   7.720   7.943  14.456
 4694TIP3    H264551   7.832   7.846  14.425
 4695TIP3   OH264552   8.008   7.448  14.549
 4695TIP3    H164553   7.974   7.366  14.587
 4695TIP3    H264554   7.929   7.497  14.526
 4696TIP3   OH264555   7.712   7.998  15.496
 4696TIP3    H164556   7.685   7.973  15.585
 4696TIP3    H264557   7.732   7.914  15.454
 4697TIP3   OH264558   0.317   7.866  14.247
 4697TIP3    H164559   0.289   7.957  14.235
 4697TIP3    H264560   0.368   7.847  14.168
 4698TIP3   OH264561   7.950   7.405  14.898
 4698TIP3    H164562   7.938   7.396  14.803
 4698TIP3    H264563   7.897   7.335  14.936
 4699TIP3   OH264564   7.667   7.831  15.727
 4699TIP3    H164565   7.728   7.758  15.740
 4699TIP3    H264566   7.589   7.806  15.777
 4700TIP3   OH264567   7.288   8.117  15.728
 4700TIP3    H164568   7.345   8.132  15.804
 4700TIP3    H264569   7.253   8.029  15.741
 4701TIP3   OH264570   7.787   8.090  14.677
 4701TIP3    H164571   7.781   8.051  14.590
 4701TIP3    H264572   7.879   8.081  14.701
 4702TIP3   OH264573   7.402   7.767  14.402
 4702TIP3    H164574   7.326   7.754  14.345
 4702TIP3    H264575   7.445   7.682  14.406
 4703TIP3   OH264576   7.202   7.514  15.240
 4703TIP3    H164577   7.248   7.499  15.322
 4703TIP3    H264578   7.263   7.487  15.172
 4704TIP3   OH264579   7.733   7.484  14.513
 4704TIP3    H164580   7.667   7.463  14.580
 4704TIP3    H264581   7.725   7.413  14.450
 4705TIP3   OH264582   7.779   7.692  14.346
 4705TIP3    H164583   7.815   7.652  14.267
 4705TIP3    H264584   7.756   7.619  14.403
 4706TIP3   OH264585   7.899   7.597  14.111
 4706TIP3    H164586   7.889   7.539  14.035
 4706TIP3    H264587   7.972   7.654  14.088
 4707TIP3   OH264588   7.584   7.535  15.775
 4707TIP3    H164589   7.604   7.535  15.681
 4707TIP3    H264590   7.669   7.543  15.818
 4708TIP3   OH264591   8.075   7.510  15.963
 4708TIP3    H164592   0.015   7.508  16.007
 4708TIP3    H264593   8.062   7.421  15.930
 4709TIP3   OH264594   1.024   0.786  16.016
 4709TIP3    H164595   1.097   0.823  16.065
 4709TIP3    H264596   1.045   0.692  16.010
 4710TIP3   OH264597   1.245   0.877  16.170
 4710TIP3    H164598   1.267   0.952  16.225
 4710TIP3    H264599   1.308   0.880  16.098
 4711TIP3   OH264600   1.432   0.937  15.980
 4711TIP3    H164601   1.411   0.939  15.886
 4711TIP3    H264602   1.513   0.987  15.988
 4712TIP3   OH264603   1.065   0.379  16.071
 4712TIP3    H164604   1.009   0.368  16.148
 4712TIP3    H264605   1.014   0.339  15.999
 4713TIP3   OH264606   0.655   0.412  15.930
 4713TIP3    H164607   0.668   0.417  16.025
 4713TIP3    H264608   0.702   0.488  15.896
 4714TIP3   OH264609   0.286   0.530  16.232
 4714TIP3    H164610   0.205   0.577  16.248
 4714TIP3    H264611   0.330   0.528  16.318
 4715TIP3   OH264612   0.588   0.688  15.984
 4715TIP3    H164613   0.561   0.685  15.892
 4715TIP3    H264614   0.654   0.758  15.988
 4716TIP3   OH264615   1.072   1.311  16.097
 4716TIP3    H164616   1.043   1.383  16.153
 4716TIP3    H264617   1.010   1.311  16.024
 4717TIP3   OH264618   0.877   1.389  15.912
 4717TIP3    H164619   0.860   1.322  15.846
 4717TIP3    H264620   0.797   1.394  15.964
 4718TIP3   OH264621   0.683   1.432  16.113
 4718TIP3    H164622   0.752   1.449  16.178
 4718TIP3    H264623   0.631   1.512  16.114
 4719TIP3   OH264624   0.957   1.554  16.191
 4719TIP3    H164625   0.896   1.613  16.235
 4719TIP3    H264626   0.966   1.591  16.103
 4720TIP3   OH264627   0.761   1.730  16.261
 4720TIP3    H164628   0.794   1.797  16.200
 4720TIP3    H264629   0.670   1.719  16.236
 4721TIP3   OH264630   0.625   0.417  16.201
 4721TIP3    H164631   0.564   0.369  16.257
 4721TIP3    H264632   0.711   0.402  16.240
 4722TIP3   OH264633   0.405   1.381  16.161
 4722TIP3    H164634   0.409   1.477  16.158
 4722TIP3    H264635   0.495   1.353  16.144
 4723TIP3   OH264636   0.297   0.665  15.962
 4723TIP3    H164637   0.323   0.756  15.950
 4723TIP3    H264638   0.207   0.669  15.994
 4724TIP3   OH264639   1.008   1.634  15.931
 4724TIP3    H164640   0.954   1.561  15.900
 4724TIP3    H264641   1.094   1.594  15.946
 4725TIP3   OH264642   0.572   1.021  16.102
 4725TIP3    H164643   0.623   1.075  16.162
 4725TIP3    H264644   0.637   0.979  16.047
 4726TIP3   OH264645   0.774   0.888  15.950
 4726TIP3    H164646   0.780   0.909  15.857
 4726TIP3    H264647   0.862   0.859  15.975
 4727TIP3   OH264648   1.669   1.075  15.936
 4727TIP3    H164649   1.686   1.032  15.852
 4727TIP3    H264650   1.676   1.169  15.916
 4728TIP3   OH264651   0.875   1.859  16.029
 4728TIP3    H164652   0.916   1.782  15.989
 4728TIP3    H264653   0.850   1.914  15.955
 4729TIP3   OH264654   1.855   0.949  16.105
 4729TIP3    H164655   1.796   1.002  16.050
 4729TIP3    H264656   1.842   0.983  16.193
 4730TIP3   OH264657   1.694   0.669  16.005
 4730TIP3    H164658   1.755   0.742  16.006
 4730TIP3    H264659   1.621   0.699  15.951
 4731TIP3   OH264660   0.197   0.120  16.122
 4731TIP3    H164661   0.245   0.178  16.064
 4731TIP3    H264662   0.155   0.177  16.186
 4732TIP3   OH264663   0.402   0.280  16.018
 4732TIP3    H164664   0.441   0.242  15.939
 4732TIP3    H264665   0.441   0.229  16.089
 4733TIP3   OH264666   0.399   1.876  15.880
 4733TIP3    H164667   0.340   1.807  15.849
 4733TIP3    H264668   0.440   1.839  15.959
 4734TIP3   OH264669   3.651   1.488  16.018
 4734TIP3    H164670   3.674   1.580  16.018
 4734TIP3    H264671   3.734   1.442  16.028
 4735TIP3   OH264672   3.214   1.738  16.117
 4735TIP3    H164673   3.259   1.699  16.043
 4735TIP3    H264674   3.269   1.716  16.193
 4736TIP3   OH264675   2.093   0.874  15.988
 4736TIP3    H164676   2.156   0.935  16.026
 4736TIP3    H264677   2.008   0.901  16.023
 4737TIP3   OH264678   2.246   1.049  16.142
 4737TIP3    H164679   2.200   1.016  16.219
 4737TIP3    H264680   2.194   1.126  16.115
 4738TIP3   OH264681   2.376   0.302  16.137
 4738TIP3    H164682   2.347   0.378  16.086
 4738TIP3    H264683   2.371   0.229  16.075
 4739TIP3   OH264684   2.133   0.608  16.027
 4739TIP3    H164685   2.119   0.700  16.004
 4739TIP3    H264686   2.166   0.569  15.946
 4740TIP3   OH264687   3.391   1.588  15.960
 4740TIP3    H164688   3.476   1.547  15.977
 4740TIP3    H264689   3.396   1.620  15.871
 4741TIP3   OH264690   2.525   1.212  15.847
 4741TIP3    H164691   2.520   1.133  15.900
 4741TIP3    H264692   2.557   1.182  15.761
 4742TIP3   OH264693   2.495   1.002  16.031
 4742TIP3    H164694   2.406   1.015  16.064
 4742TIP3    H264695   2.550   1.002  16.109
 4743TIP3   OH264696   3.520   1.002  15.966
 4743TIP3    H164697   3.543   0.975  15.877
 4743TIP3    H264698   3.504   1.096  15.958
 4744TIP3   OH264699   2.078   1.246  16.044
 4744TIP3    H164700   2.124   1.312  15.993
 4744TIP3    H264701   2.023   1.200  15.981
 4745TIP3   OH264702   3.714   0.992  16.161
 4745TIP3    H164703   3.642   0.981  16.099
 4745TIP3    H264704   3.750   1.079  16.142
 4746TIP3   OH264705   2.247   1.786  15.988
 4746TIP3    H164706   2.166   1.737  15.978
 4746TIP3    H264707   2.312   1.736  15.937
 4747TIP3   OH264708   5.482   0.055  16.177
 4747TIP3    H164709   5.392   0.081  16.193
 4747TIP3    H264710   5.517   0.124  16.120
 4748TIP3   OH264711   5.579   1.505  15.955
 4748TIP3    H164712   5.586   1.596  15.982
 4748TIP3    H264713   5.667   1.469  15.969
 4749TIP3   OH264714   5.108   1.789  16.062
 4749TIP3    H164715   5.158   1.718  16.023
 4749TIP3    H264716   5.116   1.776  16.156
 4750TIP3   OH264717   4.380   0.631  16.093
 4750TIP3    H164718   4.288   0.640  16.066
 4750TIP3    H264719   4.428   0.684  16.029
 4751TIP3   OH264720   3.956   0.861  16.069
 4751TIP3    H164721   4.007   0.935  16.100
 4751TIP3    H264722   3.865   0.884  16.089
 4752TIP3   OH264723   5.608   1.766  16.034
 4752TIP3    H164724   5.636   1.836  15.975
 4752TIP3    H264725   5.571   1.813  16.110
 4753TIP3   OH264726   4.618   1.382  15.898
 4753TIP3    H164727   4.604   1.310  15.837
 4753TIP3    H264728   4.530   1.412  15.921
 4754TIP3   OH264729   4.401   1.372  16.213
 4754TIP3    H164730   4.477   1.316  16.196
 4754TIP3    H264731   4.426   1.426  16.288
 4755TIP3   OH264732   4.074   1.087  16.169
 4755TIP3    H164733   4.095   1.100  16.261
 4755TIP3    H264734   4.105   1.166  16.125
 4756TIP3   OH264735   4.175   1.325  16.057
 4756TIP3    H164736   4.249   1.360  16.106
 4756TIP3    H264737   4.214   1.281  15.981
 4757TIP3   OH264738   4.120   0.652  15.993
 4757TIP3    H164739   4.065   0.726  16.019
 4757TIP3    H264740   4.089   0.628  15.906
 4758TIP3   OH264741   4.784   1.605  15.908
 4758TIP3    H164742   4.725   1.530  15.900
 4758TIP3    H264743   4.863   1.568  15.947
 4759TIP3   OH264744   5.267   1.597  15.944
 4759TIP3    H164745   5.316   1.520  15.971
 4759TIP3    H264746   5.286   1.606  15.851
 4760TIP3   OH264747   4.318   1.171  15.881
 4760TIP3    H164748   4.347   1.113  15.951
 4760TIP3    H264749   4.392   1.177  15.822
 4761TIP3   OH264750   4.428   1.010  16.077
 4761TIP3    H164751   4.436   0.979  16.167
 4761TIP3    H264752   4.472   0.943  16.024
 4762TIP3   OH264753   4.549   0.796  15.944
 4762TIP3    H164754   4.542   0.834  15.857
 4762TIP3    H264755   4.639   0.764  15.949
 4763TIP3   OH264756   3.897   1.342  16.042
 4763TIP3    H164757   3.991   1.355  16.039
 4763TIP3    H264758   3.877   1.285  15.969
 4764TIP3   OH264759   5.258   0.283  15.869
 4764TIP3    H164760   5.349   0.275  15.839
 4764TIP3    H264761   5.217   0.200  15.844
 4765TIP3   OH264762   5.583   0.255  16.021
 4765TIP3    H164763   5.565   0.233  15.929
 4765TIP3    H264764   5.610   0.347  16.018
 4766TIP3   OH264765   4.818   1.806  16.103
 4766TIP3    H164766   4.912   1.816  16.088
 4766TIP3    H264767   4.790   1.744  16.035
 4767TIP3   OH264768   7.045   0.908  16.141
 4767TIP3    H164769   7.100   0.927  16.216
 4767TIP3    H264770   7.100   0.925  16.065
 4768TIP3   OH264771   7.425   1.580  16.011
 4768TIP3    H164772   7.475   1.661  16.024
 4768TIP3    H264773   7.492   1.512  16.002
 4769TIP3   OH264774   7.033   1.795  16.020
 4769TIP3    H164775   7.080   1.719  15.987
 4769TIP3    H264776   7.041   1.789  16.115
 4770TIP3   OH264777   6.621   0.361  16.101
 4770TIP3    H164778   6.540   0.411  16.110
 4770TIP3    H264779   6.614   0.319  16.016
 4771TIP3   OH264780   6.411   0.442  15.882
 4771TIP3    H164781   6.389   0.457  15.974
 4771TIP3    H264782   6.347   0.495  15.833
 4772TIP3   OH264783   5.775   0.460  16.230
 4772TIP3    H164784   5.819   0.521  16.171
 4772TIP3    H264785   5.760   0.510  16.310
 4773TIP3   OH264786   6.181   0.649  16.041
 4773TIP3    H164787   6.087   0.658  16.058
 4773TIP3    H264788   6.187   0.649  15.945
 4774TIP3   OH264789   6.889   0.421  16.059
 4774TIP3    H164790   6.801   0.393  16.085
 4774TIP3    H264791   6.913   0.490  16.121
 4775TIP3   OH264792   6.972   0.645  16.194
 4775TIP3    H164793   7.040   0.623  16.258
 4775TIP3    H264794   6.989   0.736  16.171
 4776TIP3   OH264795   7.471   0.680  16.166
 4776TIP3    H164796   7.393   0.654  16.116
 4776TIP3    H264797   7.457   0.772  16.186
 4777TIP3   OH264798   5.831   0.904  15.950
 4777TIP3    H164799   5.869   0.979  15.996
 4777TIP3    H264800   5.737   0.911  15.964
 4778TIP3   OH264801   7.575   1.804  16.088
 4778TIP3    H164802   7.547   1.894  16.068
 4778TIP3    H264803   7.547   1.790  16.179
 4779TIP3   OH264804   6.400   1.452  15.875
 4779TIP3    H164805   6.347   1.421  15.802
 4779TIP3    H264806   6.369   1.401  15.950
 4780TIP3   OH264807   5.909   1.124  16.101
 4780TIP3    H164808   5.898   1.071  16.180
 4780TIP3    H264809   5.988   1.175  16.118
 4781TIP3   OH264810   6.278   1.759  16.239
 4781TIP3    H164811   6.329   1.786  16.163
 4781TIP3    H264812   6.329   1.789  16.314
 4782TIP3   OH264813   6.376   0.498  16.153
 4782TIP3    H164814   6.305   0.554  16.124
 4782TIP3    H264815   6.362   0.486  16.247
 4783TIP3   OH264816   5.898   0.654  16.057
 4783TIP3    H164817   5.873   0.737  16.016
 4783TIP3    H264818   5.882   0.589  15.989
 4784TIP3   OH264819   6.639   1.581  15.905
 4784TIP3    H164820   6.553   1.542  15.890
 4784TIP3    H264821   6.697   1.507  15.924
 4785TIP3   OH264822   7.175   1.585  15.904
 4785TIP3    H164823   7.260   1.576  15.947
 4785TIP3    H264824   7.196   1.609  15.813
 4786TIP3   OH264825   6.182   1.191  15.894
 4786TIP3    H164826   6.121   1.121  15.869
 4786TIP3    H264827   6.212   1.228  15.811
 4787TIP3   OH264828   7.238   1.005  15.967
 4787TIP3    H164829   7.271   0.998  15.877
 4787TIP3    H264830   7.229   1.099  15.982
 4788TIP3   OH264831   6.441   1.859  16.037
 4788TIP3    H164832   6.502   1.801  15.990
 4788TIP3    H264833   6.440   1.939  15.984
 4789TIP3   OH264834   5.822   1.372  15.984
 4789TIP3    H164835   5.909   1.402  16.010
 4789TIP3    H264836   5.826   1.277  15.992
 4790TIP3   OH264837   7.381   0.943  16.194
 4790TIP3    H164838   7.325   0.946  16.117
 4790TIP3    H264839   7.457   0.996  16.171
 4791TIP3   OH264840   7.232   0.673  16.025
 4791TIP3    H164841   7.212   0.707  15.938
 4791TIP3    H264842   7.205   0.581  16.022
 4792TIP3   OH264843   7.168   0.406  16.042
 4792TIP3    H164844   7.197   0.379  16.129
 4792TIP3    H264845   7.073   0.393  16.043
 4793TIP3   OH264846   5.826   0.146  16.126
 4793TIP3    H164847   5.820   0.148  16.030
 4793TIP3    H264848   5.740   0.172  16.156
 4794TIP3   OH264849   5.906   0.401  15.939
 4794TIP3    H164850   5.875   0.316  15.909
 4794TIP3    H264851   5.960   0.381  16.016
 4795TIP3   OH264852   0.040   0.645  16.033
 4795TIP3    H164853   0.024   0.551  16.046
 4795TIP3    H264854   8.124   0.670  15.963
 4796TIP3   OH264855   7.590   1.086  16.108
 4796TIP3    H164856   7.664   1.132  16.149
 4796TIP3    H264857   7.588   1.120  16.018
 4797TIP3   OH264858   7.807   1.184  16.256
 4797TIP3    H164859   7.823   1.279  16.250
 4797TIP3    H264860   7.865   1.146  16.190
 4798TIP3   OH264861   0.091   0.318  16.296
 4798TIP3    H164862   0.011   0.335  16.246
 4798TIP3    H264863   0.150   0.390  16.274
 4799TIP3   OH264864   7.878   1.269  16.001
 4799TIP3    H164865   7.938   1.339  16.028
 4799TIP3    H264866   7.877   1.275  15.905
 4800TIP3   OH264867   7.809   0.534  16.015
 4800TIP3    H164868   7.810   0.624  16.048
 4800TIP3    H264869   7.743   0.534  15.946
 4801TIP3   OH264870   7.942   1.009  15.877
 4801TIP3    H164871   7.899   1.089  15.847
 4801TIP3    H264872   7.973   1.030  15.965
 4802TIP3   OH264873   7.635   1.396  15.982
 4802TIP3    H164874   7.716   1.353  16.010
 4802TIP3    H264875   7.588   1.329  15.933
 4803TIP3   OH264876   7.875   1.782  15.863
 4803TIP3    H164877   7.813   1.811  15.930
 4803TIP3    H264878   7.847   1.693  15.842
 4804TIP3   OH264879   1.081   2.641  16.042
 4804TIP3    H164880   1.112   2.624  16.131
 4804TIP3    H264881   1.146   2.599  15.986
 4805TIP3   OH264882   1.264   2.884  16.126
 4805TIP3    H164883   1.316   2.863  16.204
 4805TIP3    H264884   1.324   2.873  16.053
 4806TIP3   OH264885   1.427   2.832  15.920
 4806TIP3    H164886   1.393   2.820  15.832
 4806TIP3    H264887   1.521   2.846  15.908
 4807TIP3   OH264888   1.310   2.490  16.230
 4807TIP3    H164889   1.366   2.424  16.271
 4807TIP3    H264890   1.343   2.497  16.141
 4808TIP3   OH264891   0.999   3.106  16.096
 4808TIP3    H164892   1.064   3.160  16.141
 4808TIP3    H264893   0.915   3.145  16.120
 4809TIP3   OH264894   1.834   3.730  16.064
 4809TIP3    H164895   1.919   3.756  16.100
 4809TIP3    H264896   1.838   3.755  15.972
 4810TIP3   OH264897   0.775   3.290  15.884
 4810TIP3    H164898   0.789   3.219  15.820
 4810TIP3    H264899   0.775   3.246  15.969
 4811TIP3   OH264900   0.756   3.240  16.160
 4811TIP3    H164901   0.743   3.241  16.255
 4811TIP3    H264902   0.727   3.326  16.131
 4812TIP3   OH264903   1.003   3.457  15.907
 4812TIP3    H164904   0.935   3.395  15.881
 4812TIP3    H264905   1.080   3.430  15.857
 4813TIP3   OH264906   1.072   3.176  15.819
 4813TIP3    H164907   1.057   3.154  15.911
 4813TIP3    H264908   0.998   3.137  15.773
 4814TIP3   OH264909   0.845   2.777  15.994
 4814TIP3    H164910   0.817   2.780  15.902
 4814TIP3    H264911   0.900   2.698  15.999
 4815TIP3   OH264912   0.159   3.237  16.069
 4815TIP3    H164913   0.223   3.240  15.998
 4815TIP3    H264914   0.081   3.282  16.034
 4816TIP3   OH264915   1.551   2.228  15.955
 4816TIP3    H164916   1.620   2.213  15.890
 4816TIP3    H264917   1.471   2.235  15.903
 4817TIP3   OH264918   0.335   3.579  15.843
 4817TIP3    H164919   0.323   3.661  15.890
 4817TIP3    H264920   0.428   3.558  15.854
 4818TIP3   OH264921   3.030   2.674  15.973
 4818TIP3    H164922   3.088   2.727  16.027
 4818TIP3    H264923   3.089   2.619  15.921
 4819TIP3   OH264924   3.258   2.779  16.101
 4819TIP3    H164925   3.294   2.769  16.189
 4819TIP3    H264926   3.321   2.734  16.044
 4820TIP3   OH264927   3.239   2.460  16.313
 4820TIP3    H164928   3.311   2.399  16.300
 4820TIP3    H264929   3.226   2.500  16.226
 4821TIP3   OH264930   2.660   3.288  15.859
 4821TIP3    H164931   2.667   3.330  15.773
 4821TIP3    H264932   2.674   3.195  15.842
 4822TIP3   OH264933   2.328   3.232  15.969
 4822TIP3    H164934   2.404   3.286  15.947
 4822TIP3    H264935   2.266   3.248  15.898
 4823TIP3   OH264936   2.778   2.615  15.882
 4823TIP3    H164937   2.763   2.534  15.932
 4823TIP3    H264938   2.860   2.650  15.917
 4824TIP3   OH264939   3.586   2.962  15.927
 4824TIP3    H164940   3.573   2.911  15.847
 4824TIP3    H264941   3.575   3.053  15.900
 4825TIP3   OH264942   2.072   3.177  16.077
 4825TIP3    H164943   2.166   3.190  16.063
 4825TIP3    H264944   2.032   3.200  15.993
 4826TIP3   OH264945   3.721   2.922  16.165
 4826TIP3    H164946   3.663   2.924  16.089
 4826TIP3    H264947   3.771   3.004  16.159
 4827TIP3   OH264948   3.498   2.546  16.015
 4827TIP3    H164949   3.536   2.593  15.940
 4827TIP3    H264950   3.479   2.458  15.980
 4828TIP3   OH264951   3.448   2.295  15.894
 4828TIP3    H164952   3.521   2.288  15.832
 4828TIP3    H264953   3.402   2.211  15.886
 4829TIP3   OH264954   2.251   3.697  15.959
 4829TIP3    H164955   2.179   3.741  16.006
 4829TIP3    H264956   2.293   3.643  16.025
 4830TIP3   OH264957   4.882   2.624  16.086
 4830TIP3    H164958   4.952   2.687  16.104
 4830TIP3    H264959   4.894   2.599  15.995
 4831TIP3   OH264960   5.095   2.786  16.174
 4831TIP3    H164961   5.052   2.871  16.173
 4831TIP3    H264962   5.153   2.786  16.098
 4832TIP3   OH264963   5.445   1.949  16.189
 4832TIP3    H164964   5.356   1.919  16.167
 4832TIP3    H264965   5.465   2.015  16.122
 4833TIP3   OH264966   5.553   3.342  15.927
 4833TIP3    H164967   5.574   3.378  15.841
 4833TIP3    H264968   5.637   3.312  15.961
 4834TIP3   OH264969   5.235   2.811  15.943
 4834TIP3    H164970   5.193   2.840  15.862
 4834TIP3    H264971   5.321   2.853  15.941
 4835TIP3   OH264972   4.710   2.250  16.044
 4835TIP3    H164973   4.711   2.248  16.140
 4835TIP3    H264974   4.733   2.161  16.018
 4836TIP3   OH264975   4.991   2.320  16.062
 4836TIP3    H164976   4.895   2.329  16.062
 4836TIP3    H264977   5.020   2.387  16.124
 4837TIP3   OH264978   5.102   2.498  16.259
 4837TIP3    H164979   5.190   2.463  16.270
 4837TIP3    H264980   5.115   2.589  16.232
 4838TIP3   OH264981   4.852   3.210  16.181
 4838TIP3    H164982   4.798   3.289  16.182
 4838TIP3    H264983   4.839   3.173  16.093
 4839TIP3   OH264984   5.593   2.577  16.168
 4839TIP3    H164985   5.531   2.561  16.097
 4839TIP3    H264986   5.607   2.672  16.166
 4840TIP3   OH264987   3.934   2.831  16.000
 4840TIP3    H164988   4.003   2.863  16.057
 4840TIP3    H264989   3.856   2.828  16.055
 4841TIP3   OH264990   4.607   3.293  15.898
 4841TIP3    H164991   4.696   3.257  15.899
 4841TIP3    H264992   4.555   3.224  15.855
 4842TIP3   OH264993   4.395   3.297  16.202
 4842TIP3    H164994   4.439   3.277  16.285
 4842TIP3    H264995   4.425   3.386  16.180
 4843TIP3   OH264996   4.102   2.940  16.195
 4843TIP3    H164997   4.104   2.963  16.288
 4843TIP3    H264998   4.131   3.019  16.150
 4844TIP3   OH264999   4.693   3.433  16.125
 4844TIP3    H165000   4.621   3.491  16.149
 4844TIP3    H265001   4.661   3.388  16.046
 4845TIP3   OH265002   4.446   3.566  16.141
 4845TIP3    H165003   4.427   3.554  16.048
 4845TIP3    H265004   4.366   3.605  16.177
 4846TIP3   OH265005   4.187   3.178  16.069
 4846TIP3    H165006   4.266   3.225  16.095
 4846TIP3    H265007   4.214   3.130  15.990
 4847TIP3   OH265008   4.285   3.007  15.875
 4847TIP3    H165009   4.301   2.920  15.910
 4847TIP3    H265010   4.367   3.033  15.834
 4848TIP3   OH265011   4.842   3.148  15.911
 4848TIP3    H165012   4.920   3.179  15.865
 4848TIP3    H265013   4.837   3.055  15.889
 4849TIP3   OH265014   5.490   2.922  15.881
 4849TIP3    H165015   5.472   2.884  15.795
 4849TIP3    H265016   5.545   2.998  15.863
 4850TIP3   OH265017   3.910   3.184  16.080
 4850TIP3    H165018   4.004   3.195  16.070
 4850TIP3    H265019   3.879   3.159  15.993
 4851TIP3   OH265020   5.628   2.844  16.109
 4851TIP3    H165021   5.571   2.857  16.033
 4851TIP3    H265022   5.646   2.932  16.141
 4852TIP3   OH265023   5.454   2.540  15.931
 4852TIP3    H165024   5.424   2.578  15.849
 4852TIP3    H265025   5.408   2.457  15.937
 4853TIP3   OH265026   5.333   2.299  15.937
 4853TIP3    H165027   5.395   2.227  15.945
 4853TIP3    H265028   5.261   2.263  15.884
 4854TIP3   OH265029   5.544   2.132  16.015
 4854TIP3    H165030   5.593   2.078  15.952
 4854TIP3    H265031   5.609   2.195  16.046
 4855TIP3   OH265032   4.165   3.624  15.949
 4855TIP3    H165033   4.162   3.627  16.044
 4855TIP3    H265034   4.232   3.559  15.928
 4856TIP3   OH265035   7.028   2.776  16.069
 4856TIP3    H165036   7.015   2.869  16.087
 4856TIP3    H265037   6.978   2.760  15.989
 4857TIP3   OH265038   7.445   3.379  15.989
 4857TIP3    H165039   7.474   3.469  16.007
 4857TIP3    H265040   7.527   3.330  15.976
 4858TIP3   OH265041   6.613   2.264  15.988
 4858TIP3    H165042   6.556   2.293  16.059
 4858TIP3    H265043   6.568   2.188  15.950
 4859TIP3   OH265044   5.713   2.347  16.077
 4859TIP3    H165045   5.697   2.381  15.989
 4859TIP3    H265046   5.676   2.413  16.135
 4860TIP3   OH265047   6.872   2.300  16.091
 4860TIP3    H165048   6.782   2.284  16.064
 4860TIP3    H265049   6.869   2.384  16.137
 4861TIP3   OH265050   6.965   2.542  16.231
 4861TIP3    H165051   7.038   2.481  16.224
 4861TIP3    H265052   6.989   2.616  16.175
 4862TIP3   OH265053   7.078   3.166  16.023
 4862TIP3    H165054   7.090   3.261  16.024
 4862TIP3    H265055   6.991   3.154  15.983
 4863TIP3   OH265056   7.537   3.669  16.031
 4863TIP3    H165057   7.606   3.658  15.966
 4863TIP3    H265058   7.465   3.709  15.982
 4864TIP3   OH265059   6.112   3.106  16.077
 4864TIP3    H165060   6.073   3.121  16.163
 4864TIP3    H265061   6.175   3.178  16.066
 4865TIP3   OH265062   7.168   3.431  15.899
 4865TIP3    H165063   7.254   3.415  15.936
 4865TIP3    H265064   7.185   3.471  15.814
 4866TIP3   OH265065   6.254   2.979  15.867
 4866TIP3    H165066   6.193   3.018  15.929
 4866TIP3    H265067   6.336   2.971  15.914
 4867TIP3   OH265068   6.829   3.133  15.901
 4867TIP3    H165069   6.735   3.129  15.916
 4867TIP3    H265070   6.851   3.048  15.864
 4868TIP3   OH265071   5.817   3.208  15.951
 4868TIP3    H165072   5.901   3.167  15.973
 4868TIP3    H265073   5.779   3.151  15.884
 4869TIP3   OH265074   5.968   3.653  15.941
 4869TIP3    H165075   5.970   3.641  16.036
 4869TIP3    H265076   5.944   3.567  15.906
 4870TIP3   OH265077   8.123   2.357  16.036
 4870TIP3    H165078   8.127   2.444  16.075
 4870TIP3    H265079   0.070   2.325  16.039
 4871TIP3   OH265080   7.686   3.223  15.947
 4871TIP3    H165081   7.771   3.204  15.987
 4871TIP3    H265082   7.661   3.143  15.902
 4872TIP3   OH265083   7.945   2.156  15.993
 4872TIP3    H165084   7.987   2.097  15.931
 4872TIP3    H265085   8.012   2.220  16.015
 4873TIP3   OH265086   1.072   4.616  15.973
 4873TIP3    H165087   1.104   4.615  16.063
 4873TIP3    H265088   1.131   4.558  15.925
 4874TIP3   OH265089   0.246   4.338  16.232
 4874TIP3    H165090   0.260   4.383  16.149
 4874TIP3    H265091   0.224   4.248  16.208
 4875TIP3   OH265092   0.527   4.542  16.106
 4875TIP3    H165093   0.461   4.502  16.049
 4875TIP3    H265094   0.608   4.539  16.055
 4876TIP3   OH265095   1.204   4.285  16.053
 4876TIP3    H165096   1.130   4.280  16.113
 4876TIP3    H265097   1.278   4.312  16.109
 4877TIP3   OH265098   1.412   4.398  16.198
 4877TIP3    H165099   1.493   4.360  16.164
 4877TIP3    H265100   1.419   4.491  16.175
 4878TIP3   OH265101   1.799   4.443  16.220
 4878TIP3    H165102   1.746   4.430  16.142
 4878TIP3    H265103   1.842   4.528  16.205
 4879TIP3   OH265104   0.814   5.096  15.924
 4879TIP3    H165105   0.784   5.031  15.861
 4879TIP3    H265106   0.736   5.118  15.975
 4880TIP3   OH265107   0.272   4.484  15.982
 4880TIP3    H165108   0.254   4.578  15.976
 4880TIP3    H265109   0.206   4.443  15.926
 4881TIP3   OH265110   1.084   5.049  15.949
 4881TIP3    H165111   0.996   5.086  15.945
 4881TIP3    H265112   1.085   4.981  15.882
 4882TIP3   OH265113   0.795   4.589  15.994
 4882TIP3    H165114   0.769   4.598  15.903
 4882TIP3    H265115   0.890   4.600  15.993
 4883TIP3   OH265116   1.726   4.693  15.934
 4883TIP3    H165117   1.754   4.673  15.845
 4883TIP3    H265118   1.699   4.784  15.931
 4884TIP3   OH265119   1.871   4.743  16.163
 4884TIP3    H165120   1.814   4.720  16.090
 4884TIP3    H265121   1.916   4.822  16.134
 4885TIP3   OH265122   1.652   4.432  15.989
 4885TIP3    H165123   1.667   4.523  15.964
 4885TIP3    H265124   1.689   4.381  15.917
 4886TIP3   OH265125   1.754   4.035  15.999
 4886TIP3    H165126   1.805   3.968  15.955
 4886TIP3    H265127   1.818   4.098  16.030
 4887TIP3   OH265128   0.276   3.825  15.939
 4887TIP3    H165129   0.341   3.895  15.945
 4887TIP3    H265130   0.194   3.865  15.968
 4888TIP3   OH265131   0.439   4.058  15.966
 4888TIP3    H165132   0.501   3.997  15.926
 4888TIP3    H265133   0.480   4.144  15.956
 4889TIP3   OH265134   3.660   5.263  15.917
 4889TIP3    H165135   3.645   5.354  15.889
 4889TIP3    H265136   3.735   5.235  15.865
 4890TIP3   OH265137   3.293   5.519  16.078
 4890TIP3    H165138   3.309   5.450  16.015
 4890TIP3    H265139   3.298   5.476  16.164
 4891TIP3   OH265140   3.286   4.757  16.002
 4891TIP3    H165141   3.257   4.762  15.911
 4891TIP3    H265142   3.381   4.750  15.997
 4892TIP3   OH265143   1.939   4.217  16.103
 4892TIP3    H165144   2.006   4.269  16.060
 4892TIP3    H265145   1.898   4.277  16.165
 4893TIP3   OH265146   2.145   4.687  16.053
 4893TIP3    H165147   2.116   4.770  16.016
 4893TIP3    H265148   2.084   4.669  16.124
 4894TIP3   OH265149   2.713   5.171  15.831
 4894TIP3    H165150   2.793   5.120  15.812
 4894TIP3    H265151   2.688   5.143  15.919
 4895TIP3   OH265152   2.592   5.153  16.089
 4895TIP3    H165153   2.601   5.183  16.179
 4895TIP3    H265154   2.548   5.225  16.044
 4896TIP3   OH265155   2.269   5.087  16.027
 4896TIP3    H165156   2.282   5.181  16.040
 4896TIP3    H265157   2.357   5.051  16.017
 4897TIP3   OH265158   2.126   4.405  16.010
 4897TIP3    H165159   2.133   4.500  16.007
 4897TIP3    H265160   2.203   4.374  15.962
 4898TIP3   OH265161   3.366   5.320  15.903
 4898TIP3    H165162   3.433   5.263  15.940
 4898TIP3    H265163   3.401   5.347  15.818
 4899TIP3   OH265164   3.558   4.767  15.957
 4899TIP3    H165165   3.566   4.730  15.869
 4899TIP3    H265166   3.550   4.861  15.943
 4900TIP3   OH265167   2.034   4.931  15.996
 4900TIP3    H165168   2.104   4.995  16.003
 4900TIP3    H265169   2.000   4.942  15.907
 4901TIP3   OH265170   3.724   4.717  16.167
 4901TIP3    H165171   3.650   4.727  16.108
 4901TIP3    H265172   3.798   4.755  16.120
 4902TIP3   OH265173   3.555   4.107  15.936
 4902TIP3    H165174   3.557   4.201  15.918
 4902TIP3    H265175   3.465   4.081  15.918
 4903TIP3   OH265176   2.082   3.886  16.113
 4903TIP3    H165177   2.140   3.937  16.055
 4903TIP3    H265178   2.027   3.951  16.155
 4904TIP3   OH265179   2.250   4.037  15.950
 4904TIP3    H165180   2.299   3.979  15.891
 4904TIP3    H265181   2.301   4.118  15.952
 4905TIP3   OH265182   4.912   4.588  16.022
 4905TIP3    H165183   4.890   4.571  16.113
 4905TIP3    H265184   4.881   4.510  15.975
 4906TIP3   OH265185   5.519   4.416  16.225
 4906TIP3    H165186   5.454   4.390  16.160
 4906TIP3    H265187   5.553   4.500  16.193
 4907TIP3   OH265188   4.620   5.195  15.932
 4907TIP3    H165189   4.567   5.137  15.877
 4907TIP3    H265190   4.583   5.184  16.020
 4908TIP3   OH265191   5.164   5.420  15.898
 4908TIP3    H165192   5.177   5.357  15.970
 4908TIP3    H265193   5.240   5.406  15.841
 4909TIP3   OH265194   4.856   5.060  15.948
 4909TIP3    H165195   4.784   5.122  15.940
 4909TIP3    H265196   4.819   4.976  15.919
 4910TIP3   OH265197   5.644   4.650  16.146
 4910TIP3    H165198   5.663   4.630  16.055
 4910TIP3    H265199   5.728   4.678  16.183
 4911TIP3   OH265200   5.660   3.997  16.109
 4911TIP3    H165201   5.635   3.977  16.019
 4911TIP3    H265202   5.688   4.088  16.107
 4912TIP3   OH265203   3.876   3.808  16.198
 4912TIP3    H165204   3.862   3.842  16.109
 4912TIP3    H265205   3.841   3.719  16.196
 4913TIP3   OH265206   7.410   5.263  16.025
 4913TIP3    H165207   7.428   5.357  16.015
 4913TIP3    H265208   7.492   5.221  15.998
 4914TIP3   OH265209   5.746   4.261  16.185
 4914TIP3    H165210   5.792   4.310  16.117
 4914TIP3    H265211   5.666   4.310  16.201
 4915TIP3   OH265212   6.241   4.377  16.064
 4915TIP3    H165213   6.187   4.359  15.987
 4915TIP3    H265214   6.307   4.439  16.032
 4916TIP3   OH265215   7.481   5.532  15.992
 4916TIP3    H165216   7.535   5.507  15.917
 4916TIP3    H265217   7.502   5.624  16.007
 4917TIP3   OH265218   6.441   5.199  15.884
 4917TIP3    H165219   6.472   5.135  15.819
 4917TIP3    H265220   6.391   5.146  15.947
 4918TIP3   OH265221   6.443   5.144  16.208
 4918TIP3    H165222   6.397   5.135  16.292
 4918TIP3    H265223   6.417   5.229  16.175
 4919TIP3   OH265224   6.657   5.418  16.226
 4919TIP3    H165225   6.562   5.402  16.227
 4919TIP3    H265226   6.671   5.471  16.148
 4920TIP3   OH265227   6.382   5.430  16.205
 4920TIP3    H165228   6.377   5.492  16.132
 4920TIP3    H265229   6.370   5.484  16.283
 4921TIP3   OH265230   6.283   4.108  16.119
 4921TIP3    H165231   6.272   4.200  16.093
 4921TIP3    H265232   6.258   4.106  16.211
 4922TIP3   OH265233   6.118   5.178  16.089
 4922TIP3    H165234   6.131   5.248  16.026
 4922TIP3    H265235   6.155   5.101  16.047
 4923TIP3   OH265236   5.802   4.430  15.970
 4923TIP3    H165237   5.857   4.490  15.920
 4923TIP3    H265238   5.759   4.376  15.903
 4924TIP3   OH265239   6.677   5.339  15.843
 4924TIP3    H165240   6.590   5.304  15.862
 4924TIP3    H265241   6.736   5.263  15.850
 4925TIP3   OH265242   6.267   4.983  15.960
 4925TIP3    H165243   6.328   4.925  16.005
 4925TIP3    H265244   6.252   4.942  15.875
 4926TIP3   OH265245   6.404   4.534  15.909
 4926TIP3    H165246   6.333   4.560  15.850
 4926TIP3    H265247   6.453   4.468  15.860
 4927TIP3   OH265248   6.422   5.648  16.038
 4927TIP3    H165249   6.514   5.626  16.024
 4927TIP3    H265250   6.403   5.716  15.974
 4928TIP3   OH265251   7.163   4.149  15.917
 4928TIP3    H165252   7.241   4.155  15.862
 4928TIP3    H265253   7.168   4.061  15.956
 4929TIP3   OH265254   5.909   3.883  16.156
 4929TIP3    H165255   5.956   3.916  16.079
 4929TIP3    H265256   5.817   3.906  16.139
 4930TIP3   OH265257   6.068   3.997  15.956
 4930TIP3    H165258   6.101   3.933  15.893
 4930TIP3    H265259   6.146   4.032  15.998
 4931TIP3   OH265260   6.682   5.567  16.000
 4931TIP3    H165261   6.764   5.616  15.997
 4931TIP3    H265262   6.692   5.499  15.934
 4932TIP3   OH265263   6.000   5.535  15.920
 4932TIP3    H165264   6.030   5.606  15.977
 4932TIP3    H265265   6.075   5.477  15.913
 4933TIP3   OH265266   7.784   4.646  16.014
 4933TIP3    H165267   7.847   4.700  16.061
 4933TIP3    H265268   7.717   4.707  15.984
 4934TIP3   OH265269   7.895   4.851  16.171
 4934TIP3    H165270   7.823   4.841  16.233
 4934TIP3    H265271   7.880   4.936  16.131
 4935TIP3   OH265272   7.928   5.076  16.001
 4935TIP3    H165273   7.963   5.150  15.951
 4935TIP3    H265274   7.979   5.001  15.971
 4936TIP3   OH265275   7.700   4.393  15.957
 4936TIP3    H165276   7.749   4.474  15.968
 4936TIP3    H265277   7.608   4.420  15.959
 4937TIP3   OH265278   8.084   4.862  15.909
 4937TIP3    H165279   8.087   4.781  15.959
 4937TIP3    H265280   0.021   4.862  15.858
 4938TIP3   OH265281   7.650   5.109  15.940
 4938TIP3    H165282   7.740   5.116  15.973
 4938TIP3    H265283   7.646   5.023  15.899
 4939TIP3   OH265284   7.655   3.917  16.175
 4939TIP3    H165285   7.625   3.840  16.127
 4939TIP3    H265286   7.661   3.986  16.109
 4940TIP3   OH265287   7.905   5.540  15.935
 4940TIP3    H165288   7.900   5.512  16.027
 4940TIP3    H265289   7.941   5.465  15.889
 4941TIP3   OH265290   1.296   6.529  16.160
 4941TIP3    H165291   1.346   6.583  16.221
 4941TIP3    H265292   1.320   6.564  16.074
 4942TIP3   OH265293   1.648   5.783  16.133
 4942TIP3    H165294   1.603   5.851  16.183
 4942TIP3    H265295   1.708   5.832  16.076
 4943TIP3   OH265296   1.317   7.358  16.051
 4943TIP3    H165297   1.366   7.286  16.011
 4943TIP3    H265298   1.342   7.357  16.143
 4944TIP3   OH265299   1.403   6.662  15.936
 4944TIP3    H165300   1.387   6.627  15.848
 4944TIP3    H265301   1.497   6.653  15.949
 4945TIP3   OH265302   0.968   5.959  16.070
 4945TIP3    H165303   1.062   5.959  16.057
 4945TIP3    H265304   0.931   5.932  15.986
 4946TIP3   OH265305   0.598   6.009  15.799
 4946TIP3    H165306   0.567   6.041  15.884
 4946TIP3    H265307   0.615   6.089  15.748
 4947TIP3   OH265308   0.080   6.187  16.166
 4947TIP3    H165309   0.160   6.162  16.121
 4947TIP3    H265310   0.037   6.248  16.107
 4948TIP3   OH265311   1.351   6.262  16.225
 4948TIP3    H165312   1.409   6.239  16.153
 4948TIP3    H265313   1.319   6.350  16.203
 4949TIP3   OH265314   1.124   6.980  16.178
 4949TIP3    H165315   1.081   7.065  16.167
 4949TIP3    H265316   1.128   6.968  16.273
 4950TIP3   OH265317   1.784   6.327  16.230
 4950TIP3    H165318   1.732   6.310  16.152
 4950TIP3    H265319   1.816   6.417  16.219
 4951TIP3   OH265320   1.328   6.931  15.993
 4951TIP3    H165321   1.346   6.837  15.985
 4951TIP3    H265322   1.258   6.936  16.058
 4952TIP3   OH265323   0.779   7.070  15.854
 4952TIP3    H165324   0.740   6.996  15.807
 4952TIP3    H265325   0.760   7.054  15.946
 4953TIP3   OH265326   0.726   7.031  16.119
 4953TIP3    H165327   0.801   7.006  16.173
 4953TIP3    H265328   0.704   7.119  16.147
 4954TIP3   OH265329   0.983   7.221  16.174
 4954TIP3    H165330   0.891   7.239  16.193
 4954TIP3    H265331   1.006   7.284  16.106
 4955TIP3   OH265332   0.717   7.290  16.206
 4955TIP3    H165333   0.729   7.375  16.163
 4955TIP3    H265334   0.670   7.312  16.287
 4956TIP3   OH265335   1.000   7.242  15.845
 4956TIP3    H165336   0.928   7.180  15.852
 4956TIP3    H265337   1.076   7.189  15.822
 4957TIP3   OH265338   1.457   7.158  15.927
 4957TIP3    H165339   1.417   7.077  15.957
 4957TIP3    H265340   1.533   7.130  15.876
 4958TIP3   OH265341   1.688   6.691  15.957
 4958TIP3    H165342   1.699   6.649  15.872
 4958TIP3    H265343   1.673   6.783  15.937
 4959TIP3   OH265344   0.810   7.533  16.105
 4959TIP3    H165345   0.900   7.507  16.083
 4959TIP3    H265346   0.786   7.596  16.038
 4960TIP3   OH265347   1.839   6.599  16.169
 4960TIP3    H165348   1.778   6.616  16.098
 4960TIP3    H265349   1.903   6.669  16.163
 4961TIP3   OH265350   1.672   6.321  15.980
 4961TIP3    H165351   1.712   6.349  15.898
 4961TIP3    H265352   1.627   6.239  15.959
 4962TIP3   OH265353   1.561   6.078  15.926
 4962TIP3    H165354   1.636   6.019  15.933
 4962TIP3    H265355   1.494   6.027  15.880
 4963TIP3   OH265356   1.808   5.951  15.982
 4963TIP3    H165357   1.849   5.951  15.895
 4963TIP3    H265358   1.869   6.000  16.037
 4964TIP3   OH265359   1.056   7.444  16.022
 4964TIP3    H165360   1.150   7.432  16.036
 4964TIP3    H265361   1.037   7.394  15.943
 4965TIP3   OH265362   0.324   7.392  15.921
 4965TIP3    H165363   0.272   7.429  15.992
 4965TIP3    H265364   0.345   7.303  15.950
 4966TIP3   OH265365   3.002   6.517  15.963
 4966TIP3    H165366   3.045   6.557  16.039
 4966TIP3    H265367   3.065   6.453  15.930
 4967TIP3   OH265368   3.215   6.585  16.130
 4967TIP3    H165369   3.244   6.510  16.077
 4967TIP3    H265370   3.277   6.655  16.108
 4968TIP3   OH265371   3.515   5.835  16.175
 4968TIP3    H165372   3.466   5.757  16.150
 4968TIP3    H265373   3.555   5.865  16.093
 4969TIP3   OH265374   3.200   7.329  16.060
 4969TIP3    H165375   3.203   7.263  15.991
 4969TIP3    H265376   3.268   7.392  16.037
 4970TIP3   OH265377   1.950   6.108  16.187
 4970TIP3    H165378   2.004   6.146  16.117
 4970TIP3    H265379   1.887   6.177  16.208
 4971TIP3   OH265380   2.963   6.947  16.163
 4971TIP3    H165381   2.915   7.007  16.221
 4971TIP3    H265382   3.025   6.903  16.221
 4972TIP3   OH265383   3.721   6.269  16.257
 4972TIP3    H165384   3.661   6.263  16.183
 4972TIP3    H265385   3.767   6.352  16.243
 4973TIP3   OH265386   2.092   6.527  15.960
 4973TIP3    H165387   2.155   6.588  16.000
 4973TIP3    H265388   2.019   6.524  16.022
 4974TIP3   OH265389   2.740   7.104  15.898
 4974TIP3    H165390   2.809   7.039  15.886
 4974TIP3    H265391   2.665   7.068  15.850
 4975TIP3   OH265392   2.803   7.235  16.142
 4975TIP3    H165393   2.717   7.259  16.177
 4975TIP3    H265394   2.784   7.183  16.064
 4976TIP3   OH265395   2.047   6.245  15.971
 4976TIP3    H165396   2.083   6.331  15.951
 4976TIP3    H265397   2.009   6.215  15.888
 4977TIP3   OH265398   2.945   7.295  15.875
 4977TIP3    H165399   2.874   7.231  15.875
 4977TIP3    H265400   3.024   7.244  15.857
 4978TIP3   OH265401   2.958   6.943  15.885
 4978TIP3    H165402   2.966   6.921  15.978
 4978TIP3    H265403   2.972   6.860  15.839
 4979TIP3   OH265404   2.729   6.498  15.991
 4979TIP3    H165405   2.692   6.501  15.903
 4979TIP3    H265406   2.824   6.504  15.978
 4980TIP3   OH265407   2.700   7.628  16.160
 4980TIP3    H165408   2.778   7.590  16.120
 4980TIP3    H265409   2.642   7.647  16.087
 4981TIP3   OH265410   3.711   6.537  16.136
 4981TIP3    H165411   3.659   6.471  16.089
 4981TIP3    H265412   3.648   6.607  16.156
 4982TIP3   OH265413   3.578   6.307  16.019
 4982TIP3    H165414   3.614   6.340  15.936
 4982TIP3    H265415   3.510   6.245  15.993
 4983TIP3   OH265416   3.397   6.116  15.908
 4983TIP3    H165417   3.426   6.025  15.916
 4983TIP3    H265418   3.314   6.109  15.860
 4984TIP3   OH265419   3.632   5.919  15.943
 4984TIP3    H165420   3.677   5.848  15.898
 4984TIP3    H265421   3.637   5.993  15.882
 4985TIP3   OH265422   2.925   7.534  16.020
 4985TIP3    H165423   2.947   7.619  15.984
 4985TIP3    H265424   2.917   7.476  15.944
 4986TIP3   OH265425   4.860   6.442  16.035
 4986TIP3    H165426   4.858   6.524  15.985
 4986TIP3    H265427   4.921   6.386  15.987
 4987TIP3   OH265428   5.480   5.736  16.228
 4987TIP3    H165429   5.438   5.655  16.199
 4987TIP3    H265430   5.490   5.787  16.148
 4988TIP3   OH265431   5.187   6.682  15.904
 4988TIP3    H165432   5.188   6.671  15.809
 4988TIP3    H265433   5.279   6.689  15.928
 4989TIP3   OH265434   4.719   6.100  16.037
 4989TIP3    H165435   4.690   6.080  16.126
 4989TIP3    H265436   4.638   6.115  15.988
 4990TIP3   OH265437   4.458   6.087  15.817
 4990TIP3    H165438   4.449   5.998  15.783
 4990TIP3    H265439   4.377   6.131  15.792
 4991TIP3   OH265440   4.979   6.049  16.107
 4991TIP3    H165441   4.894   6.075  16.070
 4991TIP3    H265442   5.016   6.130  16.142
 4992TIP3   OH265443   5.099   6.267  16.234
 4992TIP3    H165444   5.180   6.220  16.254
 4992TIP3    H265445   5.127   6.347  16.190
 4993TIP3   OH265446   5.581   6.331  16.187
 4993TIP3    H165447   5.522   6.320  16.112
 4993TIP3    H265448   5.589   6.426  16.197
 4994TIP3   OH265449   3.929   6.610  15.963
 4994TIP3    H165450   3.995   6.650  16.019
 4994TIP3    H265451   3.864   6.575  16.024
 4995TIP3   OH265452   5.621   7.470  16.085
 4995TIP3    H165453   5.614   7.506  15.997
 4995TIP3    H265454   5.564   7.525  16.138
 4996TIP3   OH265455   4.111   6.729  16.133
 4996TIP3    H165456   4.122   6.814  16.177
 4996TIP3    H265457   4.201   6.702  16.112
 4997TIP3   OH265458   4.564   7.271  16.176
 4997TIP3    H165459   4.539   7.363  16.172
 4997TIP3    H265460   4.523   7.238  16.256
 4998TIP3   OH265461   4.309   6.851  15.887
 4998TIP3    H165462   4.341   6.793  15.956
 4998TIP3    H265463   4.379   6.915  15.875
 4999TIP3   OH265464   4.379   6.659  16.093
 4999TIP3    H165465   4.420   6.668  16.178
 4999TIP3    H265466   4.433   6.595  16.046
 5000TIP3   OH265467   4.578   6.466  16.029
 5000TIP3    H165468   4.558   6.466  15.936
 5000TIP3    H265469   4.671   6.447  16.034
 5001TIP3   OH265470   5.469   6.731  15.939
 5001TIP3    H165471   5.477   6.703  15.847
 5001TIP3    H265472   5.490   6.825  15.936
 5002TIP3   OH265473   4.537   7.565  16.142
 5002TIP3    H165474   4.596   7.575  16.067
 5002TIP3    H265475   4.458   7.612  16.116
 5003TIP3   OH265476   5.572   6.619  16.178
 5003TIP3    H165477   5.520   6.617  16.098
 5003TIP3    H265478   5.601   6.710  16.186
 5004TIP3   OH265479   5.441   6.315  15.949
 5004TIP3    H165480   5.437   6.357  15.864
 5004TIP3    H265481   5.405   6.227  15.935
 5005TIP3   OH265482   5.338   6.070  15.891
 5005TIP3    H165483   5.392   6.001  15.929
 5005TIP3    H265484   5.255   6.027  15.871
 5006TIP3   OH265485   5.534   5.912  16.024
 5006TIP3    H165486   5.569   5.863  15.950
 5006TIP3    H265487   5.599   5.980  16.040
 5007TIP3   OH265488   5.720   6.121  16.054
 5007TIP3    H165489   5.716   6.153  15.964
 5007TIP3    H265490   5.679   6.189  16.106
 5008TIP3   OH265491   6.049   6.999  16.111
 5008TIP3    H165492   6.075   7.090  16.094
 5008TIP3    H265493   6.110   6.947  16.058
 5009TIP3   OH265494   6.216   6.839  15.956
 5009TIP3    H165495   6.167   6.757  15.966
 5009TIP3    H265496   6.227   6.849  15.861
 5010TIP3   OH265497   6.017   7.463  15.960
 5010TIP3    H165498   5.942   7.403  15.956
 5010TIP3    H265499   6.093   7.406  15.949
 5011TIP3   OH265500   7.707   6.129  16.121
 5011TIP3    H165501   7.752   6.050  16.090
 5011TIP3    H265502   7.754   6.201  16.079
 5012TIP3   OH265503   8.099   6.359  16.000
 5012TIP3    H165504   8.011   6.372  16.035
 5012TIP3    H265505   8.085   6.342  15.906
 5013TIP3   OH265506   7.873   6.756  16.122
 5013TIP3    H165507   7.819   6.712  16.187
 5013TIP3    H265508   7.896   6.839  16.163
 5014TIP3   OH265509   8.068   5.957  16.198
 5014TIP3    H165510   8.104   6.045  16.200
 5014TIP3    H265511   8.143   5.900  16.181
 5015TIP3   OH265512   7.936   7.041  16.074
 5015TIP3    H165513   7.975   7.129  16.076
 5015TIP3    H265514   7.994   6.990  16.018
 5016TIP3   OH265515   7.820   6.341  15.977
 5016TIP3    H165516   7.757   6.408  15.950
 5016TIP3    H265517   7.864   6.316  15.896
 5017TIP3   OH265518   8.069   6.848  15.926
 5017TIP3    H165519   8.032   6.778  15.980
 5017TIP3    H265520   0.003   6.809  15.887
 5018TIP3   OH265521   7.743   6.914  15.921
 5018TIP3    H165522   7.797   6.977  15.970
 5018TIP3    H265523   7.753   6.832  15.969
 5019TIP3   OH265524   7.847   5.903  16.036
 5019TIP3    H165525   7.892   5.867  15.959
 5019TIP3    H265526   7.918   5.922  16.098
 5020TIP3   OH265527   7.949   7.274  15.880
 5020TIP3    H165528   7.854   7.272  15.869
 5020TIP3    H265529   7.983   7.222  15.807
 5021TIP3   OH265530   1.726   7.601  16.144
 5021TIP3    H165531   1.633   7.622  16.133
 5021TIP3    H265532   1.770   7.686  16.136
 5022TIP3   OH265533   0.865   7.860  16.140
 5022TIP3    H165534   0.936   7.833  16.198
 5022TIP3    H265535   0.876   7.805  16.063
 5023TIP3   OH265536   0.665   7.942  15.869
 5023TIP3    H165537   0.644   7.953  15.962
 5023TIP3    H265538   0.586   7.969  15.823
 5024TIP3   OH265539   0.290   8.003  16.129
 5024TIP3    H165540   0.259   8.094  16.124
 5024TIP3    H265541   0.358   8.004  16.196
 5025TIP3   OH265542   1.037   7.944  15.869
 5025TIP3    H165543   1.068   7.928  15.958
 5025TIP3    H265544   1.115   7.973  15.821
 5026TIP3   OH265545   0.610   7.953  16.136
 5026TIP3    H165546   0.565   7.900  16.202
 5026TIP3    H265547   0.703   7.931  16.147
 5027TIP3   OH265548   1.654   7.841  15.879
 5027TIP3    H165549   1.725   7.843  15.943
 5027TIP3    H265550   1.652   7.930  15.843
 5028TIP3   OH265551   1.869   7.827  16.056
 5028TIP3    H165552   1.919   7.774  15.994
 5028TIP3    H265553   1.931   7.892  16.088
 5029TIP3   OH265554   0.171   7.512  16.115
 5029TIP3    H165555   0.224   7.589  16.095
 5029TIP3    H265556   0.183   7.497  16.209
 5030TIP3   OH265557   0.372   7.694  16.060
 5030TIP3    H165558   0.435   7.663  15.995
 5030TIP3    H265559   0.421   7.758  16.112
 5031TIP3   OH265560   2.883   7.856  16.025
 5031TIP3    H165561   2.828   7.926  16.061
 5031TIP3    H265562   2.855   7.848  15.934
 5032TIP3   OH265563   2.437   7.981  15.862
 5032TIP3    H165564   2.416   7.902  15.912
 5032TIP3    H265565   2.462   7.949  15.776
 5033TIP3   OH265566   2.018   8.035  16.154
 5033TIP3    H165567   1.999   8.098  16.085
 5033TIP3    H265568   1.958   8.060  16.225
 5034TIP3   OH265569   3.138   7.899  16.112
 5034TIP3    H165570   3.046   7.880  16.097
 5034TIP3    H265571   3.140   7.991  16.138
 5035TIP3   OH265572   3.423   7.938  15.864
 5035TIP3    H165573   3.488   7.891  15.915
 5035TIP3    H265574   3.471   7.973  15.789
 5036TIP3   OH265575   3.653   7.779  15.944
 5036TIP3    H165576   3.699   7.794  15.861
 5036TIP3    H265577   3.719   7.799  16.010
 5037TIP3   OH265578   5.457   7.663  16.218
 5037TIP3    H165579   5.407   7.681  16.298
 5037TIP3    H265580   5.422   7.724  16.153
 5038TIP3   OH265581   4.758   7.856  16.083
 5038TIP3    H165582   4.701   7.915  16.035
 5038TIP3    H265583   4.748   7.771  16.039
 5039TIP3   OH265584   4.562   7.973  15.927
 5039TIP3    H165585   4.492   7.932  15.976
 5039TIP3    H265586   4.556   7.935  15.839
 5040TIP3   OH265587   3.870   7.837  16.097
 5040TIP3    H165588   3.951   7.833  16.046
 5040TIP3    H265589   3.881   7.914  16.153
 5041TIP3   OH265590   5.010   7.971  16.103
 5041TIP3    H165591   4.926   7.927  16.103
 5041TIP3    H265592   4.989   8.063  16.085
 5042TIP3   OH265593   4.223   8.006  15.874
 5042TIP3    H165594   4.167   7.928  15.879
 5042TIP3    H265595   4.240   8.030  15.965
 5043TIP3   OH265596   5.406   7.830  15.899
 5043TIP3    H165597   5.465   7.864  15.967
 5043TIP3    H265598   5.410   7.896  15.830
 5044TIP3   OH265599   4.106   7.759  15.937
 5044TIP3    H165600   4.147   7.730  15.855
 5044TIP3    H265601   4.109   7.683  15.994
 5045TIP3   OH265602   7.210   7.583  16.157
 5045TIP3    H165603   7.153   7.654  16.188
 5045TIP3    H265604   7.297   7.623  16.154
 5046TIP3   OH265605   6.819   8.015  16.020
 5046TIP3    H165606   6.772   7.932  16.034
 5046TIP3    H265607   6.906   7.999  16.057
 5047TIP3   OH265608   7.124   8.000  16.005
 5047TIP3    H165609   7.220   7.997  16.001
 5047TIP3    H265610   7.096   7.912  15.981
 5048TIP3   OH265611   7.409   7.993  15.957
 5048TIP3    H165612   7.407   7.910  15.910
 5048TIP3    H265613   7.487   7.988  16.012
 5049TIP3   OH265614   7.649   7.878  16.091
 5049TIP3    H165615   7.744   7.868  16.093
 5049TIP3    H265616   7.633   7.954  16.148
 5050TIP3   OH265617   0.091   7.957  16.329
 5050TIP3    H165618   0.110   7.930  16.239
 5050TIP3    H265619   0.174   7.993  16.361
 5051TIP3   OH265620   7.470   7.678  16.132
 5051TIP3    H165621   7.521   7.597  16.136
 5051TIP3    H265622   7.536   7.747  16.127
 5052TIP3   OH265623   7.823   7.585  15.888
 5052TIP3    H165624   7.914   7.558  15.901
 5052TIP3    H265625   7.790   7.600  15.976
 5053TIP3   OH265626   1.192   0.916  16.930
 5053TIP3    H165627   1.132   0.982  16.966
 5053TIP3    H265628   1.158   0.900  16.842
 5054TIP3   OH265629   1.061   0.918  17.304
 5054TIP3    H165630   1.089   0.863  17.376
 5054TIP3    H265631   1.012   0.860  17.246
 5055TIP3   OH265632   0.939   1.169  17.313
 5055TIP3    H165633   0.974   1.084  17.286
 5055TIP3    H265634   1.004   1.204  17.374
 5056TIP3   OH265635   1.209   0.579  17.279
 5056TIP3    H165636   1.238   0.488  17.286
 5056TIP3    H265637   1.239   0.607  17.193
 5057TIP3   OH265638   0.533   0.477  17.090
 5057TIP3    H165639   0.577   0.559  17.068
 5057TIP3    H265640   0.523   0.432  17.006
 5058TIP3   OH265641   0.708   0.812  17.134
 5058TIP3    H165642   0.794   0.771  17.144
 5058TIP3    H265643   0.677   0.783  17.048
 5059TIP3   OH265644   0.473   0.379  17.444
 5059TIP3    H165645   0.491   0.468  17.414
 5059TIP3    H265646   0.407   0.390  17.512
 5060TIP3   OH265647   0.696   1.132  17.428
 5060TIP3    H165648   0.643   1.204  17.395
 5060TIP3    H265649   0.781   1.144  17.386
 5061TIP3   OH265650   1.106   0.902  16.673
 5061TIP3    H165651   1.028   0.957  16.669
 5061TIP3    H265652   1.169   0.944  16.615
 5062TIP3   OH265653   1.061   0.799  16.367
 5062TIP3    H165654   1.118   0.812  16.443
 5062TIP3    H265655   1.116   0.819  16.292
 5063TIP3   OH265656   1.804   0.903  17.488
 5063TIP3    H165657   1.721   0.950  17.487
 5063TIP3    H265658   1.859   0.948  17.424
 5064TIP3   OH265659   1.423   0.995  16.779
 5064TIP3    H165660   1.346   0.981  16.833
 5064TIP3    H265661   1.496   0.961  16.831
 5065TIP3   OH265662   1.393   0.809  17.611
 5065TIP3    H165663   1.381   0.898  17.642
 5065TIP3    H265664   1.310   0.787  17.568
 5066TIP3   OH265665   0.751   1.338  17.189
 5066TIP3    H165666   0.752   1.327  17.094
 5066TIP3    H265667   0.823   1.285  17.221
 5067TIP3   OH265668   0.580   0.887  17.363
 5067TIP3    H165669   0.615   0.868  17.276
 5067TIP3    H265670   0.612   0.975  17.383
 5068TIP3   OH265671   0.634   0.180  17.339
 5068TIP3    H165672   0.646   0.190  17.244
 5068TIP3    H265673   0.571   0.247  17.363
 5069TIP3   OH265674   0.881   0.308  16.306
 5069TIP3    H165675   0.878   0.318  16.401
 5069TIP3    H265676   0.882   0.213  16.292
 5070TIP3   OH265677   0.588   0.635  17.463
 5070TIP3    H165678   0.589   0.665  17.554
 5070TIP3    H265679   0.578   0.716  17.412
 5071TIP3   OH265680   0.618   0.690  16.903
 5071TIP3    H165681   0.523   0.684  16.894
 5071TIP3    H265682   0.651   0.678  16.814
 5072TIP3   OH265683   1.005   0.768  17.898
 5072TIP3    H165684   0.976   0.689  17.943
 5072TIP3    H265685   1.066   0.809  17.960
 5073TIP3   OH265686   1.241   0.649  17.013
 5073TIP3    H165687   1.225   0.740  16.989
 5073TIP3    H265688   1.296   0.614  16.943
 5074TIP3   OH265689   0.136   0.464  16.927
 5074TIP3    H165690   0.186   0.438  17.004
 5074TIP3    H265691   0.141   0.388  16.869
 5075TIP3   OH265692   0.240   0.501  16.583
 5075TIP3    H165693   0.303   0.568  16.556
 5075TIP3    H265694   0.164   0.551  16.613
 5076TIP3   OH265695   1.150   0.740  17.493
 5076TIP3    H165696   1.170   0.678  17.423
 5076TIP3    H265697   1.088   0.693  17.549
 5077TIP3   OH265698   0.353   0.622  16.879
 5077TIP3    H165699   0.262   0.599  16.900
 5077TIP3    H265700   0.394   0.539  16.854
 5078TIP3   OH265701   0.706   0.635  16.624
 5078TIP3    H165702   0.788   0.600  16.657
 5078TIP3    H265703   0.728   0.673  16.539
 5079TIP3   OH265704   0.948   0.685  17.201
 5079TIP3    H165705   1.031   0.643  17.179
 5079TIP3    H265706   0.911   0.629  17.270
 5080TIP3   OH265707   0.471   0.377  16.836
 5080TIP3    H165708   0.441   0.289  16.856
 5080TIP3    H265709   0.507   0.370  16.747
 5081TIP3   OH265710   0.850   0.549  17.427
 5081TIP3    H165711   0.759   0.579  17.425
 5081TIP3    H265712   0.886   0.588  17.507
 5082TIP3   OH265713   0.895   1.072  16.670
 5082TIP3    H165714   0.814   1.045  16.628
 5082TIP3    H265715   0.883   1.166  16.687
 5083TIP3   OH265716   1.575   1.072  17.435
 5083TIP3    H165717   1.599   1.120  17.356
 5083TIP3    H265718   1.484   1.046  17.421
 5084TIP3   OH265719   1.055   1.100  17.780
 5084TIP3    H165720   1.076   1.061  17.865
 5084TIP3    H265721   0.965   1.130  17.789
 5085TIP3   OH265722   0.753   0.863  17.949
 5085TIP3    H165723   0.694   0.824  17.885
 5085TIP3    H265724   0.841   0.836  17.921
 5086TIP3   OH265725   1.314   1.028  17.328
 5086TIP3    H165726   1.225   0.995  17.320
 5086TIP3    H265727   1.353   1.016  17.242
 5087TIP3   OH265728   0.749   1.292  16.913
 5087TIP3    H165729   0.770   1.325  16.825
 5087TIP3    H265730   0.658   1.263  16.907
 5088TIP3   OH265731   0.614   1.737  16.759
 5088TIP3    H165732   0.539   1.711  16.813
 5088TIP3    H265733   0.658   1.806  16.810
 5089TIP3   OH265734   1.131   1.194  17.510
 5089TIP3    H165735   1.103   1.155  17.593
 5089TIP3    H265736   1.200   1.136  17.477
 5090TIP3   OH265737   0.313   0.417  17.663
 5090TIP3    H165738   0.221   0.434  17.643
 5090TIP3    H265739   0.312   0.371  17.747
 5091TIP3   OH265740   1.518   1.160  16.575
 5091TIP3    H165741   1.479   1.116  16.650
 5091TIP3    H265742   1.611   1.165  16.595
 5092TIP3   OH265743   0.721   1.348  16.642
 5092TIP3    H165744   0.794   1.331  16.582
 5092TIP3    H265745   0.689   1.435  16.618
 5093TIP3   OH265746   0.951   0.539  16.722
 5093TIP3    H165747   0.998   0.622  16.721
 5093TIP3    H265748   0.990   0.491  16.796
 5094TIP3   OH265749   0.964   0.624  17.669
 5094TIP3    H165750   0.978   0.693  17.734
 5094TIP3    H265751   0.949   0.545  17.721
 5095TIP3   OH265752   0.720   1.607  16.531
 5095TIP3    H165753   0.734   1.667  16.457
 5095TIP3    H265754   0.687   1.663  16.601
 5096TIP3   OH265755   0.581   0.384  16.579
 5096TIP3    H165756   0.602   0.477  16.586
 5096TIP3    H265757   0.666   0.341  16.575
 5097TIP3   OH265758   0.370   0.143  17.176
 5097TIP3    H165759   0.386   0.146  17.082
 5097TIP3    H265760   0.376   0.050  17.199
 5098TIP3   OH265761   0.167   1.510  16.777
 5098TIP3    H165762   0.112   1.431  16.781
 5098TIP3    H265763   0.144   1.551  16.694
 5099TIP3   OH265764   0.106   1.819  17.981
 5099TIP3    H165765   0.175   1.822  17.914
 5099TIP3    H265766   0.037   1.766  17.942
 5100TIP3   OH265767   0.650   1.663  18.131
 5100TIP3    H165768   0.705   1.586  18.121
 5100TIP3    H265769   0.562   1.633  18.112
 5101TIP3   OH265770   0.801   1.134  17.897
 5101TIP3    H165771   0.753   1.180  17.965
 5101TIP3    H265772   0.781   1.041  17.911
 5102TIP3   OH265773   1.320   1.064  17.711
 5102TIP3    H165774   1.348   1.148  17.674
 5102TIP3    H265775   1.228   1.077  17.733
 5103TIP3   OH265776   0.676   0.954  16.549
 5103TIP3    H165777   0.628   0.895  16.607
 5103TIP3    H265778   0.714   0.897  16.483
 5104TIP3   OH265779   0.622   0.775  17.707
 5104TIP3    H165780   0.547   0.832  17.691
 5104TIP3    H265781   0.696   0.820  17.667
 5105TIP3   OH265782   0.788   0.772  16.374
 5105TIP3    H165783   0.764   0.769  16.282
 5105TIP3    H265784   0.883   0.783  16.374
 5106TIP3   OH265785   1.138   1.008  18.040
 5106TIP3    H165786   1.232   0.992  18.030
 5106TIP3    H265787   1.111   0.947  18.109
 5107TIP3   OH265788   0.661   0.531  17.833
 5107TIP3    H165789   0.667   0.460  17.769
 5107TIP3    H265790   0.651   0.610  17.780
 5108TIP3   OH265791   0.696   0.373  17.602
 5108TIP3    H165792   0.766   0.395  17.540
 5108TIP3    H265793   0.616   0.380  17.550
 5109TIP3   OH265794   0.810   0.929  17.593
 5109TIP3    H165795   0.903   0.937  17.574
 5109TIP3    H265796   0.769   1.001  17.544
 5110TIP3   OH265797   1.409   0.949  17.944
 5110TIP3    H165798   1.370   0.978  17.862
 5110TIP3    H265799   1.503   0.950  17.928
 5111TIP3   OH265800   0.507   0.633  18.042
 5111TIP3    H165801   0.421   0.592  18.037
 5111TIP3    H265802   0.552   0.607  17.962
 5112TIP3   OH265803   0.617   0.111  17.673
 5112TIP3    H165804   0.630   0.199  17.638
 5112TIP3    H265805   0.529   0.086  17.643
 5113TIP3   OH265806   0.896   0.549  18.007
 5113TIP3    H165807   0.916   0.497  18.085
 5113TIP3    H265808   0.813   0.514  17.974
 5114TIP3   OH265809   0.280   0.490  18.051
 5114TIP3    H165810   0.286   0.407  18.004
 5114TIP3    H265811   0.236   0.469  18.133
 5115TIP3   OH265812   0.774   0.093  17.893
 5115TIP3    H165813   0.850   0.050  17.855
 5115TIP3    H265814   0.712   0.101  17.820
 5116TIP3   OH265815   0.832   0.211  18.138
 5116TIP3    H165816   0.827   0.164  18.056
 5116TIP3    H265817   0.757   0.272  18.136
 5117TIP3   OH265818   1.604   1.340  18.073
 5117TIP3    H165819   1.548   1.384  18.009
 5117TIP3    H265820   1.620   1.405  18.141
 5118TIP3   OH265821   1.797   1.126  16.637
 5118TIP3    H165822   1.874   1.183  16.641
 5118TIP3    H265823   1.794   1.084  16.723
 5119TIP3   OH265824   1.781   0.985  16.882
 5119TIP3    H165825   1.715   0.918  16.899
 5119TIP3    H265826   1.852   0.965  16.943
 5120TIP3   OH265827   1.842   0.984  16.399
 5120TIP3    H165828   1.776   0.916  16.412
 5120TIP3    H265829   1.827   1.046  16.470
 5121TIP3   OH265830   1.567   0.802  16.933
 5121TIP3    H165831   1.507   0.763  16.870
 5121TIP3    H265832   1.577   0.735  17.001
 5122TIP3   OH265833   1.676   1.007  17.878
 5122TIP3    H165834   1.757   0.969  17.846
 5122TIP3    H265835   1.658   1.079  17.817
 5123TIP3   OH265836   0.273   0.399  17.155
 5123TIP3    H165837   0.300   0.311  17.184
 5123TIP3    H265838   0.354   0.447  17.146
 5124TIP3   OH265839   0.130   0.286  16.702
 5124TIP3    H165840   0.048   0.293  16.654
 5124TIP3    H265841   0.185   0.356  16.667
 5125TIP3   OH265842   1.597   1.806  16.860
 5125TIP3    H165843   1.539   1.833  16.789
 5125TIP3    H265844   1.619   1.887  16.905
 5126TIP3   OH265845   0.050   0.466  17.583
 5126TIP3    H165846   0.005   0.484  17.666
 5126TIP3    H265847   8.136   0.403  17.538
 5127TIP3   OH265848   0.329   1.991  17.588
 5127TIP3    H165849   0.243   2.032  17.597
 5127TIP3    H265850   0.312   1.910  17.540
 5128TIP3   OH265851   0.692   1.589  17.304
 5128TIP3    H165852   0.711   1.503  17.266
 5128TIP3    H265853   0.709   1.651  17.233
 5129TIP3   OH265854   0.370   0.131  16.898
 5129TIP3    H165855   0.286   0.117  16.855
 5129TIP3    H265856   0.425   0.058  16.870
 5130TIP3   OH265857   0.228   0.159  16.472
 5130TIP3    H165858   0.172   0.211  16.415
 5130TIP3    H265859   0.201   0.185  16.561
 5131TIP3   OH265860   0.769   0.152  16.809
 5131TIP3    H165861   0.824   0.075  16.796
 5131TIP3    H265862   0.723   0.135  16.891
 5132TIP3   OH265863   0.094   1.666  16.541
 5132TIP3    H165864   0.063   1.689  16.454
 5132TIP3    H265865   0.104   1.751  16.586
 5133TIP3   OH265866   0.448   0.286  16.359
 5133TIP3    H165867   0.376   0.228  16.385
 5133TIP3    H265868   0.486   0.316  16.441
 5134TIP3   OH265869   0.848   0.312  16.591
 5134TIP3    H165870   0.827   0.250  16.661
 5134TIP3    H265871   0.891   0.385  16.635
 5135TIP3   OH265872   0.330   0.260  17.907
 5135TIP3    H165873   0.271   0.190  17.935
 5135TIP3    H265874   0.417   0.229  17.930
 5136TIP3   OH265875   0.532   0.109  18.037
 5136TIP3    H165876   0.618   0.102  17.996
 5136TIP3    H265877   0.494   0.022  18.029
 5137TIP3   OH265878   0.354   1.856  16.371
 5137TIP3    H165879   0.364   1.787  16.437
 5137TIP3    H265880   0.400   1.823  16.295
 5138TIP3   OH265881   2.198   0.904  17.412
 5138TIP3    H165882   2.193   0.824  17.464
 5138TIP3    H265883   2.268   0.887  17.349
 5139TIP3   OH265884   3.331   1.340  17.103
 5139TIP3    H165885   3.260   1.278  17.085
 5139TIP3    H265886   3.409   1.300  17.063
 5140TIP3   OH265887   2.014   0.941  17.044
 5140TIP3    H165888   2.052   0.856  17.065
 5140TIP3    H265889   2.074   0.979  16.980
 5141TIP3   OH265890   3.656   0.304  17.400
 5141TIP3    H165891   3.675   0.354  17.479
 5141TIP3    H265892   3.623   0.369  17.337
 5142TIP3   OH265893   3.703   0.468  17.613
 5142TIP3    H165894   3.642   0.541  17.603
 5142TIP3    H265895   3.786   0.511  17.635
 5143TIP3   OH265896   2.406   1.368  17.550
 5143TIP3    H165897   2.385   1.426  17.476
 5143TIP3    H265898   2.323   1.358  17.597
 5144TIP3   OH265899   2.038   1.290  16.594
 5144TIP3    H165900   2.030   1.317  16.503
 5144TIP3    H265901   2.053   1.372  16.642
 5145TIP3   OH265902   3.329   1.511  17.326
 5145TIP3    H165903   3.256   1.556  17.285
 5145TIP3    H265904   3.353   1.442  17.264
 5146TIP3   OH265905   3.482   1.250  17.679
 5146TIP3    H165906   3.498   1.191  17.606
 5146TIP3    H265907   3.483   1.337  17.640
 5147TIP3   OH265908   3.702   0.900  17.527
 5147TIP3    H165909   3.637   0.968  17.511
 5147TIP3    H265910   3.750   0.892  17.445
 5148TIP3   OH265911   3.314   0.798  17.699
 5148TIP3    H165912   3.310   0.842  17.783
 5148TIP3    H265913   3.289   0.865  17.635
 5149TIP3   OH265914   2.404   0.836  17.235
 5149TIP3    H165915   2.446   0.884  17.164
 5149TIP3    H265916   2.463   0.763  17.254
 5150TIP3   OH265917   2.563   1.282  17.754
 5150TIP3    H165918   2.499   1.306  17.821
 5150TIP3    H265919   2.518   1.300  17.671
 5151TIP3   OH265920   2.256   0.949  17.722
 5151TIP3    H165921   2.253   1.015  17.791
 5151TIP3    H265922   2.232   0.996  17.642
 5152TIP3   OH265923   3.619   0.150  16.540
 5152TIP3    H165924   3.524   0.152  16.553
 5152TIP3    H265925   3.632   0.195  16.456
 5153TIP3   OH265926   2.329   0.909  16.702
 5153TIP3    H165927   2.299   0.981  16.646
 5153TIP3    H265928   2.313   0.830  16.650
 5154TIP3   OH265929   3.730   1.507  16.461
 5154TIP3    H165930   3.758   1.597  16.447
 5154TIP3    H265931   3.779   1.456  16.397
 5155TIP3   OH265932   2.008   1.138  17.595
 5155TIP3    H165933   1.995   1.109  17.505
 5155TIP3    H265934   1.969   1.069  17.649
 5156TIP3   OH265935   3.709   1.528  17.903
 5156TIP3    H165936   3.710   1.432  17.897
 5156TIP3    H265937   3.617   1.550  17.916
 5157TIP3   OH265938   2.270   1.766  16.936
 5157TIP3    H165939   2.349   1.743  16.985
 5157TIP3    H265940   2.249   1.688  16.885
 5158TIP3   OH265941   3.190   1.793  16.734
 5158TIP3    H165942   3.098   1.780  16.712
 5158TIP3    H265943   3.212   1.719  16.791
 5159TIP3   OH265944   3.458   0.600  17.838
 5159TIP3    H165945   3.399   0.661  17.794
 5159TIP3    H265946   3.447   0.518  17.790
 5160TIP3   OH265947   2.180   1.322  17.703
 5160TIP3    H165948   2.204   1.262  17.773
 5160TIP3    H265949   2.110   1.278  17.656
 5161TIP3   OH265950   2.957   0.173  17.700
 5161TIP3    H165951   2.903   0.097  17.680
 5161TIP3    H265952   2.930   0.239  17.636
 5162TIP3   OH265953   2.223   0.703  17.607
 5162TIP3    H165954   2.243   0.781  17.659
 5162TIP3    H265955   2.183   0.642  17.669
 5163TIP3   OH265956   2.324   0.709  16.431
 5163TIP3    H165957   2.253   0.650  16.405
 5163TIP3    H265958   2.306   0.790  16.384
 5164TIP3   OH265959   3.508   1.924  17.915
 5164TIP3    H165960   3.488   1.979  17.840
 5164TIP3    H265961   3.534   1.985  17.984
 5165TIP3   OH265962   2.236   1.157  17.917
 5165TIP3    H165963   2.281   1.202  17.988
 5165TIP3    H265964   2.146   1.146  17.948
 5166TIP3   OH265965   3.500   1.085  17.465
 5166TIP3    H165966   3.565   1.129  17.410
 5166TIP3    H265967   3.440   1.043  17.403
 5167TIP3   OH265968   3.114   0.318  16.514
 5167TIP3    H165969   3.024   0.351  16.510
 5167TIP3    H265970   3.148   0.329  16.426
 5168TIP3   OH265971   1.912   0.927  17.765
 5168TIP3    H165972   1.972   0.880  17.823
 5168TIP3    H265973   1.903   0.869  17.689
 5169TIP3   OH265974   3.629   0.698  16.572
 5169TIP3    H165975   3.584   0.658  16.498
 5169TIP3    H265976   3.660   0.782  16.539
 5170TIP3   OH265977   3.706   1.239  17.839
 5170TIP3    H165978   3.619   1.244  17.799
 5170TIP3    H265979   3.766   1.231  17.765
 5171TIP3   OH265980   3.539   1.531  16.658
 5171TIP3    H165981   3.476   1.459  16.646
 5171TIP3    H265982   3.598   1.523  16.584
 5172TIP3   OH265983   3.333   0.947  17.297
 5172TIP3    H165984   3.242   0.945  17.267
 5172TIP3    H265985   3.376   0.878  17.248
 5173TIP3   OH265986   2.112   0.927  16.357
 5173TIP3    H165987   2.154   0.982  16.423
 5173TIP3    H265988   2.018   0.946  16.365
 5174TIP3   OH265989   3.329   1.372  16.395
 5174TIP3    H165990   3.353   1.330  16.477
 5174TIP3    H265991   3.331   1.301  16.330
 5175TIP3   OH265992   3.395   1.229  16.620
 5175TIP3    H165993   3.331   1.158  16.625
 5175TIP3    H265994   3.479   1.186  16.633
 5176TIP3   OH265995   2.238   1.105  16.528
 5176TIP3    H165996   2.173   1.170  16.556
 5176TIP3    H265997   2.309   1.156  16.492
 5177TIP3   OH265998   3.104   0.290  16.792
 5177TIP3    H165999   3.101   0.297  16.697
 5177TIP3    H266000   3.168   0.356  16.819
 5178TIP3   OH266001   2.846   0.169  16.869
 5178TIP3    H166002   2.867   0.183  16.961
 5178TIP3    H266003   2.918   0.211  16.822
 5179TIP3   OH266004   2.074   0.644  16.296
 5179TIP3    H166005   2.074   0.739  16.305
 5179TIP3    H266006   2.095   0.628  16.204
 5180TIP3   OH266007   2.152   1.545  16.800
 5180TIP3    H166008   2.084   1.562  16.865
 5180TIP3    H266009   2.123   1.595  16.723
 5181TIP3   OH266010   2.035   1.845  17.988
 5181TIP3    H166011   2.102   1.820  18.051
 5181TIP3    H266012   2.033   1.773  17.925
 5182TIP3   OH266013   3.402   1.616  16.283
 5182TIP3    H166014   3.379   1.538  16.333
 5182TIP3    H266015   3.447   1.584  16.205
 5183TIP3   OH266016   1.995   1.161  18.045
 5183TIP3    H166017   2.019   1.091  18.107
 5183TIP3    H266018   1.899   1.163  18.048
 5184TIP3   OH266019   3.247   1.106  17.690
 5184TIP3    H166020   3.328   1.157  17.691
 5184TIP3    H266021   3.194   1.146  17.620
 5185TIP3   OH266022   2.059   0.797  17.974
 5185TIP3    H166023   2.109   0.717  17.989
 5185TIP3    H266024   2.077   0.851  18.051
 5186TIP3   OH266025   3.313   0.965  17.918
 5186TIP3    H166026   3.288   1.030  17.853
 5186TIP3    H266027   3.408   0.977  17.930
 5187TIP3   OH266028   2.149   0.484  18.045
 5187TIP3    H166029   2.123   0.415  17.984
 5187TIP3    H266030   2.194   0.438  18.115
 5188TIP3   OH266031   2.555   0.084  17.860
 5188TIP3    H166032   2.645   0.106  17.885
 5188TIP3    H266033   2.542   0.129  17.777
 5189TIP3   OH266034   2.048   1.356  16.320
 5189TIP3    H166035   2.050   1.447  16.289
 5189TIP3    H266036   2.046   1.304  16.239
 5190TIP3   OH266037   1.878   1.815  16.831
 5190TIP3    H166038   1.785   1.798  16.825
 5190TIP3    H266039   1.911   1.750  16.893
 5191TIP3   OH266040   1.977   1.622  17.001
 5191TIP3    H166041   1.953   1.537  17.038
 5191TIP3    H266042   2.026   1.666  17.070
 5192TIP3   OH266043   3.738   1.700  17.378
 5192TIP3    H166044   3.734   1.707  17.473
 5192TIP3    H266045   3.696   1.780  17.346
 5193TIP3   OH266046   3.707   1.647  17.647
 5193TIP3    H166047   3.704   1.558  17.612
 5193TIP3    H266048   3.724   1.636  17.740
 5194TIP3   OH266049   3.535   1.295  18.183
 5194TIP3    H166050   3.458   1.351  18.192
 5194TIP3    H266051   3.609   1.355  18.187
 5195TIP3   OH266052   3.639   1.100  16.655
 5195TIP3    H166053   3.717   1.154  16.644
 5195TIP3    H266054   3.660   1.042  16.728
 5196TIP3   OH266055   3.695   0.919  16.865
 5196TIP3    H166056   3.642   0.840  16.872
 5196TIP3    H266057   3.765   0.907  16.930
 5197TIP3   OH266058   3.726   1.192  17.359
 5197TIP3    H166059   3.780   1.134  17.305
 5197TIP3    H266060   3.752   1.280  17.333
 5198TIP3   OH266061   3.486   1.490  17.552
 5198TIP3    H166062   3.512   1.580  17.568
 5198TIP3    H266063   3.438   1.493  17.469
 5199TIP3   OH266064   3.714   0.928  16.440
 5199TIP3    H166065   3.702   0.950  16.347
 5199TIP3    H266066   3.671   0.999  16.487
 5200TIP3   OH266067   3.552   0.577  16.342
 5200TIP3    H166068   3.561   0.607  16.252
 5200TIP3    H266069   3.602   0.496  16.347
 5201TIP3   OH266070   1.975   1.029  17.315
 5201TIP3    H166071   1.974   1.012  17.221
 5201TIP3    H266072   2.055   0.986  17.346
 5202TIP3   OH266073   3.590   0.982  17.921
 5202TIP3    H166074   3.636   0.903  17.894
 5202TIP3    H266075   3.643   1.054  17.886
 5203TIP3   OH266076   3.697   0.735  17.857
 5203TIP3    H166077   3.612   0.692  17.850
 5203TIP3    H266078   3.759   0.663  17.870
 5204TIP3   OH266079   3.456   0.615  16.789
 5204TIP3    H166080   3.463   0.519  16.789
 5204TIP3    H266081   3.518   0.643  16.722
 5205TIP3   OH266082   3.581   0.557  17.312
 5205TIP3    H166083   3.669   0.594  17.301
 5205TIP3    H266084   3.549   0.598  17.393
 5206TIP3   OH266085   3.533   0.685  17.554
 5206TIP3    H166086   3.457   0.718  17.601
 5206TIP3    H266087   3.595   0.757  17.555
 5207TIP3   OH266088   3.740   0.068  18.191
 5207TIP3    H166089   3.713   0.017  18.115
 5207TIP3    H266090   3.756   0.156  18.156
 5208TIP3   OH266091   3.468   0.337  16.783
 5208TIP3    H166092   3.513   0.282  16.847
 5208TIP3    H266093   3.432   0.275  16.719
 5209TIP3   OH266094   1.933   0.701  17.325
 5209TIP3    H166095   1.865   0.668  17.266
 5209TIP3    H266096   1.886   0.748  17.393
 5210TIP3   OH266097   3.721   0.283  17.969
 5210TIP3    H166098   3.643   0.309  18.018
 5210TIP3    H266099   3.687   0.250  17.886
 5211TIP3   OH266100   1.909   0.265  16.648
 5211TIP3    H166101   1.814   0.258  16.659
 5211TIP3    H266102   1.920   0.331  16.579
 5212TIP3   OH266103   2.098   1.463  17.946
 5212TIP3    H166104   2.119   1.450  17.853
 5212TIP3    H266105   2.042   1.388  17.968
 5213TIP3   OH266106   3.617   0.176  17.732
 5213TIP3    H166107   3.564   0.240  17.684
 5213TIP3    H266108   3.560   0.100  17.743
 5214TIP3   OH266109   2.117   1.712  17.225
 5214TIP3    H166110   2.077   1.659  17.294
 5214TIP3    H266111   2.201   1.670  17.209
 5215TIP3   OH266112   2.930   0.220  17.135
 5215TIP3    H166113   2.964   0.132  17.154
 5215TIP3    H266114   3.008   0.273  17.120
 5216TIP3   OH266115   3.418   0.067  17.142
 5216TIP3    H166116   3.484   0.108  17.086
 5216TIP3    H266117   3.335   0.095  17.104
 5217TIP3   OH266118   3.618   0.191  16.976
 5217TIP3    H166119   3.680   0.125  16.947
 5217TIP3    H266120   3.673   0.267  16.999
 5218TIP3   OH266121   2.075   0.084  16.507
 5218TIP3    H166122   2.137   0.142  16.463
 5218TIP3    H266123   2.023   0.142  16.562
 5219TIP3   OH266124   2.562   0.152  16.839
 5219TIP3    H166125   2.657   0.162  16.846
 5219TIP3    H266126   2.533   0.137  16.929
 5220TIP3   OH266127   3.174   0.116  17.001
 5220TIP3    H166128   3.151   0.174  16.928
 5220TIP3    H266129   3.184   0.030  16.961
 5221TIP3   OH266130   3.347   0.167  16.597
 5221TIP3    H166131   3.263   0.203  16.569
 5221TIP3    H266132   3.326   0.079  16.629
 5222TIP3   OH266133   2.021   1.705  16.616
 5222TIP3    H166134   2.003   1.746  16.532
 5222TIP3    H266135   1.969   1.755  16.679
 5223TIP3   OH266136   2.254   0.268  16.389
 5223TIP3    H166137   2.295   0.270  16.303
 5223TIP3    H266138   2.301   0.333  16.441
 5224TIP3   OH266139   3.579   1.789  16.761
 5224TIP3    H166140   3.558   1.701  16.729
 5224TIP3    H266141   3.587   1.842  16.682
 5225TIP3   OH266142   2.096   0.239  17.921
 5225TIP3    H166143   2.018   0.196  17.954
 5225TIP3    H266144   2.168   0.182  17.947
 5226TIP3   OH266145   2.320   0.090  18.019
 5226TIP3    H166146   2.401   0.093  17.968
 5226TIP3    H266147   2.295   8.141  18.019
 5227TIP3   OH266148   2.216   1.797  16.260
 5227TIP3    H166149   2.293   1.818  16.312
 5227TIP3    H266150   2.246   1.805  16.169
 5228TIP3   OH266151   3.232   0.094  18.021
 5228TIP3    H166152   3.169   0.026  17.995
 5228TIP3    H266153   3.316   0.049  18.024
 5229TIP3   OH266154   3.465   1.651  17.957
 5229TIP3    H166155   3.377   1.643  17.919
 5229TIP3    H266156   3.488   1.743  17.946
 5230TIP3   OH266157   4.994   1.047  16.933
 5230TIP3    H166158   4.962   1.134  16.907
 5230TIP3    H266159   4.973   0.991  16.858
 5231TIP3   OH266160   4.051   0.928  17.458
 5231TIP3    H166161   4.044   0.933  17.553
 5231TIP3    H266162   4.145   0.926  17.441
 5232TIP3   OH266163   3.811   0.646  16.820
 5232TIP3    H166164   3.815   0.729  16.773
 5232TIP3    H266165   3.798   0.581  16.752
 5233TIP3   OH266166   4.944   1.762  17.166
 5233TIP3    H166167   4.979   1.717  17.090
 5233TIP3    H266168   4.961   1.703  17.239
 5234TIP3   OH266169   4.690   1.174  17.325
 5234TIP3    H166170   4.735   1.157  17.242
 5234TIP3    H266171   4.760   1.185  17.389
 5235TIP3   OH266172   4.475   0.827  17.072
 5235TIP3    H166173   4.570   0.834  17.061
 5235TIP3    H266174   4.450   0.750  17.020
 5236TIP3   OH266175   4.889   1.281  16.818
 5236TIP3    H166176   4.829   1.236  16.758
 5236TIP3    H266177   4.857   1.371  16.821
 5237TIP3   OH266178   4.484   1.050  17.472
 5237TIP3    H166179   4.442   1.127  17.509
 5237TIP3    H266180   4.560   1.085  17.424
 5238TIP3   OH266181   4.352   1.286  17.546
 5238TIP3    H166182   4.367   1.308  17.454
 5238TIP3    H266183   4.258   1.297  17.558
 5239TIP3   OH266184   3.851   1.270  16.584
 5239TIP3    H166185   3.864   1.283  16.490
 5239TIP3    H266186   3.817   1.354  16.615
 5240TIP3   OH266187   5.198   0.227  17.455
 5240TIP3    H166188   5.136   0.256  17.388
 5240TIP3    H266189   5.259   0.170  17.408
 5241TIP3   OH266190   5.079   1.636  16.962
 5241TIP3    H166191   5.107   1.548  16.939
 5241TIP3    H266192   5.156   1.691  16.945
 5242TIP3   OH266193   5.143   1.389  16.861
 5242TIP3    H166194   5.168   1.420  16.774
 5242TIP3    H266195   5.066   1.334  16.846
 5243TIP3   OH266196   4.918   0.939  16.680
 5243TIP3    H166197   4.849   1.004  16.664
 5243TIP3    H266198   4.988   0.964  16.620
 5244TIP3   OH266199   4.313   1.012  16.928
 5244TIP3    H166200   4.298   0.982  16.839
 5244TIP3    H266201   4.370   0.945  16.967
 5245TIP3   OH266202   4.446   1.308  17.286
 5245TIP3    H166203   4.440   1.332  17.193
 5245TIP3    H266204   4.532   1.268  17.295
 5246TIP3   OH266205   4.314   0.911  17.306
 5246TIP3    H166206   4.370   0.880  17.234
 5246TIP3    H266207   4.374   0.956  17.365
 5247TIP3   OH266208   4.434   1.363  17.796
 5247TIP3    H166209   4.363   1.423  17.818
 5247TIP3    H266210   4.411   1.329  17.709
 5248TIP3   OH266211   4.840   1.561  16.828
 5248TIP3    H166212   4.921   1.585  16.873
 5248TIP3    H266213   4.816   1.639  16.779
 5249TIP3   OH266214   4.206   1.543  17.788
 5249TIP3    H166215   4.182   1.604  17.718
 5249TIP3    H266216   4.163   1.461  17.765
 5250TIP3   OH266217   5.388   0.048  16.520
 5250TIP3    H166218   5.304   0.089  16.543
 5250TIP3    H266219   5.418   0.097  16.443
 5251TIP3   OH266220   4.271   0.944  16.662
 5251TIP3    H166221   4.207   1.004  16.625
 5251TIP3    H266222   4.271   0.869  16.602
 5252TIP3   OH266223   5.572   1.515  16.374
 5252TIP3    H166224   5.591   1.606  16.351
 5252TIP3    H266225   5.644   1.466  16.335
 5253TIP3   OH266226   3.855   1.190  17.613
 5253TIP3    H166227   3.814   1.188  17.527
 5253TIP3    H266228   3.880   1.099  17.631
 5254TIP3   OH266229   3.813   1.445  17.302
 5254TIP3    H166230   3.889   1.464  17.247
 5254TIP3    H266231   3.780   1.531  17.326
 5255TIP3   OH266232   5.602   1.561  17.882
 5255TIP3    H166233   5.597   1.473  17.920
 5255TIP3    H266234   5.520   1.603  17.907
 5256TIP3   OH266235   4.682   1.457  17.717
 5256TIP3    H166236   4.710   1.535  17.766
 5256TIP3    H266237   4.596   1.436  17.754
 5257TIP3   OH266238   4.786   1.788  16.652
 5257TIP3    H166239   4.788   1.813  16.559
 5257TIP3    H266240   4.761   1.869  16.697
 5258TIP3   OH266241   5.078   1.795  16.381
 5258TIP3    H166242   5.116   1.711  16.355
 5258TIP3    H266243   5.099   1.803  16.474
 5259TIP3   OH266244   5.071   1.794  16.672
 5259TIP3    H166245   4.977   1.779  16.673
 5259TIP3    H266246   5.110   1.708  16.657
 5260TIP3   OH266247   4.100   1.313  17.672
 5260TIP3    H166248   4.113   1.274  17.759
 5260TIP3    H266249   4.014   1.280  17.644
 5261TIP3   OH266250   5.093   0.485  17.763
 5261TIP3    H166251   5.044   0.476  17.845
 5261TIP3    H266252   5.040   0.437  17.699
 5262TIP3   OH266253   4.967   0.665  16.661
 5262TIP3    H166254   4.923   0.749  16.670
 5262TIP3    H266255   5.059   0.687  16.648
 5263TIP3   OH266256   3.807   0.407  16.980
 5263TIP3    H166257   3.802   0.503  16.973
 5263TIP3    H266258   3.811   0.376  16.890
 5264TIP3   OH266259   3.830   0.513  16.493
 5264TIP3    H166260   3.881   0.554  16.422
 5264TIP3    H266261   3.765   0.579  16.517
 5265TIP3   OH266262   4.561   0.431  17.018
 5265TIP3    H166263   4.496   0.382  16.969
 5265TIP3    H266264   4.568   0.385  17.102
 5266TIP3   OH266265   4.992   0.317  17.303
 5266TIP3    H166266   4.932   0.356  17.366
 5266TIP3    H266267   4.962   0.348  17.218
 5267TIP3   OH266268   4.306   0.770  16.448
 5267TIP3    H166269   4.230   0.754  16.393
 5267TIP3    H266270   4.379   0.777  16.387
 5268TIP3   OH266271   5.384   1.923  18.001
 5268TIP3    H166272   5.408   1.961  17.916
 5268TIP3    H266273   5.460   1.940  18.057
 5269TIP3   OH266274   4.137   1.244  17.934
 5269TIP3    H166275   4.204   1.223  17.999
 5269TIP3    H266276   4.055   1.217  17.974
 5270TIP3   OH266277   4.597   0.559  17.519
 5270TIP3    H166278   4.562   0.591  17.436
 5270TIP3    H266279   4.659   0.627  17.546
 5271TIP3   OH266280   4.704   1.127  16.668
 5271TIP3    H166281   4.648   1.094  16.598
 5271TIP3    H266282   4.644   1.146  16.741
 5272TIP3   OH266283   4.788   1.210  17.770
 5272TIP3    H166284   4.756   1.201  17.859
 5272TIP3    H266285   4.753   1.294  17.740
 5273TIP3   OH266286   4.131   1.045  17.136
 5273TIP3    H166287   4.183   1.049  17.055
 5273TIP3    H266288   4.191   1.008  17.201
 5274TIP3   OH266289   3.924   0.939  17.715
 5274TIP3    H166290   3.932   0.919  17.808
 5274TIP3    H266291   3.849   0.887  17.685
 5275TIP3   OH266292   4.571   0.918  17.938
 5275TIP3    H166293   4.507   0.882  17.877
 5275TIP3    H266294   4.653   0.876  17.915
 5276TIP3   OH266295   4.995   1.517  17.703
 5276TIP3    H166296   4.931   1.450  17.679
 5276TIP3    H266297   4.972   1.593  17.649
 5277TIP3   OH266298   5.483   1.529  16.631
 5277TIP3    H166299   5.389   1.513  16.629
 5277TIP3    H266300   5.512   1.516  16.541
 5278TIP3   OH266301   4.405   1.434  16.904
 5278TIP3    H166302   4.429   1.484  16.827
 5278TIP3    H266303   4.312   1.452  16.917
 5279TIP3   OH266304   3.989   0.889  16.442
 5279TIP3    H166305   4.029   0.969  16.476
 5279TIP3    H266306   3.895   0.905  16.447
 5280TIP3   OH266307   4.523   1.186  16.868
 5280TIP3    H166308   4.494   1.276  16.884
 5280TIP3    H266309   4.447   1.133  16.889
 5281TIP3   OH266310   4.560   1.639  17.534
 5281TIP3    H166311   4.638   1.677  17.494
 5281TIP3    H266312   4.592   1.565  17.585
 5282TIP3   OH266313   4.893   1.186  17.514
 5282TIP3    H166314   4.856   1.181  17.602
 5282TIP3    H266315   4.986   1.204  17.528
 5283TIP3   OH266316   5.067   1.281  16.412
 5283TIP3    H166317   5.099   1.347  16.473
 5283TIP3    H266318   4.976   1.307  16.394
 5284TIP3   OH266319   5.237   1.672  17.697
 5284TIP3    H166320   5.176   1.599  17.688
 5284TIP3    H266321   5.215   1.731  17.626
 5285TIP3   OH266322   5.620   1.790  16.388
 5285TIP3    H166323   5.679   1.864  16.402
 5285TIP3    H266324   5.533   1.825  16.406
 5286TIP3   OH266325   4.091   1.128  16.537
 5286TIP3    H166326   4.014   1.169  16.577
 5286TIP3    H266327   4.138   1.200  16.495
 5287TIP3   OH266328   4.964   0.311  17.595
 5287TIP3    H166329   5.038   0.273  17.547
 5287TIP3    H266330   4.909   0.236  17.616
 5288TIP3   OH266331   4.978   0.391  16.628
 5288TIP3    H166332   4.893   0.366  16.592
 5288TIP3    H266333   4.966   0.482  16.655
 5289TIP3   OH266334   4.686   1.539  16.549
 5289TIP3    H166335   4.719   1.618  16.592
 5289TIP3    H266336   4.754   1.474  16.564
 5290TIP3   OH266337   5.323   0.385  17.652
 5290TIP3    H166338   5.256   0.435  17.697
 5290TIP3    H266339   5.275   0.327  17.592
 5291TIP3   OH266340   4.185   1.350  16.393
 5291TIP3    H166341   4.221   1.419  16.448
 5291TIP3    H266342   4.249   1.339  16.323
 5292TIP3   OH266343   3.953   0.665  16.292
 5292TIP3    H166344   3.971   0.740  16.350
 5292TIP3    H266345   3.952   0.703  16.204
 5293TIP3   OH266346   5.364   1.776  17.302
 5293TIP3    H166347   5.366   1.848  17.238
 5293TIP3    H266348   5.457   1.757  17.318
 5294TIP3   OH266349   5.027   1.543  17.977
 5294TIP3    H166350   5.004   1.533  17.884
 5294TIP3    H266351   5.121   1.557  17.977
 5295TIP3   OH266352   5.196   1.568  16.269
 5295TIP3    H166353   5.190   1.535  16.359
 5295TIP3    H266354   5.287   1.552  16.244
 5296TIP3   OH266355   3.897   1.159  18.032
 5296TIP3    H166356   3.897   1.064  18.022
 5296TIP3    H266357   3.822   1.189  17.980
 5297TIP3   OH266358   4.563   1.197  17.976
 5297TIP3    H166359   4.520   1.242  17.904
 5297TIP3    H266360   4.560   1.105  17.953
 5298TIP3   OH266361   3.919   0.881  17.997
 5298TIP3    H166362   3.874   0.799  17.977
 5298TIP3    H266363   3.946   0.871  18.089
 5299TIP3   OH266364   4.514   1.007  16.503
 5299TIP3    H166365   4.438   0.984  16.558
 5299TIP3    H266366   4.516   0.940  16.435
 5300TIP3   OH266367   4.527   0.822  16.278
 5300TIP3    H166368   4.508   0.752  16.215
 5300TIP3    H266369   4.618   0.845  16.262
 5301TIP3   OH266370   4.953   0.418  17.989
 5301TIP3    H166371   4.891   0.438  18.059
 5301TIP3    H266372   5.008   0.349  18.024
 5302TIP3   OH266373   3.911   1.347  16.323
 5302TIP3    H166374   4.006   1.356  16.335
 5302TIP3    H266375   3.900   1.341  16.228
 5303TIP3   OH266376   5.625   1.738  17.381
 5303TIP3    H166377   5.620   1.756  17.475
 5303TIP3    H266378   5.707   1.777  17.353
 5304TIP3   OH266379   5.527   1.735  17.657
 5304TIP3    H166380   5.438   1.699  17.646
 5304TIP3    H266381   5.571   1.672  17.714
 5305TIP3   OH266382   5.534   1.327  18.024
 5305TIP3    H166383   5.465   1.261  18.015
 5305TIP3    H266384   5.524   1.361  18.113
 5306TIP3   OH266385   5.616   1.119  16.689
 5306TIP3    H166386   5.673   1.186  16.651
 5306TIP3    H266387   5.597   1.151  16.777
 5307TIP3   OH266388   3.890   0.998  17.254
 5307TIP3    H166389   3.958   1.027  17.192
 5307TIP3    H266390   3.939   0.971  17.331
 5308TIP3   OH266391   5.380   0.313  16.380
 5308TIP3    H166392   5.400   0.364  16.459
 5308TIP3    H266393   5.289   0.336  16.359
 5309TIP3   OH266394   3.859   0.524  17.909
 5309TIP3    H166395   3.929   0.500  17.849
 5309TIP3    H266396   3.820   0.440  17.935
 5310TIP3   OH266397   5.567   0.079  18.079
 5310TIP3    H166398   5.591   8.136  18.048
 5310TIP3    H266399   5.627   0.138  18.034
 5311TIP3   OH266400   5.371   0.302  16.681
 5311TIP3    H166401   5.389   0.266  16.768
 5311TIP3    H266402   5.290   0.260  16.653
 5312TIP3   OH266403   5.504   0.346  17.863
 5312TIP3    H166404   5.444   0.370  17.793
 5312TIP3    H266405   5.510   0.250  17.858
 5313TIP3   OH266406   5.655   0.260  16.389
 5313TIP3    H166407   5.563   0.268  16.363
 5313TIP3    H266408   5.702   0.318  16.330
 5314TIP3   OH266409   3.782   0.352  16.712
 5314TIP3    H166410   3.705   0.302  16.683
 5314TIP3    H266411   3.820   0.387  16.632
 5315TIP3   OH266412   5.339   1.772  16.964
 5315TIP3    H166413   5.382   1.778  16.879
 5315TIP3    H266414   5.367   1.687  16.999
 5316TIP3   OH266415   3.822   0.121  17.525
 5316TIP3    H166416   3.774   0.141  17.605
 5316TIP3    H266417   3.779   0.174  17.458
 5317TIP3   OH266418   4.762   1.674  17.858
 5317TIP3    H166419   4.762   1.665  17.954
 5317TIP3    H266420   4.828   1.740  17.840
 5318TIP3   OH266421   4.972   1.852  17.851
 5318TIP3    H166422   5.040   1.830  17.787
 5318TIP3    H266423   5.020   1.885  17.927
 5319TIP3   OH266424   5.464   0.080  17.760
 5319TIP3    H166425   5.377   0.042  17.757
 5319TIP3    H266426   5.522   0.007  17.778
 5320TIP3   OH266427   4.738   1.830  17.400
 5320TIP3    H166428   4.763   1.830  17.307
 5320TIP3    H266429   4.645   1.853  17.399
 5321TIP3   OH266430   4.957   1.733  17.544
 5321TIP3    H166431   4.882   1.775  17.502
 5321TIP3    H266432   5.032   1.786  17.516
 5322TIP3   OH266433   5.198   1.863  17.500
 5322TIP3    H166434   5.231   1.952  17.511
 5322TIP3    H266435   5.250   1.827  17.428
 5323TIP3   OH266436   5.289   0.064  17.205
 5323TIP3    H166437   5.272   0.110  17.123
 5323TIP3    H266438   5.274   8.116  17.185
 5324TIP3   OH266439   5.450   0.211  16.926
 5324TIP3    H166440   5.490   0.159  16.995
 5324TIP3    H266441   5.489   0.298  16.937
 5325TIP3   OH266442   5.143   0.164  16.600
 5325TIP3    H166443   5.083   0.238  16.613
 5325TIP3    H266444   5.086   0.087  16.604
 5326TIP3   OH266445   4.810   1.861  16.381
 5326TIP3    H166446   4.905   1.846  16.384
 5326TIP3    H266447   4.786   1.843  16.290
 5327TIP3   OH266448   5.486   1.784  16.726
 5327TIP3    H166449   5.485   1.693  16.696
 5327TIP3    H266450   5.465   1.836  16.649
 5328TIP3   OH266451   5.015   0.099  18.118
 5328TIP3    H166452   5.017   0.026  18.179
 5328TIP3    H266453   5.085   0.080  18.055
 5329TIP3   OH266454   5.346   1.659  17.945
 5329TIP3    H166455   5.308   1.657  17.857
 5329TIP3    H266456   5.357   1.753  17.964
 5330TIP3   OH266457   7.227   1.250  17.150
 5330TIP3    H166458   7.201   1.181  17.211
 5330TIP3    H266459   7.210   1.331  17.198
 5331TIP3   OH266460   6.014   1.290  17.357
 5331TIP3    H166461   5.968   1.207  17.351
 5331TIP3    H266462   5.983   1.340  17.281
 5332TIP3   OH266463   5.778   1.003  17.086
 5332TIP3    H166464   5.798   0.910  17.089
 5332TIP3    H266465   5.804   1.031  16.998
 5333TIP3   OH266466   6.849   1.762  17.140
 5333TIP3    H166467   6.868   1.694  17.074
 5333TIP3    H266468   6.772   1.729  17.186
 5334TIP3   OH266469   7.428   0.353  17.374
 5334TIP3    H166470   7.430   0.424  17.438
 5334TIP3    H266471   7.489   0.381  17.305
 5335TIP3   OH266472   6.869   0.629  17.404
 5335TIP3    H166473   6.915   0.551  17.375
 5335TIP3    H266474   6.788   0.629  17.352
 5336TIP3   OH266475   6.274   0.603  16.994
 5336TIP3    H166476   6.210   0.662  17.033
 5336TIP3    H266477   6.222   0.533  16.954
 5337TIP3   OH266478   7.000   0.433  16.873
 5337TIP3    H166479   7.029   0.423  16.964
 5337TIP3    H266480   7.058   0.501  16.837
 5338TIP3   OH266481   5.871   0.743  17.087
 5338TIP3    H166482   5.931   0.697  17.146
 5338TIP3    H266483   5.869   0.688  17.008
 5339TIP3   OH266484   7.419   0.510  17.599
 5339TIP3    H166485   7.361   0.585  17.586
 5339TIP3    H266486   7.474   0.535  17.673
 5340TIP3   OH266487   6.055   0.441  17.541
 5340TIP3    H166488   5.994   0.417  17.471
 5340TIP3    H266489   5.999   0.479  17.609
 5341TIP3   OH266490   6.728   1.172  16.780
 5341TIP3    H166491   6.719   1.179  16.685
 5341TIP3    H266492   6.730   1.262  16.811
 5342TIP3   OH266493   7.117   0.430  17.119
 5342TIP3    H166494   7.068   0.384  17.188
 5342TIP3    H266495   7.168   0.496  17.166
 5343TIP3   OH266496   6.048   0.603  17.249
 5343TIP3    H166497   6.106   0.636  17.318
 5343TIP3    H266498   6.087   0.519  17.224
 5344TIP3   OH266499   6.099   1.403  17.592
 5344TIP3    H166500   6.091   1.369  17.503
 5344TIP3    H266501   6.060   1.335  17.647
 5345TIP3   OH266502   5.787   1.334  16.618
 5345TIP3    H166503   5.736   1.380  16.551
 5345TIP3    H266504   5.802   1.400  16.686
 5346TIP3   OH266505   7.170   1.460  17.320
 5346TIP3    H166506   7.080   1.454  17.354
 5346TIP3    H266507   7.181   1.552  17.296
 5347TIP3   OH266508   7.191   0.256  17.481
 5347TIP3    H166509   7.117   0.304  17.444
 5347TIP3    H266510   7.268   0.295  17.440
 5348TIP3   OH266511   6.642   0.095  17.135
 5348TIP3    H166512   6.622   0.013  17.090
 5348TIP3    H266513   6.584   0.160  17.096
 5349TIP3   OH266514   6.947   1.587  16.938
 5349TIP3    H166515   6.989   1.502  16.930
 5349TIP3    H266516   7.019   1.650  16.937
 5350TIP3   OH266517   7.094   1.356  16.911
 5350TIP3    H166518   7.121   1.316  16.829
 5350TIP3    H266519   7.148   1.314  16.977
 5351TIP3   OH266520   7.198   1.249  17.735
 5351TIP3    H166521   7.127   1.202  17.691
 5351TIP3    H266522   7.218   1.322  17.676
 5352TIP3   OH266523   7.388   0.924  17.534
 5352TIP3    H166524   7.388   1.017  17.557
 5352TIP3    H266525   7.439   0.919  17.453
 5353TIP3   OH266526   7.048   0.955  16.685
 5353TIP3    H166527   6.971   0.980  16.737
 5353TIP3    H266528   7.109   0.919  16.749
 5354TIP3   OH266529   6.938   1.470  17.462
 5354TIP3    H166530   6.910   1.561  17.454
 5354TIP3    H266531   6.922   1.447  17.553
 5355TIP3   OH266532   5.973   0.997  17.608
 5355TIP3    H166533   5.972   1.069  17.671
 5355TIP3    H266534   5.937   1.034  17.528
 5356TIP3   OH266535   6.724   1.445  16.827
 5356TIP3    H166536   6.790   1.503  16.866
 5356TIP3    H266537   6.680   1.501  16.762
 5357TIP3   OH266538   6.147   1.517  17.843
 5357TIP3    H166539   6.150   1.496  17.750
 5357TIP3    H266540   6.055   1.504  17.868
 5358TIP3   OH266541   7.309   0.085  16.529
 5358TIP3    H166542   7.221   0.074  16.492
 5358TIP3    H266543   7.303   0.166  16.580
 5359TIP3   OH266544   7.400   1.492  16.368
 5359TIP3    H166545   7.428   1.580  16.343
 5359TIP3    H266546   7.481   1.444  16.381
 5360TIP3   OH266547   5.738   1.490  17.322
 5360TIP3    H166548   5.813   1.509  17.379
 5360TIP3    H266549   5.679   1.565  17.334
 5361TIP3   OH266550   7.523   1.550  17.897
 5361TIP3    H166551   7.502   1.460  17.870
 5361TIP3    H266552   7.438   1.591  17.910
 5362TIP3   OH266553   6.719   1.836  16.754
 5362TIP3    H166554   6.661   1.765  16.727
 5362TIP3    H266555   6.660   1.908  16.775
 5363TIP3   OH266556   6.007   1.722  16.910
 5363TIP3    H166557   6.051   1.657  16.965
 5363TIP3    H266558   5.936   1.673  16.867
 5364TIP3   OH266559   6.984   1.733  16.401
 5364TIP3    H166560   7.019   1.644  16.394
 5364TIP3    H266561   6.983   1.751  16.495
 5365TIP3   OH266562   6.966   1.761  16.673
 5365TIP3    H166563   6.877   1.783  16.701
 5365TIP3    H266564   7.000   1.707  16.744
 5366TIP3   OH266565   7.215   0.672  17.980
 5366TIP3    H166566   7.144   0.731  17.956
 5366TIP3    H266567   7.206   0.598  17.919
 5367TIP3   OH266568   5.932   1.241  17.748
 5367TIP3    H166569   5.928   1.297  17.825
 5367TIP3    H266570   5.850   1.259  17.701
 5368TIP3   OH266571   6.130   0.349  17.193
 5368TIP3    H166572   6.056   0.294  17.168
 5368TIP3    H266573   6.204   0.288  17.201
 5369TIP3   OH266574   6.814   0.105  17.707
 5369TIP3    H166575   6.771   0.133  17.788
 5369TIP3    H266576   6.747   0.054  17.661
 5370TIP3   OH266577   6.956   0.501  17.700
 5370TIP3    H166578   6.910   0.480  17.781
 5370TIP3    H266579   6.907   0.574  17.662
 5371TIP3   OH266580   6.766   0.382  16.341
 5371TIP3    H166581   6.711   0.375  16.419
 5371TIP3    H266582   6.706   0.366  16.268
 5372TIP3   OH266583   6.098   0.760  17.658
 5372TIP3    H166584   6.049   0.840  17.641
 5372TIP3    H266585   6.032   0.695  17.682
 5373TIP3   OH266586   5.580   0.455  16.906
 5373TIP3    H166587   5.541   0.543  16.901
 5373TIP3    H266588   5.609   0.437  16.817
 5374TIP3   OH266589   6.537   0.534  17.025
 5374TIP3    H166590   6.448   0.570  17.027
 5374TIP3    H266591   6.524   0.439  17.029
 5375TIP3   OH266592   5.885   0.578  16.861
 5375TIP3    H166593   5.826   0.587  16.786
 5375TIP3    H266594   5.966   0.544  16.823
 5376TIP3   OH266595   6.962   0.366  17.358
 5376TIP3    H166596   6.897   0.352  17.427
 5376TIP3    H266597   6.926   0.322  17.281
 5377TIP3   OH266598   7.243   1.935  17.947
 5377TIP3    H166599   7.261   1.930  17.853
 5377TIP3    H266600   7.272   2.023  17.972
 5378TIP3   OH266601   6.121   0.402  16.879
 5378TIP3    H166602   6.051   0.380  16.940
 5378TIP3    H266603   6.161   0.318  16.858
 5379TIP3   OH266604   6.472   0.647  17.494
 5379TIP3    H166605   6.413   0.574  17.513
 5379TIP3    H266606   6.547   0.634  17.553
 5380TIP3   OH266607   7.009   0.445  16.445
 5380TIP3    H166608   6.926   0.431  16.399
 5380TIP3    H266609   7.004   0.535  16.477
 5381TIP3   OH266610   7.042   0.692  16.563
 5381TIP3    H166611   7.100   0.656  16.629
 5381TIP3    H266612   7.035   0.785  16.585
 5382TIP3   OH266613   6.894   1.450  17.738
 5382TIP3    H166614   6.816   1.396  17.722
 5382TIP3    H266615   6.907   1.446  17.832
 5383TIP3   OH266616   7.431   0.664  16.617
 5383TIP3    H166617   7.463   0.589  16.566
 5383TIP3    H266618   7.426   0.736  16.554
 5384TIP3   OH266619   7.455   1.290  17.824
 5384TIP3    H166620   7.360   1.289  17.828
 5384TIP3    H266621   7.475   1.259  17.735
 5385TIP3   OH266622   7.272   1.506  16.614
 5385TIP3    H166623   7.229   1.424  16.638
 5385TIP3    H266624   7.306   1.490  16.526
 5386TIP3   OH266625   5.893   0.969  16.327
 5386TIP3    H166626   5.915   1.039  16.387
 5386TIP3    H266627   5.923   0.889  16.370
 5387TIP3   OH266628   6.277   1.735  16.825
 5387TIP3    H166629   6.183   1.752  16.839
 5387TIP3    H266630   6.320   1.811  16.864
 5388TIP3   OH266631   7.080   1.661  17.695
 5388TIP3    H166632   7.009   1.598  17.704
 5388TIP3    H266633   7.051   1.721  17.625
 5389TIP3   OH266634   7.488   1.776  16.364
 5389TIP3    H166635   7.554   1.837  16.398
 5389TIP3    H266636   7.405   1.812  16.394
 5390TIP3   OH266637   5.925   0.569  17.765
 5390TIP3    H166638   5.834   0.592  17.784
 5390TIP3    H266639   5.950   0.512  17.837
 5391TIP3   OH266640   7.181   1.228  16.673
 5391TIP3    H166641   7.120   1.157  16.655
 5391TIP3    H266642   7.267   1.193  16.650
 5392TIP3   OH266643   5.936   1.615  17.493
 5392TIP3    H166644   6.001   1.556  17.532
 5392TIP3    H266645   5.942   1.694  17.546
 5393TIP3   OH266646   5.964   1.200  16.456
 5393TIP3    H166647   5.910   1.236  16.527
 5393TIP3    H266648   6.046   1.250  16.461
 5394TIP3   OH266649   6.790   0.333  17.568
 5394TIP3    H166650   6.859   0.386  17.608
 5394TIP3    H266651   6.802   0.246  17.605
 5395TIP3   OH266652   6.968   0.274  16.656
 5395TIP3    H166653   6.977   0.329  16.579
 5395TIP3    H266654   6.969   0.335  16.730
 5396TIP3   OH266655   6.599   1.614  16.635
 5396TIP3    H166656   6.508   1.589  16.617
 5396TIP3    H266657   6.631   1.649  16.552
 5397TIP3   OH266658   6.675   0.546  16.790
 5397TIP3    H166659   6.735   0.619  16.806
 5397TIP3    H266660   6.622   0.541  16.869
 5398TIP3   OH266661   6.655   0.552  17.677
 5398TIP3    H166662   6.638   0.526  17.768
 5398TIP3    H266663   6.687   0.473  17.635
 5399TIP3   OH266664   6.755   0.244  16.834
 5399TIP3    H166665   6.786   0.325  16.875
 5399TIP3    H266666   6.794   0.243  16.747
 5400TIP3   OH266667   6.320   1.612  16.577
 5400TIP3    H166668   6.340   1.691  16.526
 5400TIP3    H266669   6.300   1.645  16.664
 5401TIP3   OH266670   6.112   0.468  16.401
 5401TIP3    H166671   6.091   0.559  16.422
 5401TIP3    H266672   6.204   0.458  16.427
 5402TIP3   OH266673   7.212   0.473  17.794
 5402TIP3    H166674   7.127   0.470  17.749
 5402TIP3    H266675   7.276   0.451  17.726
 5403TIP3   OH266676   7.223   1.729  17.298
 5403TIP3    H166677   7.208   1.788  17.224
 5403TIP3    H266678   7.317   1.737  17.316
 5404TIP3   OH266679   5.978   8.038  16.993
 5404TIP3    H166680   5.951   8.074  16.908
 5404TIP3    H266681   5.911   7.974  17.014
 5405TIP3   OH266682   5.813   1.568  16.774
 5405TIP3    H166683   5.726   1.591  16.806
 5405TIP3    H266684   5.823   1.618  16.693
 5406TIP3   OH266685   5.780   1.792  17.960
 5406TIP3    H166686   5.813   1.742  18.035
 5406TIP3    H266687   5.724   1.731  17.913
 5407TIP3   OH266688   6.276   1.636  18.054
 5407TIP3    H166689   6.359   1.588  18.052
 5407TIP3    H266690   6.225   1.600  17.981
 5408TIP3   OH266691   6.911   1.445  18.019
 5408TIP3    H166692   6.883   1.381  18.084
 5408TIP3    H266693   6.992   1.482  18.054
 5409TIP3   OH266694   5.766   1.159  18.040
 5409TIP3    H166695   5.791   1.084  17.986
 5409TIP3    H266696   5.683   1.188  18.004
 5410TIP3   OH266697   5.884   0.906  17.976
 5410TIP3    H166698   5.916   0.816  17.966
 5410TIP3    H266699   5.869   0.915  18.070
 5411TIP3   OH266700   6.285   0.617  17.795
 5411TIP3    H166701   6.307   0.553  17.727
 5411TIP3    H266702   6.231   0.682  17.751
 5412TIP3   OH266703   6.318   0.434  17.592
 5412TIP3    H166704   6.324   0.340  17.607
 5412TIP3    H266705   6.227   0.448  17.563
 5413TIP3   OH266706   7.032   0.749  18.220
 5413TIP3    H166707   7.100   0.688  18.192
 5413TIP3    H266708   7.008   0.798  18.140
 5414TIP3   OH266709   7.045   0.896  17.974
 5414TIP3    H166710   6.972   0.945  17.937
 5414TIP3    H266711   7.123   0.947  17.951
 5415TIP3   OH266712   6.186   0.619  18.064
 5415TIP3    H166713   6.091   0.623  18.074
 5415TIP3    H266714   6.201   0.619  17.970
 5416TIP3   OH266715   6.624   8.102  17.576
 5416TIP3    H166716   6.572   8.128  17.500
 5416TIP3    H266717   6.671   8.024  17.547
 5417TIP3   OH266718   6.508   0.505  17.933
 5417TIP3    H166719   6.475   0.511  18.023
 5417TIP3    H266720   6.444   0.555  17.882
 5418TIP3   OH266721   6.812   0.421  17.916
 5418TIP3    H166722   6.736   0.446  17.969
 5418TIP3    H266723   6.869   0.374  17.977
 5419TIP3   OH266724   6.964   0.284  18.104
 5419TIP3    H166725   6.965   0.189  18.115
 5419TIP3    H266726   6.942   0.318  18.191
 5420TIP3   OH266727   5.941   0.409  17.991
 5420TIP3    H166728   5.909   0.321  17.968
 5420TIP3    H266729   5.973   0.400  18.080
 5421TIP3   OH266730   6.566   0.029  17.834
 5421TIP3    H166731   6.619   8.097  17.860
 5421TIP3    H266732   6.558   0.022  17.739
 5422TIP3   OH266733   6.568   0.253  18.017
 5422TIP3    H166734   6.565   0.189  17.946
 5422TIP3    H266735   6.542   0.335  17.976
 5423TIP3   OH266736   6.428   1.849  16.455
 5423TIP3    H166737   6.519   1.828  16.438
 5423TIP3    H266738   6.427   1.944  16.470
 5424TIP3   OH266739   5.788   1.362  16.302
 5424TIP3    H166740   5.847   1.299  16.343
 5424TIP3    H266741   5.797   1.345  16.208
 5425TIP3   OH266742   5.685   1.890  16.888
 5425TIP3    H166743   5.617   1.860  16.826
 5425TIP3    H266744   5.692   1.819  16.951
 5426TIP3   OH266745   5.712   1.678  17.065
 5426TIP3    H166746   5.687   1.593  17.102
 5426TIP3    H266747   5.774   1.714  17.129
 5427TIP3   OH266748   7.481   1.769  17.374
 5427TIP3    H166749   7.487   1.746  17.466
 5427TIP3    H266750   7.525   1.854  17.367
 5428TIP3   OH266751   7.454   1.687  17.637
 5428TIP3    H166752   7.399   1.611  17.619
 5428TIP3    H266753   7.518   1.656  17.701
 5429TIP3   OH266754   7.431   1.116  16.626
 5429TIP3    H166755   7.493   1.187  16.644
 5429TIP3    H266756   7.438   1.059  16.703
 5430TIP3   OH266757   7.446   0.964  16.850
 5430TIP3    H166758   7.361   0.920  16.860
 5430TIP3    H266759   7.463   1.002  16.936
 5431TIP3   OH266760   7.479   1.257  17.308
 5431TIP3    H166761   7.423   1.243  17.232
 5431TIP3    H266762   7.511   1.346  17.298
 5432TIP3   OH266763   7.267   1.484  17.583
 5432TIP3    H166764   7.198   1.545  17.609
 5432TIP3    H266765   7.250   1.466  17.490
 5433TIP3   OH266766   7.439   0.892  16.458
 5433TIP3    H166767   7.407   0.911  16.370
 5433TIP3    H266768   7.426   0.974  16.507
 5434TIP3   OH266769   7.210   0.822  16.866
 5434TIP3    H166770   7.213   0.727  16.852
 5434TIP3    H266771   7.181   0.831  16.957
 5435TIP3   OH266772   5.869   1.049  17.345
 5435TIP3    H166773   5.821   1.064  17.263
 5435TIP3    H266774   5.885   0.954  17.347
 5436TIP3   OH266775   7.286   1.015  17.901
 5436TIP3    H166776   7.350   0.948  17.877
 5436TIP3    H266777   7.284   1.075  17.826
 5437TIP3   OH266778   7.449   0.791  17.902
 5437TIP3    H166779   7.370   0.741  17.923
 5437TIP3    H266780   7.517   0.753  17.958
 5438TIP3   OH266781   7.230   0.358  16.305
 5438TIP3    H166782   7.303   0.363  16.366
 5438TIP3    H266783   7.153   0.382  16.357
 5439TIP3   OH266784   7.218   0.562  16.748
 5439TIP3    H166785   7.234   0.468  16.741
 5439TIP3    H266786   7.294   0.603  16.708
 5440TIP3   OH266787   7.237   0.605  17.288
 5440TIP3    H166788   7.331   0.619  17.276
 5440TIP3    H266789   7.221   0.626  17.380
 5441TIP3   OH266790   7.230   0.704  17.548
 5441TIP3    H166791   7.139   0.734  17.559
 5441TIP3    H266792   7.281   0.785  17.546
 5442TIP3   OH266793   5.693   0.529  17.969
 5442TIP3    H166794   5.770   0.474  17.980
 5442TIP3    H266795   5.626   0.470  17.936
 5443TIP3   OH266796   7.518   0.136  18.153
 5443TIP3    H166797   7.514   0.055  18.103
 5443TIP3    H266798   7.499   0.205  18.089
 5444TIP3   OH266799   7.244   0.281  16.724
 5444TIP3    H166800   7.278   0.238  16.803
 5444TIP3    H266801   7.150   0.262  16.725
 5445TIP3   OH266802   5.864   0.409  17.335
 5445TIP3    H166803   5.877   0.348  17.263
 5445TIP3    H266804   5.897   0.493  17.302
 5446TIP3   OH266805   7.424   0.298  17.945
 5446TIP3    H166806   7.350   0.332  17.995
 5446TIP3    H266807   7.385   0.254  17.870
 5447TIP3   OH266808   5.633   0.377  16.647
 5447TIP3    H166809   5.541   0.354  16.653
 5447TIP3    H266810   5.660   0.347  16.561
 5448TIP3   OH266811   7.152   1.763  16.912
 5448TIP3    H166812   7.227   1.761  16.853
 5448TIP3    H266813   7.178   1.821  16.983
 5449TIP3   OH266814   5.490   0.199  17.513
 5449TIP3    H166815   5.484   0.159  17.600
 5449TIP3    H266816   5.445   0.283  17.522
 5450TIP3   OH266817   5.879   1.467  17.911
 5450TIP3    H166818   5.796   1.504  17.882
 5450TIP3    H266819   5.886   1.494  18.003
 5451TIP3   OH266820   6.814   1.843  17.843
 5451TIP3    H166821   6.885   1.810  17.788
 5451TIP3    H266822   6.857   1.873  17.923
 5452TIP3   OH266823   7.319   0.168  17.723
 5452TIP3    H166824   7.259   0.207  17.659
 5452TIP3    H266825   7.361   0.096  17.676
 5453TIP3   OH266826   5.940   1.883  17.599
 5453TIP3    H166827   5.880   1.946  17.558
 5453TIP3    H266828   5.951   1.915  17.688
 5454TIP3   OH266829   6.199   1.860  17.495
 5454TIP3    H166830   6.109   1.863  17.528
 5454TIP3    H266831   6.197   1.914  17.417
 5455TIP3   OH266832   6.647   1.827  17.390
 5455TIP3    H166833   6.584   1.863  17.328
 5455TIP3    H266834   6.642   1.884  17.466
 5456TIP3   OH266835   6.889   1.740  17.491
 5456TIP3    H166836   6.804   1.762  17.455
 5456TIP3    H266837   6.945   1.814  17.469
 5457TIP3   OH266838   7.128   1.904  17.487
 5457TIP3    H166839   7.129   1.988  17.442
 5457TIP3    H266840   7.158   1.841  17.422
 5458TIP3   OH266841   5.885   1.767  17.267
 5458TIP3    H166842   5.917   1.710  17.336
 5458TIP3    H266843   5.963   1.806  17.228
 5459TIP3   OH266844   6.866   0.242  17.145
 5459TIP3    H166845   6.783   0.196  17.154
 5459TIP3    H266846   6.913   0.196  17.076
 5460TIP3   OH266847   7.178   0.065  17.091
 5460TIP3    H166848   7.247   0.104  17.037
 5460TIP3    H266849   7.097   0.082  17.043
 5461TIP3   OH266850   7.381   0.147  16.922
 5461TIP3    H166851   7.432   0.069  16.943
 5461TIP3    H266852   7.438   0.220  16.946
 5462TIP3   OH266853   5.918   8.141  16.749
 5462TIP3    H166854   5.834   0.034  16.721
 5462TIP3    H266855   5.946   8.086  16.676
 5463TIP3   OH266856   5.673   0.049  16.599
 5463TIP3    H166857   5.687   0.108  16.525
 5463TIP3    H266858   5.580   0.059  16.619
 5464TIP3   OH266859   6.512   0.266  16.960
 5464TIP3    H166860   6.593   0.252  16.911
 5464TIP3    H266861   6.445   0.277  16.893
 5465TIP3   OH266862   6.948   0.073  16.945
 5465TIP3    H166863   6.873   0.111  16.900
 5465TIP3    H266864   6.964   8.134  16.899
 5466TIP3   OH266865   7.020   0.025  16.550
 5466TIP3    H166866   6.992   0.111  16.581
 5466TIP3    H266867   7.066   8.130  16.625
 5467TIP3   OH266868   5.834   1.713  16.543
 5467TIP3    H166869   5.756   1.700  16.489
 5467TIP3    H266870   5.843   1.808  16.551
 5468TIP3   OH266871   6.049   0.313  16.170
 5468TIP3    H166872   5.965   0.268  16.182
 5468TIP3    H266873   6.056   0.373  16.244
 5469TIP3   OH266874   6.629   0.380  16.580
 5469TIP3    H166875   6.577   0.313  16.625
 5469TIP3    H266876   6.652   0.442  16.649
 5470TIP3   OH266877   6.682   1.753  16.404
 5470TIP3    H166878   6.775   1.775  16.399
 5470TIP3    H266879   6.667   1.693  16.331
 5471TIP3   OH266880   7.353   1.748  16.718
 5471TIP3    H166881   7.326   1.661  16.689
 5471TIP3    H266882   7.334   1.805  16.643
 5472TIP3   OH266883   5.781   0.182  17.951
 5472TIP3    H166884   5.837   0.130  18.009
 5472TIP3    H266885   5.785   0.137  17.867
 5473TIP3   OH266886   5.982   0.092  18.114
 5473TIP3    H166887   6.021   0.096  18.027
 5473TIP3    H266888   6.018   0.012  18.153
 5474TIP3   OH266889   6.013   1.799  16.306
 5474TIP3    H166890   5.971   1.737  16.367
 5474TIP3    H266891   6.095   1.756  16.281
 5475TIP3   OH266892   6.961   0.006  18.143
 5475TIP3    H166893   7.037   8.118  18.192
 5475TIP3    H266894   6.955   8.091  18.067
 5476TIP3   OH266895   7.267   1.660  17.905
 5476TIP3    H166896   7.209   1.655  17.829
 5476TIP3    H266897   7.266   1.753  17.929
 5477TIP3   OH266898   7.811   0.865  17.478
 5477TIP3    H166899   7.829   0.772  17.491
 5477TIP3    H266900   7.757   0.890  17.553
 5478TIP3   OH266901   8.020   1.397  17.235
 5478TIP3    H166902   7.950   1.348  17.193
 5478TIP3    H266903   7.999   1.395  17.328
 5479TIP3   OH266904   7.617   0.756  16.801
 5479TIP3    H166905   7.573   0.839  16.816
 5479TIP3    H266906   7.559   0.708  16.741
 5480TIP3   OH266907   7.576   1.041  17.082
 5480TIP3    H166908   7.636   0.969  17.065
 5480TIP3    H266909   7.628   1.120  17.066
 5481TIP3   OH266910   7.770   0.630  17.245
 5481TIP3    H166911   7.860   0.630  17.278
 5481TIP3    H266912   7.770   0.697  17.177
 5482TIP3   OH266913   8.014   1.395  17.514
 5482TIP3    H166914   8.080   1.458  17.542
 5482TIP3    H266915   8.044   1.311  17.550
 5483TIP3   OH266916   7.615   1.312  16.692
 5483TIP3    H166917   7.614   1.348  16.603
 5483TIP3    H266918   7.648   1.384  16.746
 5484TIP3   OH266919   0.024   1.269  16.786
 5484TIP3    H166920   8.121   1.258  16.703
 5484TIP3    H266921   0.068   1.186  16.800
 5485TIP3   OH266922   7.854   0.774  17.788
 5485TIP3    H166923   7.861   0.821  17.872
 5485TIP3    H266924   7.769   0.800  17.752
 5486TIP3   OH266925   8.050   1.692  17.845
 5486TIP3    H166926   8.095   1.650  17.771
 5486TIP3    H266927   7.961   1.707  17.813
 5487TIP3   OH266928   7.856   0.915  16.660
 5487TIP3    H166929   7.846   1.010  16.657
 5487TIP3    H266930   7.949   0.900  16.642
 5488TIP3   OH266931   7.472   1.182  17.571
 5488TIP3    H166932   7.456   1.215  17.482
 5488TIP3    H266933   7.565   1.161  17.573
 5489TIP3   OH266934   7.577   1.518  17.296
 5489TIP3    H166935   7.654   1.537  17.350
 5489TIP3    H266936   7.520   1.595  17.308
 5490TIP3   OH266937   7.921   1.732  16.897
 5490TIP3    H166938   7.968   1.703  16.975
 5490TIP3    H266939   7.880   1.652  16.863
 5491TIP3   OH266940   7.855   1.547  17.689
 5491TIP3    H166941   7.843   1.502  17.772
 5491TIP3    H266942   7.912   1.489  17.638
 5492TIP3   OH266943   8.023   0.613  17.365
 5492TIP3    H166944   7.974   0.611  17.447
 5492TIP3    H266945   8.114   0.597  17.391
 5493TIP3   OH266946   0.001   0.571  16.709
 5493TIP3    H166947   0.036   0.560  16.797
 5493TIP3    H266948   8.071   0.510  16.705
 5494TIP3   OH266949   7.865   0.602  17.580
 5494TIP3    H166950   7.873   0.651  17.662
 5494TIP3    H266951   7.825   0.519  17.605
 5495TIP3   OH266952   7.561   0.347  16.954
 5495TIP3    H166953   7.581   0.383  17.040
 5495TIP3    H266954   7.597   0.412  16.892
 5496TIP3   OH266955   7.556   0.418  16.555
 5496TIP3    H166956   7.601   0.442  16.475
 5496TIP3    H266957   7.616   0.444  16.625
 5497TIP3   OH266958   7.712   0.495  16.770
 5497TIP3    H166959   7.717   0.589  16.783
 5497TIP3    H266960   7.803   0.465  16.777
 5498TIP3   OH266961   0.060   0.629  16.358
 5498TIP3    H166962   8.113   0.655  16.371
 5498TIP3    H266963   0.108   0.673  16.427
 5499TIP3   OH266964   7.850   0.896  18.029
 5499TIP3    H166965   7.939   0.905  18.064
 5499TIP3    H266966   7.796   0.948  18.089
 5500TIP3   OH266967   7.947   0.351  16.794
 5500TIP3    H166968   7.911   0.289  16.857
 5500TIP3    H266969   7.984   0.296  16.725
 5501TIP3   OH266970   7.901   1.082  17.342
 5501TIP3    H166971   7.983   1.053  17.302
 5501TIP3    H266972   7.872   1.008  17.394
 5502TIP3   OH266973   7.610   0.848  17.689
 5502TIP3    H166974   7.558   0.823  17.765
 5502TIP3    H266975   7.545   0.872  17.623
 5503TIP3   OH266976   7.695   0.791  16.476
 5503TIP3    H166977   7.730   0.831  16.556
 5503TIP3    H266978   7.609   0.832  16.464
 5504TIP3   OH266979   7.755   0.367  17.679
 5504TIP3    H166980   7.710   0.312  17.616
 5504TIP3    H266981   7.808   0.307  17.731
 5505TIP3   OH266982   7.757   1.658  17.464
 5505TIP3    H166983   7.788   1.605  17.537
 5505TIP3    H266984   7.760   1.748  17.496
 5506TIP3   OH266985   7.851   1.181  16.635
 5506TIP3    H166986   7.769   1.215  16.673
 5506TIP3    H266987   7.885   1.254  16.582
 5507TIP3   OH266988   8.059   0.315  16.524
 5507TIP3    H166989   7.974   0.330  16.483
 5507TIP3    H266990   8.122   0.330  16.453
 5508TIP3   OH266991   7.930   1.410  16.503
 5508TIP3    H166992   7.940   1.495  16.547
 5508TIP3    H266993   8.020   1.379  16.490
 5509TIP3   OH266994   7.652   0.556  16.332
 5509TIP3    H166995   7.677   0.635  16.380
 5509TIP3    H266996   7.589   0.588  16.266
 5510TIP3   OH266997   7.726   1.539  16.806
 5510TIP3    H166998   7.682   1.575  16.884
 5510TIP3    H266999   7.704   1.600  16.736
 5511TIP3   OH267000   7.708   1.763  17.953
 5511TIP3    H167001   7.738   1.748  18.043
 5511TIP3    H267002   7.636   1.701  17.941
 5512TIP3   OH267003   7.564   1.221  18.070
 5512TIP3    H167004   7.608   1.137  18.065
 5512TIP3    H267005   7.531   1.237  17.981
 5513TIP3   OH267006   7.669   0.692  18.030
 5513TIP3    H167007   7.679   0.636  17.954
 5513TIP3    H267008   7.737   0.759  18.020
 5514TIP3   OH267009   8.064   0.475  17.822
 5514TIP3    H167010   7.983   0.514  17.854
 5514TIP3    H267011   8.056   0.382  17.842
 5515TIP3   OH267012   7.849   0.465  17.992
 5515TIP3    H167013   7.862   0.379  17.952
 5515TIP3    H267014   7.764   0.459  18.036
 5516TIP3   OH267015   7.650   1.364  16.424
 5516TIP3    H167016   7.737   1.402  16.432
 5516TIP3    H267017   7.664   1.279  16.384
 5517TIP3   OH267018   7.555   1.850  16.874
 5517TIP3    H167019   7.491   1.816  16.813
 5517TIP3    H267020   7.574   1.778  16.933
 5518TIP3   OH267021   7.622   1.643  17.042
 5518TIP3    H167022   7.588   1.578  17.104
 5518TIP3    H267023   7.681   1.697  17.095
 5519TIP3   OH267024   7.570   0.926  17.334
 5519TIP3    H167025   7.565   0.987  17.260
 5519TIP3    H267026   7.662   0.925  17.359
 5520TIP3   OH267027   7.579   0.504  17.837
 5520TIP3    H167028   7.641   0.457  17.782
 5520TIP3    H267029   7.524   0.436  17.876
 5521TIP3   OH267030   7.666   0.382  17.209
 5521TIP3    H167031   7.744   0.327  17.202
 5521TIP3    H267032   7.699   0.469  17.228
 5522TIP3   OH267033   7.502   0.664  17.294
 5522TIP3    H167034   7.592   0.634  17.285
 5522TIP3    H267035   7.509   0.759  17.306
 5523TIP3   OH267036   7.570   0.169  16.685
 5523TIP3    H167037   7.498   0.187  16.745
 5523TIP3    H267038   7.567   0.241  16.622
 5524TIP3   OH267039   7.595   0.203  17.529
 5524TIP3    H167040   7.559   0.115  17.529
 5524TIP3    H267041   7.532   0.254  17.478
 5525TIP3   OH267042   7.784   1.454  17.942
 5525TIP3    H167043   7.694   1.486  17.932
 5525TIP3    H267044   7.829   1.526  17.987
 5526TIP3   OH267045   0.026   1.601  17.607
 5526TIP3    H167046   8.139   1.683  17.568
 5526TIP3    H267047   0.121   1.607  17.602
 5527TIP3   OH267048   7.792   1.901  17.580
 5527TIP3    H167049   7.725   1.957  17.541
 5527TIP3    H267050   7.808   1.939  17.667
 5528TIP3   OH267051   8.061   1.839  17.514
 5528TIP3    H167052   7.970   1.857  17.538
 5528TIP3    H267053   8.074   1.884  17.431
 5529TIP3   OH267054   7.792   1.772  17.217
 5529TIP3    H167055   7.780   1.732  17.302
 5529TIP3    H267056   7.878   1.743  17.188
 5530TIP3   OH267057   8.031   1.658  17.143
 5530TIP3    H167058   8.037   1.566  17.170
 5530TIP3    H267059   8.109   1.698  17.181
 5531TIP3   OH267060   7.775   0.173  16.958
 5531TIP3    H167061   7.699   0.231  16.947
 5531TIP3    H267062   7.762   0.104  16.893
 5532TIP3   OH267063   7.664   1.700  16.594
 5532TIP3    H167064   7.590   1.678  16.536
 5532TIP3    H267065   7.675   1.794  16.584
 5533TIP3   OH267066   7.911   0.227  17.870
 5533TIP3    H167067   7.882   0.155  17.926
 5533TIP3    H267068   7.959   0.184  17.799
 5534TIP3   OH267069   7.907   1.956  16.358
 5534TIP3    H167070   7.840   1.938  16.424
 5534TIP3    H267071   7.959   2.027  16.396
 5535TIP3   OH267072   1.173   2.921  16.928
 5535TIP3    H167073   1.173   3.016  16.912
 5535TIP3    H267074   1.123   2.885  16.854
 5536TIP3   OH267075   1.099   2.847  17.303
 5536TIP3    H167076   1.121   2.795  17.381
 5536TIP3    H267077   1.116   2.789  17.229
 5537TIP3   OH267078   0.316   2.867  17.418
 5537TIP3    H167079   0.291   2.870  17.511
 5537TIP3    H267080   0.408   2.892  17.417
 5538TIP3   OH267081   0.441   3.279  17.271
 5538TIP3    H167082   0.404   3.196  17.241
 5538TIP3    H267083   0.536   3.264  17.273
 5539TIP3   OH267084   0.091   2.659  16.689
 5539TIP3    H167085   0.011   2.710  16.676
 5539TIP3    H267086   0.111   2.624  16.602
 5540TIP3   OH267087   0.099   2.756  17.075
 5540TIP3    H167088   0.062   2.681  17.029
 5540TIP3    H267089   0.133   2.813  17.005
 5541TIP3   OH267090   0.929   3.074  17.271
 5541TIP3    H167091   0.993   3.003  17.268
 5541TIP3    H267092   0.956   3.128  17.345
 5542TIP3   OH267093   1.839   2.232  17.466
 5542TIP3    H167094   1.798   2.293  17.527
 5542TIP3    H267095   1.863   2.287  17.391
 5543TIP3   OH267096   1.228   2.498  17.305
 5543TIP3    H167097   1.258   2.408  17.318
 5543TIP3    H267098   1.224   2.509  17.210
 5544TIP3   OH267099   1.378   2.302  16.915
 5544TIP3    H167100   1.397   2.226  16.970
 5544TIP3    H267101   1.460   2.319  16.868
 5545TIP3   OH267102   1.747   2.396  17.670
 5545TIP3    H167103   1.713   2.478  17.634
 5545TIP3    H267104   1.829   2.421  17.714
 5546TIP3   OH267105   1.169   3.185  16.831
 5546TIP3    H167106   1.169   3.178  16.735
 5546TIP3    H267107   1.137   3.274  16.849
 5547TIP3   OH267108   0.574   3.230  17.577
 5547TIP3    H167109   0.579   3.325  17.573
 5547TIP3    H267110   0.481   3.210  17.572
 5548TIP3   OH267111   0.112   3.173  16.620
 5548TIP3    H167112   0.127   3.185  16.527
 5548TIP3    H267113   0.154   3.248  16.662
 5549TIP3   OH267114   1.578   3.167  17.689
 5549TIP3    H167115   1.574   3.102  17.620
 5549TIP3    H267116   1.560   3.250  17.645
 5550TIP3   OH267117   1.063   2.838  16.683
 5550TIP3    H167118   0.995   2.900  16.657
 5550TIP3    H267119   1.127   2.841  16.612
 5551TIP3   OH267120   1.143   2.681  16.334
 5551TIP3    H167121   1.185   2.732  16.403
 5551TIP3    H267122   1.208   2.614  16.311
 5552TIP3   OH267123   1.397   2.843  16.781
 5552TIP3    H167124   1.332   2.862  16.848
 5552TIP3    H267125   1.466   2.794  16.827
 5553TIP3   OH267126   1.388   2.704  17.683
 5553TIP3    H167127   1.376   2.792  17.721
 5553TIP3    H267128   1.318   2.696  17.619
 5554TIP3   OH267129   0.717   3.267  17.205
 5554TIP3    H167130   0.702   3.277  17.111
 5554TIP3    H267131   0.786   3.200  17.211
 5555TIP3   OH267132   0.721   3.211  17.808
 5555TIP3    H167133   0.673   3.287  17.842
 5555TIP3    H267134   0.685   3.198  17.720
 5556TIP3   OH267135   1.300   2.826  16.526
 5556TIP3    H167136   1.327   2.826  16.618
 5556TIP3    H267137   1.350   2.899  16.487
 5557TIP3   OH267138   0.352   2.828  17.787
 5557TIP3    H167139   0.432   2.809  17.738
 5557TIP3    H267140   0.355   2.922  17.803
 5558TIP3   OH267141   1.097   3.453  16.859
 5558TIP3    H167142   1.130   3.497  16.938
 5558TIP3    H267143   1.079   3.525  16.798
 5559TIP3   OH267144   0.503   3.409  17.879
 5559TIP3    H167145   0.519   3.446  17.792
 5559TIP3    H267146   0.409   3.395  17.882
 5560TIP3   OH267147   0.434   2.796  16.632
 5560TIP3    H167148   0.344   2.819  16.655
 5560TIP3    H267149   0.427   2.712  16.587
 5561TIP3   OH267150   0.115   3.043  17.612
 5561TIP3    H167151   0.040   3.101  17.600
 5561TIP3    H267152   0.083   2.974  17.670
 5562TIP3   OH267153   0.062   3.323  17.291
 5562TIP3    H167154   0.127   3.271  17.245
 5562TIP3    H267155   0.111   3.366  17.362
 5563TIP3   OH267156   1.840   3.341  17.851
 5563TIP3    H167157   1.834   3.247  17.866
 5563TIP3    H267158   1.764   3.362  17.796
 5564TIP3   OH267159   1.076   3.711  16.698
 5564TIP3    H167160   1.128   3.739  16.623
 5564TIP3    H267161   1.038   3.792  16.732
 5565TIP3   OH267162   0.406   3.584  16.896
 5565TIP3    H167163   0.414   3.557  16.987
 5565TIP3    H267164   0.340   3.526  16.859
 5566TIP3   OH267165   1.504   2.505  17.845
 5566TIP3    H167166   1.464   2.579  17.800
 5566TIP3    H267167   1.509   2.436  17.778
 5567TIP3   OH267168   0.303   3.235  17.647
 5567TIP3    H167169   0.335   3.203  17.731
 5567TIP3    H267170   0.236   3.172  17.621
 5568TIP3   OH267171   1.029   2.033  17.716
 5568TIP3    H167172   1.050   2.083  17.795
 5568TIP3    H267173   0.935   2.040  17.707
 5569TIP3   OH267174   1.144   2.594  16.797
 5569TIP3    H167175   1.096   2.668  16.762
 5569TIP3    H267176   1.206   2.570  16.728
 5570TIP3   OH267177   1.096   2.465  17.898
 5570TIP3    H167178   1.026   2.530  17.904
 5570TIP3    H267179   1.168   2.502  17.950
 5571TIP3   OH267180   1.248   2.514  17.034
 5571TIP3    H167181   1.202   2.552  16.959
 5571TIP3    H267182   1.290   2.435  17.000
 5572TIP3   OH267183   1.166   2.656  17.514
 5572TIP3    H167184   1.196   2.605  17.439
 5572TIP3    H267185   1.126   2.592  17.573
 5573TIP3   OH267186   1.244   2.218  17.295
 5573TIP3    H167187   1.190   2.217  17.374
 5573TIP3    H267188   1.181   2.224  17.223
 5574TIP3   OH267189   0.385   3.094  17.889
 5574TIP3    H167190   0.468   3.093  17.936
 5574TIP3    H267191   0.334   3.163  17.931
 5575TIP3   OH267192   0.882   3.043  16.622
 5575TIP3    H167193   0.804   3.001  16.587
 5575TIP3    H267194   0.854   3.077  16.708
 5576TIP3   OH267195   1.563   3.007  17.472
 5576TIP3    H167196   1.642   2.990  17.420
 5576TIP3    H267197   1.492   2.968  17.422
 5577TIP3   OH267198   1.199   2.345  16.491
 5577TIP3    H167199   1.171   2.385  16.409
 5577TIP3    H267200   1.251   2.413  16.534
 5578TIP3   OH267201   1.040   3.093  17.781
 5578TIP3    H167202   1.050   3.037  17.858
 5578TIP3    H267203   0.953   3.132  17.790
 5579TIP3   OH267204   1.347   2.545  16.608
 5579TIP3    H167205   1.426   2.516  16.653
 5579TIP3    H267206   1.369   2.631  16.572
 5580TIP3   OH267207   0.371   3.028  17.190
 5580TIP3    H167208   0.463   3.002  17.195
 5580TIP3    H267209   0.326   2.969  17.249
 5581TIP3   OH267210   1.122   3.180  16.555
 5581TIP3    H167211   1.088   3.264  16.523
 5581TIP3    H267212   1.044   3.125  16.566
 5582TIP3   OH267213   0.027   2.841  17.773
 5582TIP3    H167214   0.105   2.785  17.773
 5582TIP3    H267215   8.107   2.792  17.722
 5583TIP3   OH267216   1.765   2.568  16.564
 5583TIP3    H167217   1.794   2.517  16.488
 5583TIP3    H267218   1.761   2.658  16.533
 5584TIP3   OH267219   1.788   3.065  17.838
 5584TIP3    H167220   1.704   3.091  17.800
 5584TIP3    H267221   1.838   3.031  17.764
 5585TIP3   OH267222   1.389   2.883  17.305
 5585TIP3    H167223   1.297   2.898  17.286
 5585TIP3    H267224   1.416   2.816  17.243
 5586TIP3   OH267225   0.654   3.337  16.947
 5586TIP3    H167226   0.678   3.418  16.901
 5586TIP3    H267227   0.575   3.307  16.902
 5587TIP3   OH267228   0.835   3.506  17.522
 5587TIP3    H167229   0.881   3.588  17.505
 5587TIP3    H267230   0.905   3.441  17.527
 5588TIP3   OH267231   0.670   3.586  16.809
 5588TIP3    H167232   0.578   3.600  16.834
 5588TIP3    H267233   0.717   3.659  16.849
 5589TIP3   OH267234   1.395   3.244  16.492
 5589TIP3    H167235   1.439   3.166  16.525
 5589TIP3    H267236   1.302   3.227  16.506
 5590TIP3   OH267237   1.509   3.020  16.599
 5590TIP3    H167238   1.476   2.967  16.672
 5590TIP3    H267239   1.603   3.025  16.614
 5591TIP3   OH267240   0.204   3.457  17.496
 5591TIP3    H167241   0.250   3.385  17.539
 5591TIP3    H267242   0.226   3.534  17.549
 5592TIP3   OH267243   0.699   3.289  16.429
 5592TIP3    H167244   0.750   3.230  16.485
 5592TIP3    H267245   0.716   3.376  16.464
 5593TIP3   OH267246   1.140   2.224  17.548
 5593TIP3    H167247   1.228   2.236  17.583
 5593TIP3    H267248   1.104   2.151  17.597
 5594TIP3   OH267249   1.225   2.165  16.712
 5594TIP3    H167250   1.200   2.199  16.626
 5594TIP3    H267251   1.278   2.234  16.751
 5595TIP3   OH267252   0.997   3.404  16.465
 5595TIP3    H167253   0.933   3.463  16.504
 5595TIP3    H267254   1.027   3.451  16.386
 5596TIP3   OH267255   0.757   3.537  16.549
 5596TIP3    H167256   0.761   3.628  16.520
 5596TIP3    H267257   0.732   3.542  16.641
 5597TIP3   OH267258   1.453   2.667  17.141
 5597TIP3    H167259   1.381   2.612  17.110
 5597TIP3    H267260   1.504   2.609  17.198
 5598TIP3   OH267261   0.443   3.290  16.312
 5598TIP3    H167262   0.526   3.282  16.359
 5598TIP3    H267263   0.446   3.222  16.246
 5599TIP3   OH267264   0.193   3.441  16.787
 5599TIP3    H167265   0.127   3.443  16.857
 5599TIP3    H267266   0.155   3.494  16.717
 5600TIP3   OH267267   0.171   3.657  17.915
 5600TIP3    H167268   0.226   3.636  17.991
 5600TIP3    H267269   0.106   3.587  17.913
 5601TIP3   OH267270   0.585   3.465  18.135
 5601TIP3    H167271   0.659   3.406  18.138
 5601TIP3    H267272   0.559   3.467  18.043
 5602TIP3   OH267273   0.087   2.997  18.051
 5602TIP3    H167274   0.129   2.911  18.056
 5602TIP3    H267275   0.059   3.005  17.959
 5603TIP3   OH267276   0.679   3.056  18.026
 5603TIP3    H167277   0.703   3.095  17.942
 5603TIP3    H267278   0.727   2.973  18.027
 5604TIP3   OH267279   1.317   3.029  17.749
 5604TIP3    H167280   1.379   3.095  17.716
 5604TIP3    H267281   1.231   3.067  17.733
 5605TIP3   OH267282   0.226   2.747  18.028
 5605TIP3    H167283   0.275   2.771  17.949
 5605TIP3    H267284   0.294   2.735  18.095
 5606TIP3   OH267285   0.646   2.939  16.533
 5606TIP3    H167286   0.582   2.892  16.586
 5606TIP3    H267287   0.603   2.951  16.448
 5607TIP3   OH267288   1.113   2.943  18.017
 5607TIP3    H167289   1.204   2.926  17.992
 5607TIP3    H267290   1.093   2.873  18.080
 5608TIP3   OH267291   1.294   2.545  18.069
 5608TIP3    H167292   1.310   2.474  18.131
 5608TIP3    H267293   1.376   2.552  18.020
 5609TIP3   OH267294   1.383   2.882  17.964
 5609TIP3    H167295   1.367   2.938  17.888
 5609TIP3    H267296   1.475   2.856  17.955
 5610TIP3   OH267297   1.121   2.188  17.926
 5610TIP3    H167298   1.122   2.282  17.908
 5610TIP3    H267299   1.210   2.168  17.955
 5611TIP3   OH267300   0.176   3.222  16.346
 5611TIP3    H167301   0.264   3.258  16.351
 5611TIP3    H267302   0.148   3.236  16.256
 5612TIP3   OH267303   0.036   3.730  16.856
 5612TIP3    H167304   0.022   3.689  16.771
 5612TIP3    H267305   0.026   3.659  16.919
 5613TIP3   OH267306   0.046   3.526  17.041
 5613TIP3    H167307   8.121   3.472  17.080
 5613TIP3    H267308   0.098   3.555  17.115
 5614TIP3   OH267309   1.659   3.190  18.208
 5614TIP3    H167310   1.568   3.173  18.231
 5614TIP3    H267311   1.655   3.250  18.134
 5615TIP3   OH267312   1.777   3.007  16.665
 5615TIP3    H167313   1.843   3.075  16.655
 5615TIP3    H267314   1.805   2.957  16.742
 5616TIP3   OH267315   1.824   2.849  16.890
 5616TIP3    H167316   1.743   2.798  16.900
 5616TIP3    H267317   1.820   2.914  16.960
 5617TIP3   OH267318   1.510   3.385  17.536
 5617TIP3    H167319   1.414   3.385  17.533
 5617TIP3    H267320   1.536   3.374  17.444
 5618TIP3   OH267321   1.761   2.821  16.463
 5618TIP3    H167322   1.756   2.873  16.383
 5618TIP3    H267323   1.770   2.886  16.533
 5619TIP3   OH267324   1.594   2.692  16.904
 5619TIP3    H167325   1.594   2.605  16.864
 5619TIP3    H267326   1.553   2.679  16.990
 5620TIP3   OH267327   0.046   2.820  17.332
 5620TIP3    H167328   0.067   2.809  17.239
 5620TIP3    H267329   0.125   2.857  17.370
 5621TIP3   OH267330   1.647   2.834  17.930
 5621TIP3    H167331   1.699   2.753  17.939
 5621TIP3    H267332   1.712   2.902  17.912
 5622TIP3   OH267333   1.756   2.579  17.949
 5622TIP3    H167334   1.680   2.545  17.903
 5622TIP3    H267335   1.827   2.519  17.927
 5623TIP3   OH267336   1.581   2.455  16.734
 5623TIP3    H167337   1.596   2.361  16.731
 5623TIP3    H267338   1.649   2.493  16.679
 5624TIP3   OH267339   1.616   2.517  17.302
 5624TIP3    H167340   1.705   2.487  17.284
 5624TIP3    H267341   1.614   2.528  17.397
 5625TIP3   OH267342   1.629   2.624  17.567
 5625TIP3    H167343   1.546   2.649  17.606
 5625TIP3    H267344   1.660   2.703  17.522
 5626TIP3   OH267345   1.863   2.016  18.125
 5626TIP3    H167346   1.916   1.947  18.085
 5626TIP3    H267347   1.827   2.064  18.050
 5627TIP3   OH267348   1.596   2.179  16.746
 5627TIP3    H167349   1.640   2.133  16.818
 5627TIP3    H267350   1.543   2.111  16.703
 5628TIP3   OH267351   0.011   2.546  17.360
 5628TIP3    H167352   0.059   2.508  17.286
 5628TIP3    H267353   0.022   2.640  17.349
 5629TIP3   OH267354   1.774   2.149  17.900
 5629TIP3    H167355   1.691   2.193  17.886
 5629TIP3    H267356   1.794   2.107  17.817
 5630TIP3   OH267357   8.127   2.197  16.744
 5630TIP3    H167358   8.094   2.170  16.658
 5630TIP3    H267359   0.063   2.247  16.724
 5631TIP3   OH267360   0.072   2.083  17.603
 5631TIP3    H167361   0.009   2.017  17.575
 5631TIP3    H267362   0.027   2.167  17.587
 5632TIP3   OH267363   0.228   3.335  17.952
 5632TIP3    H167364   0.153   3.365  17.901
 5632TIP3    H267365   0.195   3.326  18.041
 5633TIP3   OH267366   0.580   3.506  17.630
 5633TIP3    H167367   0.542   3.588  17.600
 5633TIP3    H267368   0.671   3.509  17.599
 5634TIP3   OH267369   0.217   3.685  17.647
 5634TIP3    H167370   0.146   3.746  17.627
 5634TIP3    H267371   0.216   3.677  17.742
 5635TIP3   OH267372   0.495   3.753  17.538
 5635TIP3    H167373   0.402   3.768  17.560
 5635TIP3    H267374   0.503   3.783  17.448
 5636TIP3   OH267375   0.931   3.754  17.455
 5636TIP3    H167376   0.895   3.777  17.369
 5636TIP3    H267377   0.875   3.800  17.518
 5637TIP3   OH267378   0.206   3.614  17.257
 5637TIP3    H167379   0.196   3.569  17.340
 5637TIP3    H267380   0.292   3.585  17.224
 5638TIP3   OH267381   0.447   3.527  17.165
 5638TIP3    H167382   0.437   3.438  17.197
 5638TIP3    H267383   0.535   3.553  17.193
 5639TIP3   OH267384   0.707   3.532  17.273
 5639TIP3    H167385   0.713   3.443  17.239
 5639TIP3    H267386   0.736   3.525  17.364
 5640TIP3   OH267387   1.727   2.033  16.942
 5640TIP3    H167388   1.804   1.987  16.906
 5640TIP3    H267389   1.764   2.109  16.987
 5641TIP3   OH267390   1.434   1.957  16.674
 5641TIP3    H167391   1.348   1.998  16.679
 5641TIP3    H267392   1.425   1.889  16.607
 5642TIP3   OH267393   0.092   3.621  16.597
 5642TIP3    H167394   0.073   3.611  16.504
 5642TIP3    H267395   0.137   3.705  16.603
 5643TIP3   OH267396   0.333   3.547  16.350
 5643TIP3    H167397   0.376   3.569  16.433
 5643TIP3    H267398   0.369   3.462  16.326
 5644TIP3   OH267399   1.945   2.612  16.774
 5644TIP3    H167400   1.915   2.696  16.808
 5644TIP3    H267401   1.884   2.592  16.703
 5645TIP3   OH267402   3.058   2.548  17.304
 5645TIP3    H167403   3.082   2.455  17.308
 5645TIP3    H267404   3.069   2.571  17.212
 5646TIP3   OH267405   3.252   2.364  16.875
 5646TIP3    H167406   3.293   2.319  16.948
 5646TIP3    H267407   3.325   2.400  16.825
 5647TIP3   OH267408   2.113   2.568  17.141
 5647TIP3    H167409   2.185   2.506  17.152
 5647TIP3    H267410   2.078   2.549  17.054
 5648TIP3   OH267411   3.362   2.251  17.098
 5648TIP3    H167412   3.356   2.158  17.120
 5648TIP3    H267413   3.411   2.290  17.170
 5649TIP3   OH267414   2.357   3.265  17.475
 5649TIP3    H167415   2.403   3.333  17.524
 5649TIP3    H267416   2.424   3.200  17.456
 5650TIP3   OH267417   1.979   3.189  16.635
 5650TIP3    H167418   1.997   3.196  16.541
 5650TIP3    H267419   2.034   3.255  16.676
 5651TIP3   OH267420   3.480   2.124  17.484
 5651TIP3    H167421   3.460   2.198  17.427
 5651TIP3    H267422   3.567   2.144  17.520
 5652TIP3   OH267423   2.708   1.887  17.194
 5652TIP3    H167424   2.685   1.894  17.101
 5652TIP3    H267425   2.629   1.913  17.240
 5653TIP3   OH267426   3.626   2.777  17.505
 5653TIP3    H167427   3.561   2.771  17.435
 5653TIP3    H267428   3.704   2.813  17.462
 5654TIP3   OH267429   3.274   2.650  17.677
 5654TIP3    H167430   3.297   2.736  17.714
 5654TIP3    H267431   3.197   2.667  17.624
 5655TIP3   OH267432   2.381   3.418  17.894
 5655TIP3    H167433   2.405   3.439  17.804
 5655TIP3    H267434   2.285   3.413  17.893
 5656TIP3   OH267435   3.591   1.942  16.523
 5656TIP3    H167436   3.499   1.958  16.544
 5656TIP3    H267437   3.619   2.021  16.476
 5657TIP3   OH267438   3.745   3.461  16.390
 5657TIP3    H167439   3.734   3.505  16.305
 5657TIP3    H267440   3.807   3.390  16.372
 5658TIP3   OH267441   1.951   3.415  17.316
 5658TIP3    H167442   2.032   3.424  17.367
 5658TIP3    H267443   1.883   3.449  17.374
 5659TIP3   OH267444   3.723   3.341  17.884
 5659TIP3    H167445   3.728   3.320  17.790
 5659TIP3    H267446   3.651   3.403  17.890
 5660TIP3   OH267447   2.890   3.734  16.705
 5660TIP3    H167448   2.894   3.726  16.610
 5660TIP3    H267449   2.797   3.743  16.725
 5661TIP3   OH267450   2.268   3.606  16.925
 5661TIP3    H167451   2.304   3.561  17.001
 5661TIP3    H267452   2.224   3.537  16.875
 5662TIP3   OH267453   3.211   3.627  16.663
 5662TIP3    H167454   3.205   3.557  16.598
 5662TIP3    H267455   3.263   3.589  16.734
 5663TIP3   OH267456   3.431   2.531  17.880
 5663TIP3    H167457   3.377   2.555  17.805
 5663TIP3    H267458   3.447   2.437  17.868
 5664TIP3   OH267459   2.466   1.981  17.298
 5664TIP3    H167460   2.379   1.970  17.260
 5664TIP3    H267461   2.478   2.076  17.304
 5665TIP3   OH267462   2.922   2.034  17.669
 5665TIP3    H167463   3.007   1.991  17.662
 5665TIP3    H267464   2.858   1.966  17.645
 5666TIP3   OH267465   3.217   2.370  17.686
 5666TIP3    H167466   3.151   2.367  17.755
 5666TIP3    H267467   3.230   2.464  17.670
 5667TIP3   OH267468   3.061   2.647  16.763
 5667TIP3    H167469   3.000   2.681  16.698
 5667TIP3    H267470   3.130   2.604  16.712
 5668TIP3   OH267471   3.126   2.560  17.028
 5668TIP3    H167472   3.088   2.616  16.960
 5668TIP3    H267473   3.158   2.484  16.981
 5669TIP3   OH267474   1.868   2.252  17.017
 5669TIP3    H167475   1.951   2.253  17.065
 5669TIP3    H267476   1.894   2.263  16.925
 5670TIP3   OH267477   2.048   2.392  16.563
 5670TIP3    H167478   2.095   2.371  16.482
 5670TIP3    H267479   2.068   2.484  16.579
 5671TIP3   OH267480   3.042   2.690  17.541
 5671TIP3    H167481   3.046   2.652  17.453
 5671TIP3    H267482   2.979   2.635  17.588
 5672TIP3   OH267483   2.101   2.426  16.906
 5672TIP3    H167484   2.052   2.478  16.842
 5672TIP3    H267485   2.154   2.366  16.853
 5673TIP3   OH267486   3.471   3.754  17.958
 5673TIP3    H167487   3.497   3.793  17.874
 5673TIP3    H267488   3.535   3.787  18.020
 5674TIP3   OH267489   2.277   2.222  16.801
 5674TIP3    H167490   2.230   2.145  16.833
 5674TIP3    H267491   2.322   2.192  16.722
 5675TIP3   OH267492   2.705   2.496  17.506
 5675TIP3    H167493   2.768   2.490  17.578
 5675TIP3    H267494   2.732   2.426  17.446
 5676TIP3   OH267495   3.077   2.284  16.453
 5676TIP3    H167496   3.017   2.241  16.392
 5676TIP3    H267497   3.118   2.353  16.401
 5677TIP3   OH267498   3.246   2.550  16.585
 5677TIP3    H167499   3.330   2.518  16.618
 5677TIP3    H267500   3.244   2.524  16.493
 5678TIP3   OH267501   3.677   2.558  16.527
 5678TIP3    H167502   3.637   2.526  16.446
 5678TIP3    H267503   3.694   2.651  16.510
 5679TIP3   OH267504   3.593   3.431  16.622
 5679TIP3    H167505   3.566   3.339  16.629
 5679TIP3    H267506   3.639   3.437  16.539
 5680TIP3   OH267507   2.724   3.567  17.599
 5680TIP3    H167508   2.696   3.655  17.623
 5680TIP3    H267509   2.795   3.581  17.536
 5681TIP3   OH267510   2.139   3.517  17.501
 5681TIP3    H167511   2.202   3.456  17.539
 5681TIP3    H267512   2.137   3.591  17.562
 5682TIP3   OH267513   2.977   2.276  17.549
 5682TIP3    H167514   3.072   2.273  17.549
 5682TIP3    H267515   2.949   2.190  17.582
 5683TIP3   OH267516   3.120   2.186  16.702
 5683TIP3    H167517   3.109   2.227  16.616
 5683TIP3    H267518   3.157   2.255  16.757
 5684TIP3   OH267519   2.906   2.493  17.693
 5684TIP3    H167520   2.932   2.465  17.781
 5684TIP3    H267521   2.932   2.421  17.636
 5685TIP3   OH267522   2.883   2.081  16.801
 5685TIP3    H167523   2.905   2.069  16.893
 5685TIP3    H267524   2.967   2.103  16.760
 5686TIP3   OH267525   2.465   2.229  16.588
 5686TIP3    H167526   2.441   2.321  16.598
 5686TIP3    H267527   2.560   2.227  16.601
 5687TIP3   OH267528   3.463   2.270  17.774
 5687TIP3    H167529   3.379   2.283  17.730
 5687TIP3    H267530   3.525   2.255  17.703
 5688TIP3   OH267531   3.378   2.622  17.138
 5688TIP3    H167532   3.288   2.607  17.107
 5688TIP3    H267533   3.401   2.542  17.185
 5689TIP3   OH267534   2.319   3.245  16.350
 5689TIP3    H167535   2.339   3.327  16.395
 5689TIP3    H267536   2.348   3.260  16.259
 5690TIP3   OH267537   3.434   3.665  17.306
 5690TIP3    H167538   3.420   3.734  17.241
 5690TIP3    H267539   3.529   3.667  17.322
 5691TIP3   OH267540   2.206   1.988  17.182
 5691TIP3    H167541   2.193   1.998  17.087
 5691TIP3    H267542   2.165   1.904  17.203
 5692TIP3   OH267543   2.093   3.424  16.802
 5692TIP3    H167544   2.027   3.447  16.867
 5692TIP3    H267545   2.070   3.476  16.725
 5693TIP3   OH267546   2.101   3.679  17.990
 5693TIP3    H167547   2.156   3.674  18.068
 5693TIP3    H267548   2.098   3.589  17.957
 5694TIP3   OH267549   2.470   3.407  18.155
 5694TIP3    H167550   2.515   3.491  18.162
 5694TIP3    H267551   2.438   3.404  18.065
 5695TIP3   OH267552   1.975   3.067  18.049
 5695TIP3    H167553   2.019   2.983  18.032
 5695TIP3    H267554   1.900   3.067  17.990
 5696TIP3   OH267555   2.097   2.822  18.000
 5696TIP3    H167556   2.179   2.860  17.967
 5696TIP3    H267557   2.125   2.759  18.066
 5697TIP3   OH267558   3.125   2.582  18.097
 5697TIP3    H167559   3.141   2.501  18.146
 5697TIP3    H267560   3.210   2.605  18.059
 5698TIP3   OH267561   3.023   2.329  17.885
 5698TIP3    H167562   2.998   2.239  17.863
 5698TIP3    H267563   3.061   2.322  17.973
 5699TIP3   OH267564   2.604   1.997  18.076
 5699TIP3    H167565   2.694   1.983  18.103
 5699TIP3    H267566   2.583   2.086  18.102
 5700TIP3   OH267567   2.714   3.808  16.422
 5700TIP3    H167568   2.711   3.885  16.479
 5700TIP3    H267569   2.638   3.817  16.365
 5701TIP3   OH267570   2.047   3.192  16.362
 5701TIP3    H167571   2.142   3.207  16.365
 5701TIP3    H267572   2.026   3.189  16.268
 5702TIP3   OH267573   1.922   3.712  16.866
 5702TIP3    H167574   1.827   3.697  16.871
 5702TIP3    H267575   1.958   3.662  16.938
 5703TIP3   OH267576   1.998   3.562  17.081
 5703TIP3    H167577   1.962   3.499  17.144
 5703TIP3    H267578   2.060   3.614  17.132
 5704TIP3   OH267579   3.700   3.678  17.363
 5704TIP3    H167580   3.714   3.649  17.454
 5704TIP3    H267581   3.785   3.666  17.321
 5705TIP3   OH267582   3.731   3.579  17.623
 5705TIP3    H167583   3.692   3.491  17.624
 5705TIP3    H267584   3.824   3.563  17.609
 5706TIP3   OH267585   3.570   3.136  18.025
 5706TIP3    H167586   3.478   3.144  18.000
 5706TIP3    H267587   3.611   3.215  17.990
 5707TIP3   OH267588   3.697   3.015  16.627
 5707TIP3    H167589   3.770   3.076  16.635
 5707TIP3    H267590   3.705   2.958  16.704
 5708TIP3   OH267591   3.739   2.840  16.846
 5708TIP3    H167592   3.660   2.791  16.867
 5708TIP3    H267593   3.787   2.846  16.928
 5709TIP3   OH267594   3.711   2.812  16.437
 5709TIP3    H167595   3.715   2.846  16.348
 5709TIP3    H267596   3.703   2.890  16.492
 5710TIP3   OH267597   3.570   2.503  16.282
 5710TIP3    H167598   3.562   2.541  16.195
 5710TIP3    H267599   3.526   2.418  16.275
 5711TIP3   OH267600   3.529   2.677  16.909
 5711TIP3    H167601   3.499   2.606  16.852
 5711TIP3    H267602   3.478   2.666  16.989
 5712TIP3   OH267603   3.625   2.699  17.972
 5712TIP3    H167604   3.557   2.648  17.928
 5712TIP3    H267605   3.706   2.650  17.954
 5713TIP3   OH267606   3.433   2.264  16.273
 5713TIP3    H167607   3.504   2.225  16.324
 5713TIP3    H267608   3.419   2.202  16.201
 5714TIP3   OH267609   3.480   2.455  16.715
 5714TIP3    H167610   3.504   2.363  16.726
 5714TIP3    H267611   3.549   2.492  16.660
 5715TIP3   OH267612   3.496   2.402  17.301
 5715TIP3    H167613   3.580   2.436  17.271
 5715TIP3    H267614   3.483   2.441  17.387
 5716TIP3   OH267615   3.491   2.533  17.543
 5716TIP3    H167616   3.416   2.576  17.584
 5716TIP3    H267617   3.560   2.599  17.546
 5717TIP3   OH267618   1.936   2.371  17.892
 5717TIP3    H167619   2.017   2.330  17.921
 5717TIP3    H267620   1.871   2.301  17.894
 5718TIP3   OH267621   3.516   2.183  16.762
 5718TIP3    H167622   3.514   2.153  16.852
 5718TIP3    H267623   3.458   2.122  16.715
 5719TIP3   OH267624   2.094   2.251  17.172
 5719TIP3    H167625   2.127   2.164  17.193
 5719TIP3    H267626   2.156   2.287  17.109
 5720TIP3   OH267627   1.890   2.449  17.278
 5720TIP3    H167628   1.911   2.380  17.215
 5720TIP3    H267629   1.955   2.518  17.261
 5721TIP3   OH267630   3.676   2.175  16.379
 5721TIP3    H167631   3.721   2.200  16.298
 5721TIP3    H267632   3.725   2.219  16.448
 5722TIP3   OH267633   1.916   2.214  16.741
 5722TIP3    H167634   1.834   2.201  16.695
 5722TIP3    H267635   1.968   2.269  16.683
 5723TIP3   OH267636   3.367   3.696  16.918
 5723TIP3    H167637   3.441   3.690  16.857
 5723TIP3    H267638   3.400   3.749  16.990
 5724TIP3   OH267639   1.831   2.040  17.659
 5724TIP3    H167640   1.863   1.958  17.621
 5724TIP3    H267641   1.836   2.103  17.587
 5725TIP3   OH267642   2.099   3.411  17.924
 5725TIP3    H167643   2.014   3.390  17.886
 5725TIP3    H267644   2.097   3.371  18.011
 5726TIP3   OH267645   2.459   3.482  17.617
 5726TIP3    H167646   2.430   3.563  17.575
 5726TIP3    H267647   2.555   3.490  17.620
 5727TIP3   OH267648   2.152   3.784  17.617
 5727TIP3    H167649   2.098   3.847  17.569
 5727TIP3    H267650   2.165   3.824  17.703
 5728TIP3   OH267651   2.393   3.727  17.498
 5728TIP3    H167652   2.309   3.752  17.536
 5728TIP3    H267653   2.384   3.745  17.405
 5729TIP3   OH267654   3.378   3.779  17.555
 5729TIP3    H167655   3.380   3.869  17.525
 5729TIP3    H267656   3.386   3.726  17.475
 5730TIP3   OH267657   2.180   3.670  17.271
 5730TIP3    H167658   2.158   3.617  17.348
 5730TIP3    H267659   2.254   3.625  17.231
 5731TIP3   OH267660   2.395   3.531  17.173
 5731TIP3    H167661   2.407   3.437  17.189
 5731TIP3    H267662   2.479   3.561  17.141
 5732TIP3   OH267663   2.918   2.046  17.079
 5732TIP3    H167664   2.846   2.000  17.123
 5732TIP3    H267665   2.941   2.118  17.138
 5733TIP3   OH267666   2.143   2.004  16.909
 5733TIP3    H167667   2.062   1.992  16.858
 5733TIP3    H267668   2.185   1.918  16.906
 5734TIP3   OH267669   2.663   1.966  16.938
 5734TIP3    H167670   2.727   1.976  16.867
 5734TIP3    H267671   2.637   2.056  16.959
 5735TIP3   OH267672   3.334   2.010  16.641
 5735TIP3    H167673   3.260   2.070  16.648
 5735TIP3    H267674   3.299   1.926  16.670
 5736TIP3   OH267675   2.006   3.594  16.610
 5736TIP3    H167676   1.996   3.622  16.519
 5736TIP3    H267677   1.973   3.668  16.661
 5737TIP3   OH267678   2.744   2.253  16.618
 5737TIP3    H167679   2.770   2.181  16.676
 5737TIP3    H267680   2.824   2.304  16.606
 5738TIP3   OH267681   2.985   3.762  16.447
 5738TIP3    H167682   3.039   3.757  16.369
 5738TIP3    H267683   2.897   3.778  16.414
 5739TIP3   OH267684   3.578   3.680  16.730
 5739TIP3    H167685   3.580   3.589  16.701
 5739TIP3    H267686   3.600   3.730  16.651
 5740TIP3   OH267687   2.117   2.169  17.969
 5740TIP3    H167688   2.042   2.112  17.949
 5740TIP3    H267689   2.190   2.108  17.984
 5741TIP3   OH267690   2.324   2.008  18.047
 5741TIP3    H167691   2.419   1.998  18.037
 5741TIP3    H267692   2.294   1.924  18.081
 5742TIP3   OH267693   2.231   3.703  16.271
 5742TIP3    H167694   2.168   3.756  16.222
 5742TIP3    H267695   2.273   3.765  16.331
 5743TIP3   OH267696   3.501   3.496  17.871
 5743TIP3    H167697   3.455   3.507  17.788
 5743TIP3    H267698   3.487   3.579  17.918
 5744TIP3   OH267699   4.949   2.889  16.914
 5744TIP3    H167700   4.948   2.984  16.897
 5744TIP3    H267701   4.892   2.853  16.846
 5745TIP3   OH267702   4.893   2.851  17.278
 5745TIP3    H167703   4.908   2.783  17.343
 5745TIP3    H267704   4.888   2.803  17.195
 5746TIP3   OH267705   4.064   2.763  17.438
 5746TIP3    H167706   4.095   2.690  17.490
 5746TIP3    H267707   4.142   2.793  17.391
 5747TIP3   OH267708   5.277   3.120  17.117
 5747TIP3    H167709   5.236   3.041  17.152
 5747TIP3    H267710   5.277   3.182  17.191
 5748TIP3   OH267711   4.211   3.223  17.220
 5748TIP3    H167712   4.168   3.142  17.192
 5748TIP3    H267713   4.304   3.200  17.228
 5749TIP3   OH267714   3.855   2.605  16.741
 5749TIP3    H167715   3.826   2.691  16.773
 5749TIP3    H267716   3.793   2.582  16.672
 5750TIP3   OH267717   3.898   2.833  17.079
 5750TIP3    H167718   3.922   2.740  17.082
 5750TIP3    H267719   3.981   2.880  17.082
 5751TIP3   OH267720   4.708   3.043  17.346
 5751TIP3    H167721   4.756   2.965  17.319
 5751TIP3    H267722   4.774   3.101  17.383
 5752TIP3   OH267723   4.989   2.462  17.286
 5752TIP3    H167724   5.000   2.368  17.293
 5752TIP3    H267725   4.984   2.479  17.192
 5753TIP3   OH267726   5.133   2.353  16.890
 5753TIP3    H167727   5.182   2.316  16.964
 5753TIP3    H267728   5.201   2.385  16.830
 5754TIP3   OH267729   3.966   2.562  17.113
 5754TIP3    H167730   4.037   2.531  17.170
 5754TIP3    H267731   3.981   2.516  17.030
 5755TIP3   OH267732   4.418   2.661  17.122
 5755TIP3    H167733   4.488   2.608  17.162
 5755TIP3    H267734   4.383   2.605  17.053
 5756TIP3   OH267735   4.960   3.131  16.790
 5756TIP3    H167736   4.933   3.159  16.702
 5756TIP3    H267737   5.017   3.201  16.821
 5757TIP3   OH267738   4.465   2.976  17.471
 5757TIP3    H167739   4.413   3.050  17.500
 5757TIP3    H267740   4.542   3.015  17.429
 5758TIP3   OH267741   5.285   2.282  17.104
 5758TIP3    H167742   5.321   2.195  17.122
 5758TIP3    H267743   5.315   2.336  17.178
 5759TIP3   OH267744   4.188   2.496  17.275
 5759TIP3    H167745   4.192   2.521  17.367
 5759TIP3    H267746   4.248   2.556  17.231
 5760TIP3   OH267747   4.310   3.192  17.554
 5760TIP3    H167748   4.307   3.288  17.557
 5760TIP3    H267749   4.222   3.164  17.578
 5761TIP3   OH267750   3.909   3.196  16.626
 5761TIP3    H167751   3.906   3.237  16.539
 5761TIP3    H267752   3.932   3.267  16.685
 5762TIP3   OH267753   5.243   3.290  17.334
 5762TIP3    H167754   5.149   3.272  17.334
 5762TIP3    H267755   5.250   3.379  17.300
 5763TIP3   OH267756   5.291   2.132  17.546
 5763TIP3    H167757   5.250   2.203  17.594
 5763TIP3    H267758   5.313   2.170  17.461
 5764TIP3   OH267759   5.099   3.506  17.014
 5764TIP3    H167760   5.117   3.423  16.969
 5764TIP3    H267761   5.176   3.560  16.995
 5765TIP3   OH267762   5.183   3.267  16.899
 5765TIP3    H167763   5.231   3.237  16.822
 5765TIP3    H267764   5.216   3.213  16.970
 5766TIP3   OH267765   5.376   3.112  17.689
 5766TIP3    H167766   5.372   3.058  17.610
 5766TIP3    H267767   5.378   3.202  17.656
 5767TIP3   OH267768   4.815   2.841  16.667
 5767TIP3    H167769   4.754   2.914  16.662
 5767TIP3    H267770   4.853   2.834  16.580
 5768TIP3   OH267771   4.825   2.666  16.357
 5768TIP3    H167772   4.912   2.677  16.394
 5768TIP3    H267773   4.840   2.637  16.267
 5769TIP3   OH267774   5.573   2.819  17.531
 5769TIP3    H167775   5.500   2.875  17.504
 5769TIP3    H267776   5.618   2.798  17.449
 5770TIP3   OH267777   5.176   2.881  16.738
 5770TIP3    H167778   5.103   2.895  16.797
 5770TIP3    H267779   5.235   2.823  16.785
 5771TIP3   OH267780   5.150   2.655  17.662
 5771TIP3    H167781   5.115   2.703  17.737
 5771TIP3    H267782   5.085   2.668  17.593
 5772TIP3   OH267783   4.331   2.890  16.940
 5772TIP3    H167784   4.306   2.858  16.853
 5772TIP3    H267785   4.373   2.814  16.981
 5773TIP3   OH267786   4.482   3.151  17.193
 5773TIP3    H167787   4.497   3.138  17.100
 5773TIP3    H267788   4.557   3.111  17.236
 5774TIP3   OH267789   4.297   2.827  17.307
 5774TIP3    H167790   4.352   2.777  17.246
 5774TIP3    H267791   4.359   2.873  17.363
 5775TIP3   OH267792   5.070   2.775  16.501
 5775TIP3    H167793   5.103   2.825  16.575
 5775TIP3    H267794   5.102   2.822  16.424
 5776TIP3   OH267795   4.152   2.840  17.786
 5776TIP3    H167796   4.159   2.929  17.821
 5776TIP3    H267797   4.076   2.843  17.728
 5777TIP3   OH267798   4.230   3.487  17.886
 5777TIP3    H167799   4.237   3.469  17.793
 5777TIP3    H267800   4.144   3.452  17.911
 5778TIP3   OH267801   5.412   1.944  16.508
 5778TIP3    H167802   5.337   1.970  16.561
 5778TIP3    H267803   5.416   2.010  16.439
 5779TIP3   OH267804   4.245   2.812  16.686
 5779TIP3    H167805   4.197   2.883  16.644
 5779TIP3    H267806   4.189   2.735  16.675
 5780TIP3   OH267807   5.659   3.405  17.754
 5780TIP3    H167808   5.630   3.318  17.780
 5780TIP3    H267809   5.588   3.463  17.781
 5781TIP3   OH267810   4.168   3.570  16.909
 5781TIP3    H167811   4.163   3.543  17.000
 5781TIP3    H267812   4.102   3.516  16.864
 5782TIP3   OH267813   5.350   2.543  17.869
 5782TIP3    H167814   5.295   2.524  17.794
 5782TIP3    H267815   5.357   2.459  17.915
 5783TIP3   OH267816   4.051   3.151  17.656
 5783TIP3    H167817   4.075   3.140  17.748
 5783TIP3    H267818   3.991   3.079  17.638
 5784TIP3   OH267819   5.170   2.364  17.685
 5784TIP3    H167820   5.093   2.339  17.736
 5784TIP3    H267821   5.151   2.452  17.653
 5785TIP3   OH267822   4.757   2.203  16.313
 5785TIP3    H167823   4.812   2.263  16.364
 5785TIP3    H267824   4.782   2.116  16.344
 5786TIP3   OH267825   4.295   2.501  16.939
 5786TIP3    H167826   4.204   2.479  16.921
 5786TIP3    H267827   4.337   2.499  16.853
 5787TIP3   OH267828   4.878   2.596  16.775
 5787TIP3    H167829   4.847   2.678  16.735
 5787TIP3    H267830   4.950   2.568  16.720
 5788TIP3   OH267831   4.795   2.602  17.946
 5788TIP3    H167832   4.759   2.516  17.966
 5788TIP3    H267833   4.882   2.602  17.985
 5789TIP3   OH267834   4.982   2.535  17.023
 5789TIP3    H167835   4.932   2.580  16.954
 5789TIP3    H267836   5.026   2.463  16.977
 5790TIP3   OH267837   4.196   2.550  17.562
 5790TIP3    H167838   4.261   2.585  17.623
 5790TIP3    H267839   4.170   2.466  17.601
 5791TIP3   OH267840   3.851   2.331  16.526
 5791TIP3    H167841   3.943   2.341  16.502
 5791TIP3    H267842   3.815   2.419  16.523
 5792TIP3   OH267843   4.948   2.656  17.468
 5792TIP3    H167844   4.966   2.587  17.404
 5792TIP3    H267845   4.900   2.613  17.538
 5793TIP3   OH267846   4.027   2.437  16.872
 5793TIP3    H167847   3.973   2.498  16.822
 5793TIP3    H267848   4.000   2.350  16.841
 5794TIP3   OH267849   4.418   2.493  16.694
 5794TIP3    H167850   4.504   2.471  16.728
 5794TIP3    H267851   4.432   2.507  16.600
 5795TIP3   OH267852   5.012   2.189  17.297
 5795TIP3    H167853   5.015   2.124  17.367
 5795TIP3    H267854   5.029   2.140  17.217
 5796TIP3   OH267855   4.117   3.084  17.916
 5796TIP3    H167856   4.190   3.099  17.976
 5796TIP3    H267857   4.039   3.089  17.970
 5797TIP3   OH267858   4.615   3.079  16.624
 5797TIP3    H167859   4.565   3.005  16.590
 5797TIP3    H267860   4.584   3.090  16.714
 5798TIP3   OH267861   5.369   2.979  17.446
 5798TIP3    H167862   5.423   3.039  17.394
 5798TIP3    H267863   5.296   2.956  17.389
 5799TIP3   OH267864   4.957   2.354  16.450
 5799TIP3    H167865   4.995   2.383  16.367
 5799TIP3    H267866   4.988   2.417  16.515
 5800TIP3   OH267867   4.765   3.085  17.809
 5800TIP3    H167868   4.824   3.062  17.881
 5800TIP3    H267869   4.810   3.157  17.764
 5801TIP3   OH267870   5.094   2.527  16.617
 5801TIP3    H167871   5.186   2.506  16.636
 5801TIP3    H267872   5.097   2.609  16.569
 5802TIP3   OH267873   4.140   2.965  17.127
 5802TIP3    H167874   4.198   2.954  17.051
 5802TIP3    H267875   4.186   2.920  17.198
 5803TIP3   OH267876   4.859   3.176  16.530
 5803TIP3    H167877   4.853   3.185  16.435
 5803TIP3    H267878   4.771   3.148  16.557
 5804TIP3   OH267879   3.882   2.867  17.718
 5804TIP3    H167880   3.875   2.836  17.808
 5804TIP3    H267881   3.814   2.818  17.671
 5805TIP3   OH267882   4.548   2.731  17.981
 5805TIP3    H167883   4.486   2.697  17.916
 5805TIP3    H267884   4.633   2.696  17.952
 5806TIP3   OH267885   5.522   2.487  16.523
 5806TIP3    H167886   5.492   2.454  16.438
 5806TIP3    H267887   5.530   2.582  16.510
 5807TIP3   OH267888   5.613   3.136  17.837
 5807TIP3    H167889   5.520   3.123  17.814
 5807TIP3    H267890   5.660   3.108  17.759
 5808TIP3   OH267891   5.381   3.398  16.593
 5808TIP3    H167892   5.351   3.314  16.628
 5808TIP3    H267893   5.360   3.393  16.499
 5809TIP3   OH267894   5.175   2.902  17.261
 5809TIP3    H167895   5.080   2.906  17.270
 5809TIP3    H267896   5.191   2.821  17.212
 5810TIP3   OH267897   4.375   3.370  16.874
 5810TIP3    H167898   4.450   3.424  16.897
 5810TIP3    H267899   4.300   3.430  16.876
 5811TIP3   OH267900   4.488   3.114  16.878
 5811TIP3    H167901   4.435   3.193  16.870
 5811TIP3    H267902   4.425   3.044  16.895
 5812TIP3   OH267903   5.667   3.691  16.400
 5812TIP3    H167904   5.686   3.775  16.442
 5812TIP3    H267905   5.589   3.708  16.347
 5813TIP3   OH267906   5.306   3.132  16.686
 5813TIP3    H167907   5.247   3.058  16.696
 5813TIP3    H267908   5.389   3.094  16.657
 5814TIP3   OH267909   3.984   3.498  17.553
 5814TIP3    H167910   4.030   3.414  17.563
 5814TIP3    H267911   4.049   3.564  17.577
 5815TIP3   OH267912   4.460   3.271  16.474
 5815TIP3    H167913   4.516   3.211  16.524
 5815TIP3    H267914   4.479   3.357  16.510
 5816TIP3   OH267915   4.108   3.011  16.559
 5816TIP3    H167916   4.032   3.056  16.596
 5816TIP3    H267917   4.147   3.076  16.500
 5817TIP3   OH267918   5.005   2.196  16.684
 5817TIP3    H167919   4.976   2.242  16.606
 5817TIP3    H267920   5.023   2.265  16.748
 5818TIP3   OH267921   4.656   2.439  16.812
 5818TIP3    H167922   4.734   2.490  16.792
 5818TIP3    H267923   4.660   2.426  16.907
 5819TIP3   OH267924   4.852   2.527  17.684
 5819TIP3    H167925   4.809   2.572  17.757
 5819TIP3    H267926   4.880   2.443  17.721
 5820TIP3   OH267927   4.480   3.534  16.567
 5820TIP3    H167928   4.413   3.592  16.530
 5820TIP3    H267929   4.473   3.545  16.661
 5821TIP3   OH267930   5.209   2.652  17.131
 5821TIP3    H167931   5.126   2.623  17.094
 5821TIP3    H267932   5.237   2.581  17.188
 5822TIP3   OH267933   4.202   3.205  16.383
 5822TIP3    H167934   4.278   3.226  16.437
 5822TIP3    H267935   4.231   3.217  16.293
 5823TIP3   OH267936   5.290   3.552  17.267
 5823TIP3    H167937   5.280   3.581  17.176
 5823TIP3    H267938   5.372   3.592  17.296
 5824TIP3   OH267939   3.963   3.422  16.792
 5824TIP3    H167940   3.906   3.442  16.865
 5824TIP3    H267941   3.936   3.483  16.723
 5825TIP3   OH267942   3.925   3.679  18.010
 5825TIP3    H167943   3.986   3.675  18.084
 5825TIP3    H267944   3.924   3.590  17.975
 5826TIP3   OH267945   4.371   3.556  18.113
 5826TIP3    H167946   4.434   3.487  18.129
 5826TIP3    H267947   4.332   3.533  18.028
 5827TIP3   OH267948   3.865   3.056  18.049
 5827TIP3    H167949   3.883   2.964  18.030
 5827TIP3    H267950   3.772   3.068  18.028
 5828TIP3   OH267951   4.528   3.010  17.933
 5828TIP3    H167952   4.602   3.039  17.879
 5828TIP3    H267953   4.540   2.915  17.941
 5829TIP3   OH267954   5.112   3.072  17.764
 5829TIP3    H167955   5.203   3.092  17.740
 5829TIP3    H267956   5.059   3.120  17.701
 5830TIP3   OH267957   3.948   2.798  17.988
 5830TIP3    H167958   4.031   2.786  17.942
 5830TIP3    H267959   3.966   2.767  18.077
 5831TIP3   OH267960   4.480   2.862  16.535
 5831TIP3    H167961   4.402   2.831  16.581
 5831TIP3    H267962   4.490   2.802  16.461
 5832TIP3   OH267963   4.361   2.662  17.773
 5832TIP3    H167964   4.294   2.731  17.778
 5832TIP3    H267965   4.431   2.700  17.719
 5833TIP3   OH267966   4.551   2.696  16.313
 5833TIP3    H167967   4.568   2.739  16.229
 5833TIP3    H267968   4.638   2.674  16.346
 5834TIP3   OH267969   4.899   2.966  18.056
 5834TIP3    H167970   4.978   2.930  18.016
 5834TIP3    H267971   4.864   2.895  18.109
 5835TIP3   OH267972   4.563   2.777  17.634
 5835TIP3    H167973   4.648   2.758  17.594
 5835TIP3    H267974   4.527   2.849  17.582
 5836TIP3   OH267975   5.031   2.569  18.101
 5836TIP3    H167976   5.027   2.487  18.151
 5836TIP3    H267977   5.124   2.588  18.093
 5837TIP3   OH267978   5.152   2.876  17.948
 5837TIP3    H167979   5.131   2.943  17.883
 5837TIP3    H267980   5.242   2.851  17.928
 5838TIP3   OH267981   4.708   2.346  17.996
 5838TIP3    H167982   4.716   2.315  18.086
 5838TIP3    H267983   4.621   2.317  17.969
 5839TIP3   OH267984   4.945   2.319  17.849
 5839TIP3    H167985   4.858   2.320  17.891
 5839TIP3    H267986   5.002   2.278  17.914
 5840TIP3   OH267987   5.097   2.213  18.055
 5840TIP3    H167988   5.092   2.118  18.063
 5840TIP3    H267989   5.062   2.246  18.138
 5841TIP3   OH267990   3.932   3.267  16.345
 5841TIP3    H167991   4.025   3.247  16.359
 5841TIP3    H267992   3.913   3.236  16.257
 5842TIP3   OH267993   3.797   3.733  16.901
 5842TIP3    H167994   3.734   3.711  16.832
 5842TIP3    H267995   3.810   3.651  16.948
 5843TIP3   OH267996   3.846   3.499  17.039
 5843TIP3    H167997   3.824   3.407  17.055
 5843TIP3    H267998   3.876   3.532  17.124
 5844TIP3   OH267999   5.549   3.642  17.329
 5844TIP3    H168000   5.584   3.716  17.378
 5844TIP3    H268001   5.589   3.649  17.243
 5845TIP3   OH268002   5.367   3.144  18.103
 5845TIP3    H168003   5.276   3.164  18.081
 5845TIP3    H268004   5.394   3.214  18.161
 5846TIP3   OH268005   5.539   2.994  16.616
 5846TIP3    H168006   5.616   3.033  16.576
 5846TIP3    H268007   5.571   2.951  16.695
 5847TIP3   OH268008   5.588   2.811  16.831
 5847TIP3    H168009   5.494   2.801  16.846
 5847TIP3    H268010   5.623   2.723  16.844
 5848TIP3   OH268011   5.591   3.108  17.334
 5848TIP3    H168012   5.594   3.084  17.241
 5848TIP3    H268013   5.601   3.203  17.334
 5849TIP3   OH268014   5.371   3.355  17.569
 5849TIP3    H168015   5.386   3.449  17.560
 5849TIP3    H268016   5.334   3.328  17.485
 5850TIP3   OH268017   5.521   2.758  16.471
 5850TIP3    H168018   5.488   2.783  16.385
 5850TIP3    H268019   5.515   2.838  16.523
 5851TIP3   OH268020   5.335   2.696  16.880
 5851TIP3    H168021   5.342   2.607  16.845
 5851TIP3    H268022   5.295   2.684  16.966
 5852TIP3   OH268023   3.826   2.858  17.344
 5852TIP3    H168024   3.840   2.860  17.249
 5852TIP3    H268025   3.911   2.835  17.380
 5853TIP3   OH268026   5.421   2.803  17.905
 5853TIP3    H168027   5.404   2.710  17.894
 5853TIP3    H268028   5.462   2.830  17.822
 5854TIP3   OH268029   5.340   2.358  16.272
 5854TIP3    H168030   5.397   2.292  16.309
 5854TIP3    H268031   5.325   2.329  16.181
 5855TIP3   OH268032   5.356   2.436  16.739
 5855TIP3    H168033   5.384   2.346  16.758
 5855TIP3    H268034   5.414   2.464  16.668
 5856TIP3   OH268035   5.377   2.472  17.289
 5856TIP3    H168036   5.448   2.526  17.252
 5856TIP3    H268037   5.367   2.504  17.378
 5857TIP3   OH268038   5.387   2.605  17.527
 5857TIP3    H168039   5.306   2.627  17.573
 5857TIP3    H268040   5.447   2.676  17.550
 5858TIP3   OH268041   3.787   2.469  17.955
 5858TIP3    H168042   3.833   2.470  18.039
 5858TIP3    H268043   3.713   2.410  17.970
 5859TIP3   OH268044   5.637   1.973  18.114
 5859TIP3    H168045   5.693   1.913  18.065
 5859TIP3    H268046   5.630   2.050  18.057
 5860TIP3   OH268047   5.439   2.168  16.772
 5860TIP3    H168048   5.475   2.118  16.845
 5860TIP3    H268049   5.365   2.116  16.741
 5861TIP3   OH268050   3.737   2.545  17.274
 5861TIP3    H168051   3.802   2.536  17.205
 5861TIP3    H268052   3.760   2.627  17.318
 5862TIP3   OH268053   5.568   2.165  17.933
 5862TIP3    H168054   5.503   2.235  17.938
 5862TIP3    H268055   5.549   2.120  17.850
 5863TIP3   OH268056   5.517   2.169  16.358
 5863TIP3    H168057   5.542   2.096  16.302
 5863TIP3    H268058   5.581   2.168  16.429
 5864TIP3   OH268059   3.798   2.172  16.741
 5864TIP3    H168060   3.702   2.173  16.743
 5864TIP3    H268061   3.822   2.221  16.663
 5865TIP3   OH268062   5.327   3.653  16.990
 5865TIP3    H168063   5.362   3.645  16.902
 5865TIP3    H268064   5.347   3.743  17.016
 5866TIP3   OH268065   3.974   3.404  17.980
 5866TIP3    H168066   3.895   3.373  17.936
 5866TIP3    H268067   3.965   3.372  18.070
 5867TIP3   OH268068   4.304   3.474  17.606
 5867TIP3    H168069   4.294   3.552  17.552
 5867TIP3    H268070   4.393   3.477  17.638
 5868TIP3   OH268071   5.454   1.999  17.739
 5868TIP3    H168072   5.402   2.039  17.670
 5868TIP3    H268073   5.488   1.918  17.701
 5869TIP3   OH268074   4.050   3.784  17.609
 5869TIP3    H168075   3.975   3.832  17.576
 5869TIP3    H268076   4.060   3.814  17.699
 5870TIP3   OH268077   4.280   3.716  17.477
 5870TIP3    H168078   4.199   3.742  17.520
 5870TIP3    H268079   4.306   3.792  17.425
 5871TIP3   OH268080   3.963   3.607  17.281
 5871TIP3    H168081   3.951   3.555  17.361
 5871TIP3    H268082   4.043   3.572  17.241
 5872TIP3   OH268083   4.186   3.490  17.175
 5872TIP3    H168084   4.183   3.395  17.187
 5872TIP3    H268085   4.271   3.516  17.209
 5873TIP3   OH268086   5.324   1.998  17.132
 5873TIP3    H168087   5.347   1.936  17.063
 5873TIP3    H268088   5.229   2.006  17.127
 5874TIP3   OH268089   5.050   2.007  17.092
 5874TIP3    H168090   5.040   2.014  16.997
 5874TIP3    H268091   5.010   1.924  17.115
 5875TIP3   OH268092   5.216   2.024  16.686
 5875TIP3    H168093   5.144   2.087  16.680
 5875TIP3    H268094   5.173   1.939  16.690
 5876TIP3   OH268095   3.886   3.588  16.593
 5876TIP3    H168096   3.833   3.549  16.524
 5876TIP3    H268097   3.898   3.679  16.566
 5877TIP3   OH268098   5.443   3.636  16.728
 5877TIP3    H168099   5.427   3.551  16.687
 5877TIP3    H268100   5.431   3.699  16.657
 5878TIP3   OH268101   4.184   3.640  16.230
 5878TIP3    H168102   4.139   3.723  16.246
 5878TIP3    H268103   4.142   3.578  16.290
 5879TIP3   OH268104   5.120   1.938  18.078
 5879TIP3    H168105   5.113   1.886  18.158
 5879TIP3    H268106   5.213   1.931  18.054
 5880TIP3   OH268107   5.458   3.548  17.884
 5880TIP3    H168108   5.390   3.490  17.919
 5880TIP3    H268109   5.521   3.556  17.956
 5881TIP3   OH268110   6.915   2.900  16.839
 5881TIP3    H168111   6.893   2.993  16.834
 5881TIP3    H268112   6.830   2.855  16.833
 5882TIP3   OH268113   7.066   3.146  17.042
 5882TIP3    H168114   7.019   3.063  17.058
 5882TIP3    H268115   7.071   3.187  17.128
 5883TIP3   OH268116   6.564   3.063  17.313
 5883TIP3    H168117   6.586   3.006  17.240
 5883TIP3    H268118   6.648   3.082  17.355
 5884TIP3   OH268119   6.895   2.575  17.333
 5884TIP3    H168120   6.881   2.481  17.344
 5884TIP3    H268121   6.846   2.597  17.254
 5885TIP3   OH268122   6.181   2.331  17.118
 5885TIP3    H168123   6.253   2.390  17.098
 5885TIP3    H268124   6.176   2.273  17.042
 5886TIP3   OH268125   6.174   2.222  17.540
 5886TIP3    H168126   6.195   2.315  17.549
 5886TIP3    H268127   6.109   2.205  17.608
 5887TIP3   OH268128   6.784   3.141  16.797
 5887TIP3    H168129   6.747   3.160  16.711
 5887TIP3    H268130   6.794   3.227  16.838
 5888TIP3   OH268131   6.355   2.982  17.484
 5888TIP3    H168132   6.317   3.065  17.514
 5888TIP3    H268133   6.423   3.008  17.422
 5889TIP3   OH268134   6.222   3.213  17.547
 5889TIP3    H168135   6.238   3.249  17.460
 5889TIP3    H268136   6.129   3.228  17.562
 5890TIP3   OH268137   6.469   1.957  17.209
 5890TIP3    H168138   6.445   1.940  17.118
 5890TIP3    H268139   6.387   1.985  17.251
 5891TIP3   OH268140   7.158   3.250  16.792
 5891TIP3    H168141   7.174   3.162  16.757
 5891TIP3    H268142   7.120   3.235  16.878
 5892TIP3   OH268143   6.668   2.840  16.705
 5892TIP3    H168144   6.654   2.935  16.706
 5892TIP3    H268145   6.671   2.817  16.612
 5893TIP3   OH268146   6.709   2.757  16.444
 5893TIP3    H168147   6.797   2.788  16.467
 5893TIP3    H268148   6.724   2.677  16.395
 5894TIP3   OH268149   6.339   3.255  17.291
 5894TIP3    H168150   6.324   3.290  17.203
 5894TIP3    H268151   6.417   3.200  17.282
 5895TIP3   OH268152   6.914   3.348  17.451
 5895TIP3    H168153   6.844   3.397  17.406
 5895TIP3    H268154   6.891   3.256  17.439
 5896TIP3   OH268155   6.345   3.247  17.794
 5896TIP3    H168156   6.286   3.315  17.827
 5896TIP3    H268157   6.309   3.225  17.708
 5897TIP3   OH268158   6.948   2.843  16.564
 5897TIP3    H168159   6.941   2.860  16.657
 5897TIP3    H268160   6.994   2.918  16.528
 5898TIP3   OH268161   6.793   3.411  16.887
 5898TIP3    H168162   6.860   3.465  16.929
 5898TIP3    H268163   6.739   3.473  16.838
 5899TIP3   OH268164   6.160   3.443  17.843
 5899TIP3    H168165   6.163   3.506  17.771
 5899TIP3    H268166   6.066   3.433  17.861
 5900TIP3   OH268167   7.304   1.931  16.513
 5900TIP3    H168168   7.214   1.951  16.536
 5900TIP3    H268169   7.350   2.015  16.520
 5901TIP3   OH268170   7.395   3.381  16.415
 5901TIP3    H168171   7.432   3.462  16.380
 5901TIP3    H268172   7.409   3.317  16.345
 5902TIP3   OH268173   5.718   3.057  17.592
 5902TIP3    H168174   5.687   3.095  17.510
 5902TIP3    H268175   5.691   2.965  17.588
 5903TIP3   OH268176   5.642   3.374  17.334
 5903TIP3    H168177   5.711   3.393  17.396
 5903TIP3    H268178   5.592   3.456  17.327
 5904TIP3   OH268179   7.538   3.436  17.901
 5904TIP3    H168180   7.534   3.407  17.810
 5904TIP3    H268181   7.448   3.458  17.924
 5905TIP3   OH268182   6.611   3.306  17.773
 5905TIP3    H168183   6.601   3.392  17.732
 5905TIP3    H268184   6.522   3.276  17.789
 5906TIP3   OH268185   7.018   3.639  16.690
 5906TIP3    H168186   6.961   3.688  16.630
 5906TIP3    H268187   7.016   3.550  16.656
 5907TIP3   OH268188   5.953   3.229  17.644
 5907TIP3    H168189   5.946   3.250  17.737
 5907TIP3    H268190   5.891   3.156  17.631
 5908TIP3   OH268191   6.217   2.066  17.304
 5908TIP3    H168192   6.191   2.117  17.227
 5908TIP3    H268193   6.204   2.124  17.378
 5909TIP3   OH268194   6.660   1.966  17.635
 5909TIP3    H168195   6.695   1.919  17.710
 5909TIP3    H268196   6.566   1.970  17.651
 5910TIP3   OH268197   6.646   2.301  16.351
 5910TIP3    H168198   6.604   2.252  16.422
 5910TIP3    H268199   6.574   2.325  16.292
 5911TIP3   OH268200   6.719   2.580  16.774
 5911TIP3    H168201   6.702   2.670  16.747
 5911TIP3    H268202   6.800   2.555  16.730
 5912TIP3   OH268203   6.709   2.658  17.931
 5912TIP3    H168204   6.654   2.591  17.890
 5912TIP3    H268205   6.778   2.609  17.975
 5913TIP3   OH268206   6.737   2.688  17.535
 5913TIP3    H168207   6.801   2.653  17.472
 5913TIP3    H268208   6.707   2.612  17.583
 5914TIP3   OH268209   6.552   2.301  16.992
 5914TIP3    H168210   6.510   2.376  17.035
 5914TIP3    H268211   6.596   2.254  17.063
 5915TIP3   OH268212   6.216   2.377  16.732
 5915TIP3    H168213   6.308   2.401  16.724
 5915TIP3    H268214   6.175   2.410  16.651
 5916TIP3   OH268215   6.828   2.310  17.336
 5916TIP3    H168216   6.827   2.268  17.423
 5916TIP3    H268217   6.774   2.253  17.282
 5917TIP3   OH268218   7.307   3.779  17.961
 5917TIP3    H168219   7.312   3.814  17.872
 5917TIP3    H268220   7.394   3.796  17.998
 5918TIP3   OH268221   6.175   2.158  16.902
 5918TIP3    H168222   6.094   2.109  16.887
 5918TIP3    H268223   6.177   2.223  16.832
 5919TIP3   OH268224   6.908   2.297  16.439
 5919TIP3    H168225   6.824   2.292  16.393
 5919TIP3    H268226   6.919   2.390  16.457
 5920TIP3   OH268227   6.775   3.093  17.701
 5920TIP3    H168228   6.738   3.021  17.751
 5920TIP3    H268229   6.721   3.169  17.725
 5921TIP3   OH268230   6.953   2.533  16.626
 5921TIP3    H168231   7.038   2.492  16.645
 5921TIP3    H268232   6.976   2.620  16.592
 5922TIP3   OH268233   6.686   3.177  16.538
 5922TIP3    H168234   6.765   3.187  16.486
 5922TIP3    H268235   6.615   3.205  16.480
 5923TIP3   OH268236   7.365   3.409  16.690
 5923TIP3    H168237   7.293   3.356  16.725
 5923TIP3    H268238   7.370   3.384  16.598
 5924TIP3   OH268239   7.013   2.897  17.310
 5924TIP3    H168240   6.983   2.807  17.322
 5924TIP3    H268241   7.104   2.888  17.283
 5925TIP3   OH268242   6.290   3.356  17.023
 5925TIP3    H168243   6.287   3.422  16.954
 5925TIP3    H268244   6.267   3.274  16.979
 5926TIP3   OH268245   6.241   3.539  16.810
 5926TIP3    H168246   6.152   3.505  16.800
 5926TIP3    H268247   6.229   3.634  16.812
 5927TIP3   OH268248   6.824   3.085  17.421
 5927TIP3    H168249   6.814   3.068  17.515
 5927TIP3    H268250   6.888   3.021  17.392
 5928TIP3   OH268251   7.512   3.615  16.308
 5928TIP3    H168252   7.532   3.619  16.214
 5928TIP3    H268253   7.482   3.703  16.330
 5929TIP3   OH268254   5.819   3.443  17.533
 5929TIP3    H168255   5.883   3.377  17.557
 5929TIP3    H268256   5.759   3.446  17.607
 5930TIP3   OH268257   6.816   2.190  17.581
 5930TIP3    H168258   6.813   2.234  17.666
 5930TIP3    H268259   6.764   2.110  17.593
 5931TIP3   OH268260   6.863   2.200  16.694
 5931TIP3    H168261   6.869   2.216  16.600
 5931TIP3    H268262   6.886   2.283  16.735
 5932TIP3   OH268263   6.501   2.408  16.742
 5932TIP3    H168264   6.573   2.471  16.737
 5932TIP3    H268265   6.510   2.367  16.828
 5933TIP3   OH268266   6.619   2.099  16.810
 5933TIP3    H168267   6.601   2.169  16.873
 5933TIP3    H268268   6.706   2.120  16.775
 5934TIP3   OH268269   6.345   3.481  16.543
 5934TIP3    H168270   6.421   3.537  16.530
 5934TIP3    H268271   6.317   3.498  16.633
 5935TIP3   OH268272   6.217   3.295  16.379
 5935TIP3    H168273   6.256   3.365  16.431
 5935TIP3    H268274   6.155   3.253  16.439
 5936TIP3   OH268275   7.270   3.651  17.266
 5936TIP3    H168276   7.245   3.695  17.185
 5936TIP3    H268277   7.236   3.562  17.257
 5937TIP3   OH268278   5.982   3.459  16.783
 5937TIP3    H168279   5.912   3.400  16.812
 5937TIP3    H268280   5.942   3.509  16.711
 5938TIP3   OH268281   5.878   3.722  17.959
 5938TIP3    H168282   5.950   3.702  18.019
 5938TIP3    H268283   5.807   3.664  17.988
 5939TIP3   OH268284   5.697   3.118  18.109
 5939TIP3    H168285   5.656   3.034  18.131
 5939TIP3    H268286   5.677   3.131  18.017
 5940TIP3   OH268287   7.051   3.140  17.673
 5940TIP3    H168288   7.043   3.230  17.642
 5940TIP3    H268289   6.961   3.114  17.692
 5941TIP3   OH268290   6.711   2.902  18.059
 5941TIP3    H168291   6.704   2.833  17.992
 5941TIP3    H268292   6.740   2.856  18.138
 5942TIP3   OH268293   6.465   2.724  17.490
 5942TIP3    H168294   6.559   2.734  17.502
 5942TIP3    H268295   6.431   2.813  17.493
 5943TIP3   OH268296   6.899   2.531  18.097
 5943TIP3    H168297   6.898   2.447  18.144
 5943TIP3    H268298   6.985   2.533  18.055
 5944TIP3   OH268299   6.380   2.002  17.646
 5944TIP3    H168300   6.338   2.081  17.611
 5944TIP3    H268301   6.334   1.929  17.604
 5945TIP3   OH268302   6.800   2.283  17.844
 5945TIP3    H168303   6.722   2.246  17.886
 5945TIP3    H268304   6.872   2.258  17.902
 5946TIP3   OH268305   6.960   2.186  18.044
 5946TIP3    H168306   6.963   2.091  18.054
 5946TIP3    H268307   6.941   2.219  18.132
 5947TIP3   OH268308   6.018   2.259  17.842
 5947TIP3    H168309   5.986   2.170  17.849
 5947TIP3    H268310   5.950   2.313  17.884
 5948TIP3   OH268311   6.426   1.899  17.898
 5948TIP3    H168312   6.441   1.808  17.869
 5948TIP3    H268313   6.407   1.946  17.817
 5949TIP3   OH268314   6.430   2.061  18.128
 5949TIP3    H168315   6.454   2.010  18.051
 5949TIP3    H268316   6.334   2.065  18.126
 5950TIP3   OH268317   5.582   3.795  16.907
 5950TIP3    H168318   5.552   3.734  16.839
 5950TIP3    H268319   5.625   3.739  16.972
 5951TIP3   OH268320   5.705   3.616  17.099
 5951TIP3    H168321   5.690   3.532  17.055
 5951TIP3    H268322   5.776   3.600  17.160
 5952TIP3   OH268323   7.510   3.740  17.367
 5952TIP3    H168324   7.429   3.696  17.340
 5952TIP3    H268325   7.505   3.827  17.328
 5953TIP3   OH268326   7.111   2.291  16.235
 5953TIP3    H168327   7.069   2.271  16.319
 5953TIP3    H268328   7.046   2.269  16.169
 5954TIP3   OH268329   7.196   2.414  16.688
 5954TIP3    H168330   7.230   2.325  16.694
 5954TIP3    H268331   7.227   2.457  16.767
 5955TIP3   OH268332   7.288   2.158  16.748
 5955TIP3    H168333   7.311   2.124  16.835
 5955TIP3    H268334   7.213   2.104  16.721
 5956TIP3   OH268335   7.358   2.173  17.823
 5956TIP3    H168336   7.310   2.235  17.769
 5956TIP3    H268337   7.361   2.093  17.771
 5957TIP3   OH268338   5.655   2.211  16.596
 5957TIP3    H168339   5.589   2.183  16.659
 5957TIP3    H268340   5.644   2.306  16.589
 5958TIP3   OH268341   5.890   3.381  17.901
 5958TIP3    H168342   5.815   3.401  17.845
 5958TIP3    H268343   5.863   3.409  17.988
 5959TIP3   OH268344   7.325   1.932  17.683
 5959TIP3    H168345   7.253   1.926  17.620
 5959TIP3    H268346   7.378   1.854  17.666
 5960TIP3   OH268347   5.880   3.609  17.323
 5960TIP3    H168348   5.852   3.562  17.402
 5960TIP3    H268349   5.972   3.585  17.312
 5961TIP3   OH268350   6.684   2.136  17.171
 5961TIP3    H168351   6.619   2.068  17.191
 5961TIP3    H268352   6.760   2.088  17.139
 5962TIP3   OH268353   7.210   1.935  17.120
 5962TIP3    H168354   7.285   1.982  17.083
 5962TIP3    H268355   7.143   2.002  17.132
 5963TIP3   OH268356   7.407   2.058  16.977
 5963TIP3    H168357   7.468   1.991  16.945
 5963TIP3    H268358   7.462   2.135  16.993
 5964TIP3   OH268359   5.948   1.993  16.891
 5964TIP3    H168360   5.853   1.988  16.885
 5964TIP3    H268361   5.977   1.902  16.898
 5965TIP3   OH268362   5.796   1.990  16.489
 5965TIP3    H168363   5.882   2.023  16.461
 5965TIP3    H268364   5.758   2.061  16.540
 5966TIP3   OH268365   6.386   1.975  16.935
 5966TIP3    H168366   6.459   2.014  16.887
 5966TIP3    H268367   6.315   2.039  16.926
 5967TIP3   OH268368   6.919   2.016  17.077
 5967TIP3    H168369   6.935   2.005  16.983
 5967TIP3    H268370   6.901   1.927  17.108
 5968TIP3   OH268371   7.074   2.011  16.659
 5968TIP3    H168372   6.997   2.068  16.666
 5968TIP3    H268373   7.039   1.923  16.666
 5969TIP3   OH268374   5.849   3.594  16.588
 5969TIP3    H168375   5.779   3.581  16.523
 5969TIP3    H268376   5.851   3.689  16.600
 5970TIP3   OH268377   6.514   2.187  16.565
 5970TIP3    H168378   6.545   2.133  16.638
 5970TIP3    H268379   6.491   2.271  16.606
 5971TIP3   OH268380   7.403   3.677  16.650
 5971TIP3    H168381   7.391   3.585  16.673
 5971TIP3    H268382   7.314   3.712  16.643
 5972TIP3   OH268383   5.963   1.981  17.862
 5972TIP3    H168384   5.898   1.921  17.898
 5972TIP3    H268385   6.039   1.971  17.919
 5973TIP3   OH268386   6.177   1.939  18.037
 5973TIP3    H168387   6.251   1.894  17.996
 5973TIP3    H268388   6.153   1.883  18.111
 5974TIP3   OH268389   6.007   3.646  16.259
 5974TIP3    H168390   5.973   3.731  16.231
 5974TIP3    H268391   5.960   3.628  16.340
 5975TIP3   OH268392   6.991   1.908  18.061
 5975TIP3    H168393   6.998   1.850  18.137
 5975TIP3    H268394   7.078   1.908  18.023
 5976TIP3   OH268395   7.262   3.510  17.922
 5976TIP3    H168396   7.204   3.504  17.846
 5976TIP3    H268397   7.265   3.603  17.943
 5977TIP3   OH268398   7.911   2.798  17.357
 5977TIP3    H168399   7.899   2.771  17.448
 5977TIP3    H268400   8.004   2.821  17.351
 5978TIP3   OH268401   7.935   3.271  17.301
 5978TIP3    H168402   7.926   3.185  17.260
 5978TIP3    H268403   8.030   3.285  17.307
 5979TIP3   OH268404   8.004   2.374  17.081
 5979TIP3    H168405   8.044   2.444  17.030
 5979TIP3    H268406   7.962   2.317  17.016
 5980TIP3   OH268407   7.941   2.179  17.498
 5980TIP3    H168408   7.932   2.257  17.443
 5980TIP3    H268409   7.916   2.208  17.585
 5981TIP3   OH268410   7.912   2.399  17.333
 5981TIP3    H168411   7.978   2.462  17.364
 5981TIP3    H268412   7.933   2.385  17.241
 5982TIP3   OH268413   8.047   3.212  17.623
 5982TIP3    H168414   8.056   3.306  17.607
 5982TIP3    H268415   7.961   3.203  17.664
 5983TIP3   OH268416   8.116   3.466  17.876
 5983TIP3    H168417   8.104   3.474  17.782
 5983TIP3    H268418   8.030   3.444  17.910
 5984TIP3   OH268419   7.984   2.773  16.685
 5984TIP3    H168420   7.967   2.850  16.739
 5984TIP3    H268421   7.909   2.716  16.701
 5985TIP3   OH268422   7.673   3.335  17.382
 5985TIP3    H168423   7.760   3.306  17.353
 5985TIP3    H268424   7.677   3.431  17.377
 5986TIP3   OH268425   7.804   3.179  17.757
 5986TIP3    H168426   7.821   3.108  17.820
 5986TIP3    H268427   7.748   3.139  17.691
 5987TIP3   OH268428   8.072   2.004  17.299
 5987TIP3    H168429   8.092   2.040  17.212
 5987TIP3    H268430   8.019   2.071  17.342
 5988TIP3   OH268431   8.119   2.566  16.918
 5988TIP3    H168432   8.030   2.572  16.885
 5988TIP3    H268433   0.030   2.588  16.842
 5989TIP3   OH268434   7.574   2.274  17.008
 5989TIP3    H168435   7.603   2.279  17.099
 5989TIP3    H268436   7.654   2.268  16.957
 5990TIP3   OH268437   7.856   2.528  16.853
 5990TIP3    H168438   7.824   2.552  16.940
 5990TIP3    H268439   7.843   2.434  16.847
 5991TIP3   OH268440   8.098   2.433  16.377
 5991TIP3    H168441   8.011   2.463  16.351
 5991TIP3    H268442   0.015   2.484  16.324
 5992TIP3   OH268443   7.853   2.995  17.958
 5992TIP3    H168444   7.900   3.034  18.032
 5992TIP3    H268445   7.838   2.904  17.984
 5993TIP3   OH268446   7.882   2.242  16.869
 5993TIP3    H168447   7.847   2.153  16.872
 5993TIP3    H268448   7.962   2.235  16.817
 5994TIP3   OH268449   7.829   2.251  17.771
 5994TIP3    H168450   7.740   2.278  17.794
 5994TIP3    H268451   7.831   2.157  17.790
 5995TIP3   OH268452   8.071   2.164  16.468
 5995TIP3    H168453   8.073   2.256  16.439
 5995TIP3    H268454   0.016   2.132  16.452
 5996TIP3   OH268455   7.776   2.044  17.160
 5996TIP3    H168456   7.793   2.032  17.067
 5996TIP3    H268457   7.782   1.956  17.197
 5997TIP3   OH268458   7.667   3.447  16.793
 5997TIP3    H168459   7.583   3.403  16.779
 5997TIP3    H268460   7.684   3.492  16.711
 5998TIP3   OH268461   7.880   2.394  18.018
 5998TIP3    H168462   7.875   2.353  17.932
 5998TIP3    H268463   7.867   2.322  18.080
 5999TIP3   OH268464   7.587   2.313  17.887
 5999TIP3    H168465   7.561   2.369  17.960
 5999TIP3    H268466   7.509   2.263  17.865
 6000TIP3   OH268467   7.668   2.266  17.272
 6000TIP3    H168468   7.711   2.187  17.241
 6000TIP3    H268469   7.739   2.321  17.306
 6001TIP3   OH268470   7.549   2.171  16.657
 6001TIP3    H168471   7.462   2.172  16.695
 6001TIP3    H268472   7.569   2.263  16.640
 6002TIP3   OH268473   7.567   2.030  17.471
 6002TIP3    H168474   7.488   2.052  17.519
 6002TIP3    H268475   7.582   2.106  17.414
 6003TIP3   OH268476   7.838   3.398  17.924
 6003TIP3    H168477   7.833   3.326  17.862
 6003TIP3    H268478   7.747   3.422  17.940
 6004TIP3   OH268479   8.088   3.484  17.601
 6004TIP3    H168480   8.029   3.524  17.537
 6004TIP3    H268481   0.029   3.482  17.557
 6005TIP3   OH268482   7.801   1.980  16.890
 6005TIP3    H168483   7.713   1.947  16.872
 6005TIP3    H268484   7.857   1.902  16.887
 6006TIP3   OH268485   7.649   1.968  16.501
 6006TIP3    H168486   7.644   2.029  16.427
 6006TIP3    H268487   7.624   2.021  16.576
 6007TIP3   OH268488   7.655   3.600  16.550
 6007TIP3    H168489   7.617   3.589  16.463
 6007TIP3    H268490   7.586   3.642  16.601
 6008TIP3   OH268491   7.833   1.983  17.845
 6008TIP3    H168492   7.776   1.913  17.876
 6008TIP3    H268493   7.904   1.986  17.910
 6009TIP3   OH268494   8.011   1.943  18.065
 6009TIP3    H168495   8.100   1.919  18.036
 6009TIP3    H268496   7.971   1.860  18.089
 6010TIP3   OH268497   7.898   3.538  16.384
 6010TIP3    H168498   7.821   3.552  16.439
 6010TIP3    H268499   7.971   3.527  16.446
 6011TIP3   OH268500   1.035   4.713  17.290
 6011TIP3    H168501   1.062   4.660  17.364
 6011TIP3    H268502   1.087   4.680  17.216
 6012TIP3   OH268503   0.311   4.702  17.358
 6012TIP3    H168504   0.306   4.657  17.442
 6012TIP3    H268505   0.250   4.775  17.366
 6013TIP3   OH268506   0.153   4.511  16.683
 6013TIP3    H168507   0.137   4.579  16.617
 6013TIP3    H268508   0.130   4.429  16.640
 6014TIP3   OH268509   0.233   4.810  17.051
 6014TIP3    H168510   0.200   4.727  17.016
 6014TIP3    H268511   0.154   4.862  17.066
 6015TIP3   OH268512   0.903   4.948  17.337
 6015TIP3    H168513   0.955   4.870  17.320
 6015TIP3    H268514   0.944   5.016  17.284
 6016TIP3   OH268515   0.553   4.179  17.032
 6016TIP3    H168516   0.586   4.254  16.983
 6016TIP3    H268517   0.504   4.128  16.967
 6017TIP3   OH268518   0.333   4.491  17.121
 6017TIP3    H168519   0.335   4.397  17.136
 6017TIP3    H268520   0.263   4.505  17.057
 6018TIP3   OH268521   0.652   4.595  17.050
 6018TIP3    H168522   0.745   4.577  17.063
 6018TIP3    H268523   0.622   4.528  16.988
 6019TIP3   OH268524   1.814   4.232  17.633
 6019TIP3    H168525   1.748   4.298  17.609
 6019TIP3    H268526   1.872   4.277  17.694
 6020TIP3   OH268527   0.485   4.090  17.455
 6020TIP3    H168528   0.448   4.151  17.392
 6020TIP3    H268529   0.409   4.045  17.493
 6021TIP3   OH268530   0.698   4.902  17.510
 6021TIP3    H168531   0.630   4.969  17.501
 6021TIP3    H268532   0.771   4.937  17.459
 6022TIP3   OH268533   0.406   4.250  17.248
 6022TIP3    H168534   0.456   4.324  17.281
 6022TIP3    H268535   0.457   4.216  17.174
 6023TIP3   OH268536   0.080   4.983  16.570
 6023TIP3    H168537   0.007   5.018  16.518
 6023TIP3    H268538   0.065   5.018  16.658
 6024TIP3   OH268539   0.792   3.788  17.212
 6024TIP3    H168540   0.771   3.695  17.216
 6024TIP3    H268541   0.710   3.832  17.233
 6025TIP3   OH268542   1.082   4.715  16.668
 6025TIP3    H168543   1.019   4.786  16.658
 6025TIP3    H268544   1.139   4.722  16.591
 6026TIP3   OH268545   1.093   4.575  16.283
 6026TIP3    H168546   1.145   4.636  16.335
 6026TIP3    H268547   1.108   4.489  16.323
 6027TIP3   OH268548   1.785   4.679  17.550
 6027TIP3    H168549   1.716   4.740  17.526
 6027TIP3    H268550   1.842   4.676  17.473
 6028TIP3   OH268551   1.386   4.592  17.582
 6028TIP3    H168552   1.386   4.641  17.665
 6028TIP3    H268553   1.386   4.659  17.514
 6029TIP3   OH268554   0.589   4.824  16.907
 6029TIP3    H168555   0.531   4.793  16.838
 6029TIP3    H268556   0.623   4.744  16.948
 6030TIP3   OH268557   0.679   4.699  17.329
 6030TIP3    H168558   0.753   4.730  17.277
 6030TIP3    H268559   0.670   4.764  17.399
 6031TIP3   OH268560   1.272   4.697  16.461
 6031TIP3    H168561   1.317   4.633  16.515
 6031TIP3    H268562   1.335   4.768  16.449
 6032TIP3   OH268563   0.360   4.698  17.763
 6032TIP3    H168564   0.383   4.779  17.809
 6032TIP3    H268565   0.267   4.707  17.743
 6033TIP3   OH268566   0.425   4.695  16.729
 6033TIP3    H168567   0.396   4.758  16.662
 6033TIP3    H268568   0.369   4.619  16.715
 6034TIP3   OH268569   1.043   5.562  16.732
 6034TIP3    H168570   1.043   5.494  16.664
 6034TIP3    H268571   1.085   5.637  16.690
 6035TIP3   OH268572   1.494   4.439  17.919
 6035TIP3    H168573   1.466   4.528  17.897
 6035TIP3    H268574   1.485   4.390  17.837
 6036TIP3   OH268575   0.545   3.878  17.292
 6036TIP3    H168576   0.465   3.875  17.241
 6036TIP3    H268577   0.540   3.961  17.340
 6037TIP3   OH268578   0.914   4.117  16.374
 6037TIP3    H168579   0.887   4.124  16.465
 6037TIP3    H268580   0.875   4.035  16.343
 6038TIP3   OH268581   0.542   4.461  17.357
 6038TIP3    H168582   0.485   4.475  17.433
 6038TIP3    H268583   0.616   4.520  17.372
 6039TIP3   OH268584   0.591   4.402  16.873
 6039TIP3    H168585   0.496   4.394  16.865
 6039TIP3    H268586   0.623   4.402  16.783
 6040TIP3   OH268587   1.091   4.448  16.728
 6040TIP3    H168588   1.072   4.541  16.718
 6040TIP3    H268589   1.178   4.437  16.691
 6041TIP3   OH268590   1.050   4.526  17.934
 6041TIP3    H168591   0.989   4.455  17.949
 6041TIP3    H268592   1.128   4.502  17.984
 6042TIP3   OH268593   0.367   4.513  17.560
 6042TIP3    H168594   0.363   4.564  17.641
 6042TIP3    H268595   0.326   4.429  17.581
 6043TIP3   OH268596   0.113   4.044  16.986
 6043TIP3    H168597   0.185   3.981  16.975
 6043TIP3    H268598   0.064   4.039  16.903
 6044TIP3   OH268599   0.110   4.262  16.582
 6044TIP3    H168600   0.181   4.212  16.541
 6044TIP3    H268601   0.034   4.245  16.526
 6045TIP3   OH268602   1.101   4.572  17.520
 6045TIP3    H168603   1.196   4.569  17.536
 6045TIP3    H268604   1.063   4.531  17.598
 6046TIP3   OH268605   0.331   4.343  16.835
 6046TIP3    H168606   0.265   4.370  16.771
 6046TIP3    H268607   0.335   4.248  16.828
 6047TIP3   OH268608   0.663   4.392  16.609
 6047TIP3    H168609   0.754   4.421  16.599
 6047TIP3    H268610   0.618   4.430  16.534
 6048TIP3   OH268611   0.578   4.503  16.379
 6048TIP3    H168612   0.520   4.486  16.305
 6048TIP3    H268613   0.659   4.535  16.339
 6049TIP3   OH268614   0.429   4.919  17.915
 6049TIP3    H168615   0.517   4.931  17.951
 6049TIP3    H268616   0.384   5.002  17.932
 6050TIP3   OH268617   0.403   4.074  16.820
 6050TIP3    H168618   0.368   3.986  16.828
 6050TIP3    H268619   0.450   4.074  16.737
 6051TIP3   OH268620   0.908   4.920  16.616
 6051TIP3    H168621   0.838   4.871  16.573
 6051TIP3    H268622   0.866   4.961  16.692
 6052TIP3   OH268623   1.573   4.860  17.496
 6052TIP3    H168624   1.610   4.943  17.467
 6052TIP3    H268625   1.511   4.836  17.427
 6053TIP3   OH268626   1.348   4.451  16.598
 6053TIP3    H168627   1.423   4.428  16.652
 6053TIP3    H268628   1.365   4.408  16.514
 6054TIP3   OH268629   0.474   4.879  17.149
 6054TIP3    H168630   0.524   4.889  17.068
 6054TIP3    H268631   0.383   4.868  17.120
 6055TIP3   OH268632   1.127   5.057  16.507
 6055TIP3    H168633   1.103   5.148  16.524
 6055TIP3    H268634   1.052   5.006  16.538
 6056TIP3   OH268635   0.081   4.679  17.710
 6056TIP3    H168636   0.008   4.701  17.768
 6056TIP3    H268637   0.040   4.631  17.637
 6057TIP3   OH268638   0.810   4.677  17.942
 6057TIP3    H168639   0.747   4.628  17.888
 6057TIP3    H268640   0.894   4.637  17.921
 6058TIP3   OH268641   1.741   4.469  16.491
 6058TIP3    H168642   1.758   4.436  16.402
 6058TIP3    H268643   1.775   4.559  16.490
 6059TIP3   OH268644   1.364   4.768  17.342
 6059TIP3    H168645   1.299   4.814  17.289
 6059TIP3    H268646   1.382   4.688  17.293
 6060TIP3   OH268647   0.119   4.703  16.482
 6060TIP3    H168648   0.211   4.727  16.470
 6060TIP3    H268649   0.075   4.784  16.507
 6061TIP3   OH268650   0.784   5.009  16.848
 6061TIP3    H168651   0.749   5.093  16.877
 6061TIP3    H268652   0.715   4.946  16.866
 6062TIP3   OH268653   0.257   3.953  17.511
 6062TIP3    H168654   0.223   3.993  17.430
 6062TIP3    H268655   0.179   3.920  17.555
 6063TIP3   OH268656   0.723   5.248  16.489
 6063TIP3    H168657   0.719   5.193  16.411
 6063TIP3    H268658   0.631   5.261  16.513
 6064TIP3   OH268659   0.336   4.873  16.540
 6064TIP3    H168660   0.261   4.931  16.549
 6064TIP3    H268661   0.394   4.918  16.479
 6065TIP3   OH268662   0.995   5.318  16.507
 6065TIP3    H168663   0.902   5.295  16.510
 6065TIP3    H268664   1.017   5.317  16.413
 6066TIP3   OH268665   0.942   4.240  16.833
 6066TIP3    H168666   0.989   4.313  16.792
 6066TIP3    H268667   0.930   4.268  16.924
 6067TIP3   OH268668   1.015   3.972  16.827
 6067TIP3    H168669   0.987   4.063  16.836
 6067TIP3    H268670   1.110   3.978  16.815
 6068TIP3   OH268671   0.560   4.132  16.591
 6068TIP3    H168672   0.577   4.226  16.595
 6068TIP3    H268673   0.647   4.092  16.596
 6069TIP3   OH268674   1.417   4.540  17.202
 6069TIP3    H168675   1.436   4.529  17.110
 6069TIP3    H268676   1.481   4.486  17.248
 6070TIP3   OH268677   0.294   3.866  17.180
 6070TIP3    H168678   0.298   3.855  17.085
 6070TIP3    H268679   0.252   3.786  17.212
 6071TIP3   OH268680   0.711   4.950  17.982
 6071TIP3    H168681   0.736   4.883  17.919
 6071TIP3    H268682   0.747   4.920  18.065
 6072TIP3   OH268683   0.996   5.073  16.237
 6072TIP3    H168684   1.066   5.076  16.302
 6072TIP3    H268685   1.041   5.084  16.153
 6073TIP3   OH268686   1.339   4.884  17.672
 6073TIP3    H168687   1.410   4.893  17.609
 6073TIP3    H268688   1.271   4.945  17.640
 6074TIP3   OH268689   0.117   4.725  18.017
 6074TIP3    H168690   0.200   4.729  17.970
 6074TIP3    H268691   0.100   4.631  18.027
 6075TIP3   OH268692   0.723   4.747  16.503
 6075TIP3    H168693   0.634   4.711  16.511
 6075TIP3    H268694   0.757   4.709  16.422
 6076TIP3   OH268695   0.614   4.560  17.772
 6076TIP3    H168696   0.534   4.612  17.760
 6076TIP3    H268697   0.674   4.593  17.705
 6077TIP3   OH268698   0.811   4.611  16.273
 6077TIP3    H168699   0.792   4.610  16.179
 6077TIP3    H268700   0.907   4.605  16.278
 6078TIP3   OH268701   1.107   4.798  18.114
 6078TIP3    H168702   1.103   4.761  18.026
 6078TIP3    H268703   1.092   4.723  18.172
 6079TIP3   OH268704   0.670   4.286  17.812
 6079TIP3    H168705   0.686   4.231  17.736
 6079TIP3    H268706   0.650   4.372  17.775
 6080TIP3   OH268707   0.715   4.132  17.584
 6080TIP3    H168708   0.777   4.154  17.515
 6080TIP3    H268709   0.631   4.124  17.540
 6081TIP3   OH268710   0.810   4.670  17.611
 6081TIP3    H168711   0.887   4.658  17.556
 6081TIP3    H268712   0.776   4.756  17.587
 6082TIP3   OH268713   1.273   4.411  18.105
 6082TIP3    H168714   1.258   4.320  18.082
 6082TIP3    H268715   1.350   4.436  18.054
 6083TIP3   OH268716   1.426   4.693  17.848
 6083TIP3    H168717   1.375   4.768  17.815
 6083TIP3    H268718   1.516   4.724  17.849
 6084TIP3   OH268719   0.450   4.445  18.000
 6084TIP3    H168720   0.444   4.349  18.006
 6084TIP3    H268721   0.506   4.461  17.924
 6085TIP3   OH268722   0.737   3.858  17.631
 6085TIP3    H168723   0.732   3.953  17.625
 6085TIP3    H268724   0.652   3.827  17.600
 6086TIP3   OH268725   0.869   4.333  17.997
 6086TIP3    H168726   0.813   4.315  18.072
 6086TIP3    H268727   0.816   4.307  17.921
 6087TIP3   OH268728   0.433   4.172  18.055
 6087TIP3    H168729   0.426   4.110  17.982
 6087TIP3    H268730   0.383   4.131  18.126
 6088TIP3   OH268731   0.724   3.791  17.901
 6088TIP3    H168732   0.817   3.776  17.921
 6088TIP3    H268733   0.723   3.812  17.808
 6089TIP3   OH268734   1.832   4.714  16.810
 6089TIP3    H168735   1.749   4.704  16.763
 6089TIP3    H268736   1.864   4.800  16.785
 6090TIP3   OH268737   1.832   4.734  16.440
 6090TIP3    H168738   1.838   4.734  16.345
 6090TIP3    H268739   1.827   4.826  16.464
 6091TIP3   OH268740   1.692   4.745  17.832
 6091TIP3    H168741   1.735   4.677  17.884
 6091TIP3    H268742   1.741   4.745  17.749
 6092TIP3   OH268743   1.763   4.510  17.965
 6092TIP3    H168744   1.677   4.475  17.941
 6092TIP3    H268745   1.825   4.441  17.939
 6093TIP3   OH268746   1.594   4.373  16.699
 6093TIP3    H168747   1.657   4.337  16.761
 6093TIP3    H268748   1.647   4.404  16.626
 6094TIP3   OH268749   1.616   4.402  17.324
 6094TIP3    H168750   1.705   4.396  17.289
 6094TIP3    H268751   1.627   4.394  17.419
 6095TIP3   OH268752   1.632   4.450  17.603
 6095TIP3    H168753   1.544   4.488  17.593
 6095TIP3    H268754   1.691   4.524  17.590
 6096TIP3   OH268755   0.058   4.460  18.066
 6096TIP3    H168756   0.098   4.381  18.031
 6096TIP3    H268757   8.115   4.431  18.096
 6097TIP3   OH268758   0.176   4.096  17.297
 6097TIP3    H168759   0.192   4.027  17.232
 6097TIP3    H268760   0.234   4.167  17.270
 6098TIP3   OH268761   0.096   4.445  17.325
 6098TIP3    H168762   0.084   4.385  17.252
 6098TIP3    H268763   0.175   4.495  17.303
 6099TIP3   OH268764   0.015   4.052  16.731
 6099TIP3    H168765   8.097   4.025  16.663
 6099TIP3    H268766   0.050   4.135  16.700
 6100TIP3   OH268767   0.013   3.880  17.615
 6100TIP3    H168768   8.076   3.830  17.626
 6100TIP3    H268769   8.129   3.971  17.612
 6101TIP3   OH268770   0.989   5.533  17.884
 6101TIP3    H168771   1.002   5.469  17.954
 6101TIP3    H268772   1.077   5.557  17.856
 6102TIP3   OH268773   1.230   5.623  17.768
 6102TIP3    H168774   1.269   5.577  17.693
 6102TIP3    H268775   1.300   5.682  17.797
 6103TIP3   OH268776   0.874   5.678  17.434
 6103TIP3    H168777   0.912   5.637  17.356
 6103TIP3    H268778   0.949   5.712  17.482
 6104TIP3   OH268779   0.285   3.832  16.908
 6104TIP3    H168780   0.198   3.805  16.877
 6104TIP3    H268781   0.341   3.755  16.892
 6105TIP3   OH268782   0.199   3.873  16.615
 6105TIP3    H168783   0.242   3.942  16.564
 6105TIP3    H268784   0.134   3.919  16.668
 6106TIP3   OH268785   0.803   3.800  16.927
 6106TIP3    H168786   0.874   3.857  16.900
 6106TIP3    H268787   0.804   3.804  17.023
 6107TIP3   OH268788   0.306   4.093  16.484
 6107TIP3    H168789   0.301   4.091  16.388
 6107TIP3    H268790   0.398   4.109  16.503
 6108TIP3   OH268791   0.829   4.083  16.634
 6108TIP3    H168792   0.873   4.006  16.670
 6108TIP3    H268793   0.850   4.153  16.696
 6109TIP3   OH268794   0.247   3.951  17.989
 6109TIP3    H168795   0.181   3.885  17.970
 6109TIP3    H268796   0.329   3.902  17.997
 6110TIP3   OH268797   0.495   3.837  18.046
 6110TIP3    H168798   0.575   3.826  17.995
 6110TIP3    H268799   0.460   3.749  18.056
 6111TIP3   OH268800   2.252   4.650  17.390
 6111TIP3    H168801   2.324   4.679  17.446
 6111TIP3    H268802   2.292   4.634  17.305
 6112TIP3   OH268803   1.965   4.475  16.873
 6112TIP3    H168804   1.915   4.548  16.837
 6112TIP3    H268805   1.971   4.412  16.801
 6113TIP3   OH268806   2.044   4.650  17.069
 6113TIP3    H168807   2.021   4.575  17.013
 6113TIP3    H268808   2.045   4.725  17.010
 6114TIP3   OH268809   3.679   4.108  17.399
 6114TIP3    H168810   3.680   4.184  17.458
 6114TIP3    H268811   3.754   4.123  17.341
 6115TIP3   OH268812   3.103   4.410  17.322
 6115TIP3    H168813   3.121   4.318  17.337
 6115TIP3    H268814   3.110   4.421  17.227
 6116TIP3   OH268815   3.259   4.225  16.911
 6116TIP3    H168816   3.302   4.184  16.987
 6116TIP3    H268817   3.332   4.251  16.854
 6117TIP3   OH268818   3.661   4.301  17.595
 6117TIP3    H168819   3.609   4.381  17.591
 6117TIP3    H268820   3.719   4.314  17.670
 6118TIP3   OH268821   3.345   4.149  17.168
 6118TIP3    H168822   3.265   4.145  17.221
 6118TIP3    H268823   3.397   4.219  17.208
 6119TIP3   OH268824   3.413   5.223  17.309
 6119TIP3    H168825   3.329   5.213  17.354
 6119TIP3    H268826   3.395   5.202  17.218
 6120TIP3   OH268827   3.417   4.030  17.458
 6120TIP3    H168828   3.359   4.083  17.405
 6120TIP3    H268829   3.505   4.052  17.428
 6121TIP3   OH268830   2.746   3.848  17.211
 6121TIP3    H168831   2.736   3.768  17.161
 6121TIP3    H268832   2.668   3.900  17.189
 6122TIP3   OH268833   3.279   5.103  16.861
 6122TIP3    H168834   3.319   5.064  16.784
 6122TIP3    H268835   3.306   5.195  16.859
 6123TIP3   OH268836   3.540   4.967  17.689
 6123TIP3    H168837   3.518   4.915  17.612
 6123TIP3    H268838   3.519   5.057  17.664
 6124TIP3   OH268839   3.280   4.789  16.757
 6124TIP3    H168840   3.225   4.811  16.832
 6124TIP3    H268841   3.330   4.712  16.786
 6125TIP3   OH268842   3.186   5.193  17.454
 6125TIP3    H168843   3.157   5.230  17.537
 6125TIP3    H268844   3.158   5.102  17.457
 6126TIP3   OH268845   3.223   4.639  16.528
 6126TIP3    H168846   3.239   4.705  16.595
 6126TIP3    H268847   3.238   4.685  16.445
 6127TIP3   OH268848   3.611   5.296  16.379
 6127TIP3    H168849   3.658   5.379  16.382
 6127TIP3    H268850   3.677   5.232  16.353
 6128TIP3   OH268851   2.002   4.942  17.598
 6128TIP3    H168852   2.005   4.900  17.513
 6128TIP3    H268853   1.991   4.871  17.661
 6129TIP3   OH268854   3.730   5.241  17.848
 6129TIP3    H168855   3.680   5.169  17.808
 6129TIP3    H268856   3.664   5.296  17.890
 6130TIP3   OH268857   3.242   5.534  16.499
 6130TIP3    H168858   3.276   5.485  16.425
 6130TIP3    H268859   3.211   5.466  16.560
 6131TIP3   OH268860   3.435   4.404  17.957
 6131TIP3    H168861   3.392   4.471  17.903
 6131TIP3    H268862   3.446   4.329  17.898
 6132TIP3   OH268863   2.202   5.120  17.677
 6132TIP3    H168864   2.195   5.130  17.772
 6132TIP3    H268865   2.134   5.058  17.654
 6133TIP3   OH268866   3.219   4.293  17.707
 6133TIP3    H168867   3.158   4.250  17.768
 6133TIP3    H268868   3.166   4.313  17.630
 6134TIP3   OH268869   3.240   4.764  16.277
 6134TIP3    H168870   3.183   4.688  16.265
 6134TIP3    H268871   3.274   4.782  16.190
 6135TIP3   OH268872   3.017   4.483  16.781
 6135TIP3    H168873   2.984   4.553  16.726
 6135TIP3    H268874   3.085   4.440  16.728
 6136TIP3   OH268875   3.110   4.420  17.041
 6136TIP3    H168876   3.073   4.470  16.968
 6136TIP3    H268877   3.153   4.345  16.998
 6137TIP3   OH268878   1.852   4.178  16.950
 6137TIP3    H168879   1.915   4.177  17.022
 6137TIP3    H268880   1.904   4.200  16.873
 6138TIP3   OH268881   1.977   4.280  16.670
 6138TIP3    H168882   2.063   4.284  16.629
 6138TIP3    H268883   1.922   4.233  16.607
 6139TIP3   OH268884   2.721   4.195  17.021
 6139TIP3    H168885   2.631   4.172  17.047
 6139TIP3    H268886   2.756   4.243  17.096
 6140TIP3   OH268887   2.604   4.320  16.589
 6140TIP3    H168888   2.666   4.317  16.663
 6140TIP3    H268889   2.623   4.403  16.545
 6141TIP3   OH268890   3.135   4.134  17.348
 6141TIP3    H168891   3.100   4.115  17.436
 6141TIP3    H268892   3.085   4.078  17.289
 6142TIP3   OH268893   3.531   5.665  17.976
 6142TIP3    H168894   3.525   5.686  17.882
 6142TIP3    H268895   3.509   5.746  18.020
 6143TIP3   OH268896   2.850   4.381  17.191
 6143TIP3    H168897   2.911   4.411  17.123
 6143TIP3    H268898   2.900   4.383  17.272
 6144TIP3   OH268899   2.425   3.947  16.828
 6144TIP3    H168900   2.334   3.929  16.851
 6144TIP3    H268901   2.419   4.003  16.751
 6145TIP3   OH268902   3.476   4.844  17.450
 6145TIP3    H168903   3.536   4.901  17.402
 6145TIP3    H268904   3.404   4.828  17.389
 6146TIP3   OH268905   3.110   4.146  16.503
 6146TIP3    H168906   3.056   4.156  16.425
 6146TIP3    H268907   3.145   4.234  16.520
 6147TIP3   OH268908   3.215   4.382  16.610
 6147TIP3    H168909   3.304   4.367  16.640
 6147TIP3    H268910   3.217   4.468  16.567
 6148TIP3   OH268911   1.991   4.724  17.768
 6148TIP3    H168912   2.042   4.679  17.835
 6148TIP3    H268913   1.952   4.654  17.716
 6149TIP3   OH268914   3.104   5.257  17.710
 6149TIP3    H168915   3.028   5.200  17.712
 6149TIP3    H268916   3.135   5.261  17.801
 6150TIP3   OH268917   3.692   4.408  16.565
 6150TIP3    H168918   3.723   4.353  16.493
 6150TIP3    H268919   3.683   4.495  16.526
 6151TIP3   OH268920   3.486   5.267  16.624
 6151TIP3    H168921   3.458   5.175  16.626
 6151TIP3    H268922   3.528   5.277  16.539
 6152TIP3   OH268923   3.264   4.806  17.265
 6152TIP3    H168924   3.226   4.857  17.194
 6152TIP3    H268925   3.288   4.722  17.225
 6153TIP3   OH268926   2.114   4.763  16.471
 6153TIP3    H168927   2.093   4.857  16.470
 6153TIP3    H268928   2.028   4.720  16.465
 6154TIP3   OH268929   3.130   4.922  17.481
 6154TIP3    H168930   3.150   4.856  17.548
 6154TIP3    H268931   3.173   4.888  17.402
 6155TIP3   OH268932   3.229   5.019  16.411
 6155TIP3    H168933   3.295   5.016  16.481
 6155TIP3    H268934   3.242   4.937  16.363
 6156TIP3   OH268935   3.761   5.526  16.406
 6156TIP3    H168936   3.816   5.568  16.340
 6156TIP3    H268937   3.703   5.596  16.437
 6157TIP3   OH268938   3.409   4.991  16.629
 6157TIP3    H168939   3.361   4.917  16.667
 6157TIP3    H268940   3.498   4.958  16.616
 6158TIP3   OH268941   2.121   5.345  17.541
 6158TIP3    H168942   2.155   5.263  17.577
 6158TIP3    H268943   2.149   5.412  17.603
 6159TIP3   OH268944   3.015   4.074  17.597
 6159TIP3    H168945   3.035   4.091  17.689
 6159TIP3    H268946   3.004   3.979  17.592
 6160TIP3   OH268947   3.080   4.063  16.761
 6160TIP3    H168948   3.087   4.097  16.672
 6160TIP3    H268949   3.137   4.119  16.813
 6161TIP3   OH268950   2.795   4.312  16.780
 6161TIP3    H168951   2.874   4.365  16.791
 6161TIP3    H268952   2.775   4.279  16.868
 6162TIP3   OH268953   2.882   4.318  17.635
 6162TIP3    H168954   2.862   4.306  17.728
 6162TIP3    H268955   2.914   4.232  17.606
 6163TIP3   OH268956   2.823   4.007  16.849
 6163TIP3    H168957   2.793   4.073  16.911
 6163TIP3    H268958   2.914   4.032  16.829
 6164TIP3   OH268959   2.450   4.091  16.587
 6164TIP3    H168960   2.472   4.184  16.587
 6164TIP3    H268961   2.534   4.046  16.582
 6165TIP3   OH268962   3.468   4.201  17.771
 6165TIP3    H168963   3.379   4.220  17.741
 6165TIP3    H268964   3.523   4.217  17.695
 6166TIP3   OH268965   3.338   4.561  17.142
 6166TIP3    H168966   3.254   4.528  17.109
 6166TIP3    H268967   3.367   4.493  17.204
 6167TIP3   OH268968   3.450   5.503  17.287
 6167TIP3    H168969   3.452   5.503  17.192
 6167TIP3    H268970   3.440   5.410  17.311
 6168TIP3   OH268971   2.160   3.934  17.172
 6168TIP3    H168972   2.162   3.916  17.078
 6168TIP3    H268973   2.163   3.847  17.212
 6169TIP3   OH268974   3.167   5.229  17.978
 6169TIP3    H168975   3.181   5.141  18.012
 6169TIP3    H268976   3.212   5.287  18.040
 6170TIP3   OH268977   3.341   5.352  16.310
 6170TIP3    H168978   3.303   5.264  16.305
 6170TIP3    H268979   3.435   5.336  16.323
 6171TIP3   OH268980   2.031   4.907  17.980
 6171TIP3    H168981   2.075   4.829  18.015
 6171TIP3    H268982   1.987   4.876  17.900
 6172TIP3   OH268983   2.151   4.646  17.986
 6172TIP3    H168984   2.244   4.629  17.973
 6172TIP3    H268985   2.135   4.622  18.077
 6173TIP3   OH268986   3.148   4.444  18.056
 6173TIP3    H168987   3.126   4.384  18.127
 6173TIP3    H268988   3.243   4.442  18.051
 6174TIP3   OH268989   3.330   4.739  17.928
 6174TIP3    H168990   3.291   4.756  17.842
 6174TIP3    H268991   3.422   4.764  17.918
 6175TIP3   OH268992   2.611   3.817  17.644
 6175TIP3    H168993   2.645   3.896  17.600
 6175TIP3    H268994   2.534   3.793  17.594
 6176TIP3   OH268995   2.804   4.297  17.912
 6176TIP3    H168996   2.807   4.348  17.993
 6176TIP3    H268997   2.712   4.297  17.887
 6177TIP3   OH268998   3.039   4.148  17.861
 6177TIP3    H168999   2.962   4.194  17.895
 6177TIP3    H269000   3.084   4.116  17.939
 6178TIP3   OH269001   3.167   4.072  18.093
 6178TIP3    H169002   3.262   4.067  18.103
 6178TIP3    H269003   3.138   4.134  18.160
 6179TIP3   OH269004   2.124   4.154  18.009
 6179TIP3    H169005   2.140   4.083  17.946
 6179TIP3    H269006   2.174   4.128  18.087
 6180TIP3   OH269007   2.617   3.802  17.925
 6180TIP3    H169008   2.706   3.770  17.936
 6180TIP3    H269009   2.606   3.812  17.830
 6181TIP3   OH269010   3.772   5.562  17.326
 6181TIP3    H169011   3.818   5.545  17.409
 6181TIP3    H269012   3.841   5.559  17.260
 6182TIP3   OH269013   3.564   5.048  18.181
 6182TIP3    H169014   3.473   5.074  18.164
 6182TIP3    H269015   3.611   5.130  18.192
 6183TIP3   OH269016   3.662   4.882  16.620
 6183TIP3    H169017   3.724   4.954  16.612
 6183TIP3    H269018   3.694   4.831  16.694
 6184TIP3   OH269019   3.631   5.037  17.329
 6184TIP3    H169020   3.715   5.078  17.306
 6184TIP3    H269021   3.567   5.107  17.320
 6185TIP3   OH269022   3.472   5.219  17.593
 6185TIP3    H169023   3.397   5.274  17.617
 6185TIP3    H269024   3.472   5.217  17.498
 6186TIP3   OH269025   3.681   4.654  16.442
 6186TIP3    H169026   3.688   4.675  16.349
 6186TIP3    H269027   3.663   4.738  16.484
 6187TIP3   OH269028   3.404   4.571  16.861
 6187TIP3    H169029   3.430   4.485  16.827
 6187TIP3    H269030   3.406   4.560  16.956
 6188TIP3   OH269031   1.981   4.683  17.339
 6188TIP3    H169032   1.987   4.689  17.243
 6188TIP3    H269033   2.072   4.670  17.367
 6189TIP3   OH269034   3.596   4.789  17.896
 6189TIP3    H169035   3.640   4.711  17.866
 6189TIP3    H269036   3.595   4.848  17.821
 6190TIP3   OH269037   3.687   4.527  17.896
 6190TIP3    H169038   3.609   4.487  17.935
 6190TIP3    H269039   3.746   4.454  17.878
 6191TIP3   OH269040   3.550   4.133  16.234
 6191TIP3    H169041   3.573   4.216  16.191
 6191TIP3    H269042   3.500   4.084  16.168
 6192TIP3   OH269043   3.472   4.328  16.728
 6192TIP3    H169044   3.488   4.233  16.729
 6192TIP3    H269045   3.541   4.363  16.671
 6193TIP3   OH269046   3.445   4.367  17.318
 6193TIP3    H169047   3.530   4.409  17.305
 6193TIP3    H269048   3.424   4.382  17.410
 6194TIP3   OH269049   3.474   4.510  17.587
 6194TIP3    H169050   3.394   4.561  17.596
 6194TIP3    H269051   3.544   4.574  17.594
 6195TIP3   OH269052   1.917   4.291  17.891
 6195TIP3    H169053   2.000   4.267  17.932
 6195TIP3    H269054   1.869   4.209  17.881
 6196TIP3   OH269055   3.715   3.850  18.069
 6196TIP3    H169056   3.784   3.788  18.045
 6196TIP3    H269057   3.712   3.912  17.996
 6197TIP3   OH269058   3.503   4.055  16.744
 6197TIP3    H169059   3.536   4.011  16.822
 6197TIP3    H269060   3.435   3.997  16.710
 6198TIP3   OH269061   2.034   4.179  17.170
 6198TIP3    H169062   2.078   4.095  17.169
 6198TIP3    H269063   1.990   4.183  17.254
 6199TIP3   OH269064   1.884   4.413  17.262
 6199TIP3    H169065   1.926   4.376  17.184
 6199TIP3    H269066   1.924   4.500  17.271
 6200TIP3   OH269067   3.657   4.030  17.870
 6200TIP3    H169068   3.581   4.086  17.852
 6200TIP3    H269069   3.651   3.961  17.804
 6201TIP3   OH269070   3.477   5.513  17.013
 6201TIP3    H169071   3.494   5.501  16.919
 6201TIP3    H269072   3.504   5.603  17.031
 6202TIP3   OH269073   2.163   5.144  17.955
 6202TIP3    H169074   2.125   5.205  18.019
 6202TIP3    H269075   2.117   5.062  17.969
 6203TIP3   OH269076   3.605   3.810  17.707
 6203TIP3    H169077   3.526   3.807  17.654
 6203TIP3    H269078   3.650   3.728  17.689
 6204TIP3   OH269079   2.209   5.568  17.679
 6204TIP3    H169080   2.196   5.615  17.597
 6204TIP3    H269081   2.190   5.632  17.748
 6205TIP3   OH269082   2.200   5.565  17.393
 6205TIP3    H169083   2.161   5.482  17.420
 6205TIP3    H269084   2.174   5.575  17.301
 6206TIP3   OH269085   2.998   3.969  17.179
 6206TIP3    H169086   2.912   3.929  17.192
 6206TIP3    H269087   3.030   3.931  17.097
 6207TIP3   OH269088   3.427   3.877  17.123
 6207TIP3    H169089   3.508   3.900  17.077
 6207TIP3    H269090   3.387   3.961  17.145
 6208TIP3   OH269091   3.635   3.949  16.963
 6208TIP3    H169092   3.698   3.880  16.944
 6208TIP3    H269093   3.688   4.026  16.981
 6209TIP3   OH269094   2.167   3.857  16.908
 6209TIP3    H169095   2.080   3.840  16.872
 6209TIP3    H269096   2.211   3.772  16.906
 6210TIP3   OH269097   2.653   3.793  16.869
 6210TIP3    H169098   2.716   3.865  16.867
 6210TIP3    H269099   2.569   3.836  16.854
 6211TIP3   OH269100   3.114   3.802  16.957
 6211TIP3    H169101   3.201   3.764  16.961
 6211TIP3    H269102   3.059   3.742  17.008
 6212TIP3   OH269103   3.302   3.897  16.616
 6212TIP3    H169104   3.288   3.947  16.536
 6212TIP3    H269105   3.318   3.808  16.586
 6213TIP3   OH269106   2.314   3.935  16.400
 6213TIP3    H169107   2.275   4.001  16.343
 6213TIP3    H269108   2.353   3.986  16.472
 6214TIP3   OH269109   2.720   4.028  16.590
 6214TIP3    H169110   2.754   4.016  16.679
 6214TIP3    H269111   2.734   4.120  16.571
 6215TIP3   OH269112   3.559   5.509  16.743
 6215TIP3    H169113   3.531   5.426  16.704
 6215TIP3    H269114   3.560   5.571  16.671
 6216TIP3   OH269115   2.178   3.909  17.870
 6216TIP3    H169116   2.133   3.833  17.908
 6216TIP3    H269117   2.263   3.912  17.914
 6217TIP3   OH269118   2.383   3.869  18.057
 6217TIP3    H169119   2.465   3.845  18.012
 6217TIP3    H269120   2.361   3.792  18.108
 6218TIP3   OH269121   3.515   5.391  17.946
 6218TIP3    H169122   3.436   5.390  17.892
 6218TIP3    H269123   3.531   5.483  17.965
 6219TIP3   OH269124   3.824   4.450  16.812
 6219TIP3    H169125   3.751   4.499  16.851
 6219TIP3    H269126   3.796   4.434  16.722
 6220TIP3   OH269127   5.578   4.049  17.397
 6220TIP3    H169128   5.608   4.112  17.463
 6220TIP3    H269129   5.629   4.069  17.319
 6221TIP3   OH269130   4.979   4.424  17.386
 6221TIP3    H169131   4.966   4.349  17.328
 6221TIP3    H269132   5.038   4.481  17.337
 6222TIP3   OH269133   5.655   4.243  17.590
 6222TIP3    H169134   5.659   4.313  17.525
 6222TIP3    H269135   5.571   4.257  17.634
 6223TIP3   OH269136   4.151   4.249  17.183
 6223TIP3    H169137   4.242   4.243  17.157
 6223TIP3    H269138   4.105   4.281  17.105
 6224TIP3   OH269139   4.315   5.112  17.560
 6224TIP3    H169140   4.308   5.099  17.465
 6224TIP3    H269141   4.226   5.129  17.589
 6225TIP3   OH269142   3.833   5.095  16.597
 6225TIP3    H169143   3.841   5.108  16.502
 6225TIP3    H269144   3.856   5.180  16.634
 6226TIP3   OH269145   4.553   5.196  17.184
 6226TIP3    H169146   4.501   5.243  17.120
 6226TIP3    H269147   4.629   5.164  17.135
 6227TIP3   OH269148   4.465   5.144  17.783
 6227TIP3    H169149   4.384   5.158  17.832
 6227TIP3    H269150   4.435   5.131  17.692
 6228TIP3   OH269151   5.409   3.836  16.530
 6228TIP3    H169152   5.355   3.787  16.469
 6228TIP3    H269153   5.468   3.887  16.475
 6229TIP3   OH269154   3.851   5.194  17.252
 6229TIP3    H169155   3.928   5.192  17.196
 6229TIP3    H269156   3.818   5.283  17.246
 6230TIP3   OH269157   5.666   5.215  17.805
 6230TIP3    H169158   5.626   5.129  17.816
 6230TIP3    H269159   5.646   5.239  17.715
 6231TIP3   OH269160   4.736   5.202  17.809
 6231TIP3    H169161   4.764   5.283  17.767
 6231TIP3    H269162   4.644   5.192  17.785
 6232TIP3   OH269163   5.027   5.555  16.727
 6232TIP3    H169164   4.933   5.574  16.725
 6232TIP3    H269165   5.041   5.491  16.658
 6233TIP3   OH269166   4.067   5.170  17.660
 6233TIP3    H169167   4.053   5.184  17.753
 6233TIP3    H269168   3.981   5.182  17.620
 6234TIP3   OH269169   4.282   3.968  17.343
 6234TIP3    H169170   4.199   3.934  17.308
 6234TIP3    H269171   4.300   4.046  17.290
 6235TIP3   OH269172   5.113   4.280  17.680
 6235TIP3    H169173   5.025   4.297  17.715
 6235TIP3    H269174   5.112   4.321  17.594
 6236TIP3   OH269175   3.796   4.163  17.016
 6236TIP3    H169176   3.835   4.149  17.103
 6236TIP3    H269177   3.855   4.224  16.972
 6237TIP3   OH269178   4.797   4.536  17.572
 6237TIP3    H169179   4.854   4.511  17.500
 6237TIP3    H269180   4.810   4.469  17.639
 6238TIP3   OH269181   4.030   4.340  16.957
 6238TIP3    H169182   3.974   4.386  16.895
 6238TIP3    H269183   4.067   4.268  16.906
 6239TIP3   OH269184   5.373   5.701  17.988
 6239TIP3    H169185   5.388   5.748  17.906
 6239TIP3    H269186   5.453   5.714  18.038
 6240TIP3   OH269187   4.121   4.103  16.850
 6240TIP3    H169188   4.099   4.016  16.883
 6240TIP3    H269189   4.156   4.087  16.762
 6241TIP3   OH269190   5.558   4.402  16.500
 6241TIP3    H169191   5.528   4.395  16.409
 6241TIP3    H269192   5.582   4.494  16.511
 6242TIP3   OH269193   5.554   4.965  17.813
 6242TIP3    H169194   5.484   4.932  17.870
 6242TIP3    H269195   5.562   4.899  17.745
 6243TIP3   OH269196   5.658   5.584  16.409
 6243TIP3    H169197   5.699   5.656  16.457
 6243TIP3    H269198   5.580   5.624  16.369
 6244TIP3   OH269199   3.985   4.106  17.735
 6244TIP3    H169200   3.936   4.069  17.662
 6244TIP3    H269201   4.012   4.031  17.787
 6245TIP3   OH269202   4.594   5.145  16.209
 6245TIP3    H169203   4.685   5.116  16.204
 6245TIP3    H269204   4.568   5.126  16.299
 6246TIP3   OH269205   4.831   4.307  17.746
 6246TIP3    H169206   4.768   4.306  17.818
 6246TIP3    H269207   4.809   4.229  17.694
 6247TIP3   OH269208   5.396   4.234  17.705
 6247TIP3    H169209   5.303   4.253  17.704
 6247TIP3    H269210   5.403   4.142  17.678
 6248TIP3   OH269211   4.049   3.873  17.215
 6248TIP3    H169212   4.055   3.868  17.120
 6248TIP3    H269213   4.013   3.788  17.242
 6249TIP3   OH269214   3.930   4.871  18.079
 6249TIP3    H169215   3.991   4.813  18.035
 6249TIP3    H269216   3.844   4.831  18.067
 6250TIP3   OH269217   4.581   4.904  17.894
 6250TIP3    H169218   4.558   4.996  17.879
 6250TIP3    H269219   4.587   4.866  17.807
 6251TIP3   OH269220   4.641   4.302  17.963
 6251TIP3    H169221   4.634   4.366  18.034
 6251TIP3    H269222   4.558   4.254  17.966
 6252TIP3   OH269223   3.844   5.141  16.323
 6252TIP3    H169224   3.913   5.197  16.288
 6252TIP3    H269225   3.829   5.075  16.255
 6253TIP3   OH269226   3.805   5.590  16.844
 6253TIP3    H169227   3.716   5.558  16.826
 6253TIP3    H269228   3.860   5.546  16.778
 6254TIP3   OH269229   5.606   5.514  17.390
 6254TIP3    H169230   5.613   5.592  17.445
 6254TIP3    H269231   5.658   5.535  17.312
 6255TIP3   OH269232   5.581   4.903  16.628
 6255TIP3    H169233   5.654   4.965  16.633
 6255TIP3    H269234   5.506   4.956  16.601
 6256TIP3   OH269235   5.629   4.666  16.501
 6256TIP3    H169236   5.597   4.695  16.415
 6256TIP3    H269237   5.616   4.742  16.558
 6257TIP3   OH269238   5.607   4.537  17.989
 6257TIP3    H169239   5.555   4.558  17.911
 6257TIP3    H269240   5.643   4.450  17.971
 6258TIP3   OH269241   5.362   4.222  16.617
 6258TIP3    H169242   5.406   4.153  16.667
 6258TIP3    H269243   5.433   4.282  16.592
 6259TIP3   OH269244   5.391   4.383  17.330
 6259TIP3    H169245   5.485   4.385  17.351
 6259TIP3    H269246   5.383   4.316  17.262
 6260TIP3   OH269247   3.800   4.276  17.842
 6260TIP3    H169248   3.883   4.243  17.807
 6260TIP3    H269249   3.752   4.198  17.868
 6261TIP3   OH269250   5.652   3.884  18.123
 6261TIP3    H169251   5.672   3.792  18.104
 6261TIP3    H269252   5.652   3.927  18.038
 6262TIP3   OH269253   5.483   3.999  16.743
 6262TIP3    H169254   5.512   3.939  16.811
 6262TIP3    H269255   5.446   3.943  16.675
 6263TIP3   OH269256   3.922   4.118  17.260
 6263TIP3    H169257   3.954   4.028  17.254
 6263TIP3    H269258   4.000   4.172  17.251
 6264TIP3   OH269259   5.586   4.059  17.907
 6264TIP3    H169260   5.504   4.090  17.945
 6264TIP3    H269261   5.563   4.034  17.818
 6265TIP3   OH269262   5.580   3.984  16.376
 6265TIP3    H169263   5.598   3.978  16.282
 6265TIP3    H269264   5.638   4.054  16.407
 6266TIP3   OH269265   3.763   4.042  16.626
 6266TIP3    H169266   3.675   4.050  16.663
 6266TIP3    H269267   3.797   4.131  16.626
 6267TIP3   OH269268   3.821   3.940  17.571
 6267TIP3    H169269   3.748   3.895  17.615
 6267TIP3    H269270   3.780   3.987  17.499
 6268TIP3   OH269271   3.994   5.221  17.918
 6268TIP3    H169272   3.904   5.237  17.892
 6268TIP3    H269273   3.990   5.204  18.012
 6269TIP3   OH269274   4.942   5.524  17.817
 6269TIP3    H169275   4.981   5.539  17.731
 6269TIP3    H269276   4.992   5.580  17.876
 6270TIP3   OH269277   5.061   5.556  17.569
 6270TIP3    H169278   5.046   5.598  17.485
 6270TIP3    H269279   5.156   5.547  17.575
 6271TIP3   OH269280   4.055   3.836  16.936
 6271TIP3    H169281   3.965   3.815  16.911
 6271TIP3    H269282   4.106   3.758  16.913
 6272TIP3   OH269283   3.895   3.839  16.491
 6272TIP3    H169284   3.892   3.864  16.398
 6272TIP3    H269285   3.854   3.913  16.536
 6273TIP3   OH269286   3.925   5.466  16.624
 6273TIP3    H169287   3.863   5.468  16.550
 6273TIP3    H269288   3.976   5.547  16.614
 6274TIP3   OH269289   5.512   5.530  16.691
 6274TIP3    H169290   5.510   5.456  16.631
 6274TIP3    H269291   5.483   5.605  16.639
 6275TIP3   OH269292   4.055   3.878  17.872
 6275TIP3    H169293   3.998   3.811  17.908
 6275TIP3    H269294   4.126   3.887  17.936
 6276TIP3   OH269295   4.243   3.867  18.079
 6276TIP3    H169296   4.327   3.827  18.055
 6276TIP3    H269297   4.194   3.797  18.121
 6277TIP3   OH269298   6.854   4.820  16.936
 6277TIP3    H169299   6.805   4.882  16.882
 6277TIP3    H269300   6.862   4.742  16.883
 6278TIP3   OH269301   6.790   4.664  17.282
 6278TIP3    H169302   6.716   4.708  17.240
 6278TIP3    H269303   6.822   4.603  17.216
 6279TIP3   OH269304   6.008   4.697  17.497
 6279TIP3    H169305   5.969   4.616  17.465
 6279TIP3    H269306   6.082   4.713  17.438
 6280TIP3   OH269307   6.073   5.135  17.298
 6280TIP3    H169308   6.031   5.057  17.263
 6280TIP3    H269309   6.164   5.129  17.269
 6281TIP3   OH269310   5.756   4.508  16.781
 6281TIP3    H169311   5.714   4.576  16.833
 6281TIP3    H269312   5.695   4.494  16.707
 6282TIP3   OH269313   7.438   4.089  17.353
 6282TIP3    H169314   7.482   4.157  17.404
 6282TIP3    H269315   7.474   4.098  17.265
 6283TIP3   OH269316   5.847   4.417  17.158
 6283TIP3    H169317   5.921   4.372  17.198
 6283TIP3    H269318   5.850   4.391  17.066
 6284TIP3   OH269319   6.331   4.600  17.079
 6284TIP3    H169320   6.420   4.587  17.045
 6284TIP3    H269321   6.280   4.529  17.040
 6285TIP3   OH269322   7.408   4.293  17.613
 6285TIP3    H169323   7.332   4.347  17.589
 6285TIP3    H269324   7.373   4.204  17.614
 6286TIP3   OH269325   6.122   4.085  17.470
 6286TIP3    H169326   6.092   4.120  17.386
 6286TIP3    H269327   6.051   4.104  17.531
 6287TIP3   OH269328   6.373   4.879  17.466
 6287TIP3    H169329   6.308   4.938  17.505
 6287TIP3    H269330   6.433   4.937  17.421
 6288TIP3   OH269331   6.059   4.249  17.234
 6288TIP3    H169332   6.113   4.303  17.292
 6288TIP3    H269333   6.107   4.248  17.151
 6289TIP3   OH269334   6.197   5.067  17.573
 6289TIP3    H169335   6.167   5.123  17.501
 6289TIP3    H269336   6.117   5.047  17.622
 6290TIP3   OH269337   5.794   5.085  16.614
 6290TIP3    H169338   5.787   5.133  16.531
 6290TIP3    H269339   5.819   5.152  16.678
 6291TIP3   OH269340   7.244   4.071  17.548
 6291TIP3    H169341   7.164   4.118  17.523
 6291TIP3    H269342   7.293   4.063  17.466
 6292TIP3   OH269343   6.795   4.723  16.670
 6292TIP3    H169344   6.714   4.773  16.660
 6292TIP3    H269345   6.854   4.760  16.604
 6293TIP3   OH269346   7.522   4.713  17.554
 6293TIP3    H169347   7.477   4.798  17.549
 6293TIP3    H269348   7.568   4.705  17.470
 6294TIP3   OH269349   6.193   4.817  16.966
 6294TIP3    H169350   6.152   4.785  16.886
 6294TIP3    H269351   6.242   4.742  17.000
 6295TIP3   OH269352   6.323   5.137  17.197
 6295TIP3    H169353   6.311   5.153  17.103
 6295TIP3    H269354   6.414   5.110  17.206
 6296TIP3   OH269355   6.242   4.670  17.338
 6296TIP3    H169356   6.273   4.660  17.248
 6296TIP3    H269357   6.292   4.744  17.373
 6297TIP3   OH269358   6.324   5.120  17.816
 6297TIP3    H169359   6.271   5.196  17.839
 6297TIP3    H269360   6.299   5.098  17.726
 6298TIP3   OH269361   5.994   4.690  17.771
 6298TIP3    H169362   5.997   4.779  17.805
 6298TIP3    H269363   5.993   4.701  17.676
 6299TIP3   OH269364   6.147   5.331  17.862
 6299TIP3    H169365   6.158   5.357  17.770
 6299TIP3    H269366   6.052   5.325  17.874
 6300TIP3   OH269367   6.068   4.724  16.738
 6300TIP3    H169368   6.061   4.788  16.668
 6300TIP3    H269369   6.003   4.657  16.716
 6301TIP3   OH269370   5.688   5.259  17.307
 6301TIP3    H169371   5.773   5.257  17.351
 6301TIP3    H269372   5.644   5.335  17.344
 6302TIP3   OH269373   6.784   5.678  16.697
 6302TIP3    H169374   6.754   5.624  16.624
 6302TIP3    H269375   6.706   5.727  16.725
 6303TIP3   OH269376   6.041   5.477  16.911
 6303TIP3    H169377   6.055   5.442  16.999
 6303TIP3    H269378   5.988   5.411  16.867
 6304TIP3   OH269379   5.971   5.027  17.727
 6304TIP3    H169380   5.974   4.996  17.818
 6304TIP3    H269381   5.878   5.046  17.711
 6305TIP3   OH269382   6.198   4.410  17.408
 6305TIP3    H169383   6.133   4.417  17.478
 6305TIP3    H269384   6.218   4.500  17.384
 6306TIP3   OH269385   6.187   4.411  16.937
 6306TIP3    H169386   6.096   4.385  16.925
 6306TIP3    H269387   6.220   4.424  16.848
 6307TIP3   OH269388   6.811   4.485  16.803
 6307TIP3    H169389   6.788   4.564  16.753
 6307TIP3    H269390   6.875   4.440  16.747
 6308TIP3   OH269391   6.672   4.459  17.926
 6308TIP3    H169392   6.596   4.517  17.915
 6308TIP3    H269393   6.714   4.490  18.006
 6309TIP3   OH269394   6.852   4.502  17.073
 6309TIP3    H169395   6.821   4.491  16.983
 6309TIP3    H269396   6.947   4.497  17.066
 6310TIP3   OH269397   6.007   4.414  17.604
 6310TIP3    H169398   5.967   4.466  17.673
 6310TIP3    H269399   5.977   4.325  17.620
 6311TIP3   OH269400   5.626   4.172  16.982
 6311TIP3    H169401   5.684   4.155  17.056
 6311TIP3    H269402   5.676   4.146  16.905
 6312TIP3   OH269403   5.739   4.198  16.464
 6312TIP3    H169404   5.774   4.211  16.376
 6312TIP3    H269405   5.683   4.274  16.478
 6313TIP3   OH269406   6.721   4.609  17.545
 6313TIP3    H169407   6.755   4.625  17.458
 6313TIP3    H269408   6.721   4.514  17.554
 6314TIP3   OH269409   5.923   4.326  16.893
 6314TIP3    H169410   5.870   4.393  16.851
 6314TIP3    H269411   5.898   4.245  16.850
 6315TIP3   OH269412   6.244   4.401  16.338
 6315TIP3    H169413   6.229   4.403  16.244
 6315TIP3    H269414   6.291   4.483  16.357
 6316TIP3   OH269415   5.982   4.905  17.975
 6316TIP3    H169416   6.054   4.918  18.037
 6316TIP3    H269417   5.933   4.831  18.011
 6317TIP3   OH269418   6.564   4.868  16.664
 6317TIP3    H169419   6.500   4.842  16.598
 6317TIP3    H269420   6.512   4.911  16.733
 6318TIP3   OH269421   7.020   4.420  16.614
 6318TIP3    H169422   7.039   4.513  16.599
 6318TIP3    H269423   6.972   4.393  16.535
 6319TIP3   OH269424   6.016   4.895  17.167
 6319TIP3    H169425   6.083   4.883  17.100
 6319TIP3    H269426   5.954   4.824  17.152
 6320TIP3   OH269427   6.457   4.637  17.914
 6320TIP3    H169428   6.370   4.601  17.898
 6320TIP3    H269429   6.485   4.672  17.829
 6321TIP3   OH269430   6.284   5.219  16.934
 6321TIP3    H169431   6.310   5.305  16.901
 6321TIP3    H269432   6.201   5.200  16.890
 6322TIP3   OH269433   5.845   4.753  16.345
 6322TIP3    H169434   5.908   4.800  16.399
 6322TIP3    H269435   5.794   4.701  16.406
 6323TIP3   OH269436   6.404   4.973  16.864
 6323TIP3    H169437   6.383   5.064  16.887
 6323TIP3    H269438   6.331   4.923  16.899
 6324TIP3   OH269439   6.471   5.374  17.529
 6324TIP3    H169440   6.538   5.434  17.496
 6324TIP3    H269441   6.519   5.311  17.582
 6325TIP3   OH269442   6.310   5.478  16.836
 6325TIP3    H169443   6.219   5.501  16.854
 6325TIP3    H269444   6.360   5.553  16.868
 6326TIP3   OH269445   7.104   5.544  17.649
 6326TIP3    H169446   7.040   5.550  17.578
 6326TIP3    H269447   7.183   5.587  17.614
 6327TIP3   OH269448   5.914   4.155  17.651
 6327TIP3    H169449   5.821   4.172  17.635
 6327TIP3    H269450   5.914   4.091  17.722
 6328TIP3   OH269451   5.905   5.387  17.491
 6328TIP3    H169452   5.992   5.352  17.512
 6328TIP3    H269453   5.901   5.471  17.538
 6329TIP3   OH269454   6.328   5.148  16.461
 6329TIP3    H169455   6.392   5.097  16.511
 6329TIP3    H269456   6.335   5.237  16.497
 6330TIP3   OH269457   5.989   4.903  16.532
 6330TIP3    H169458   5.922   4.956  16.574
 6330TIP3    H269459   6.031   4.962  16.469
 6331TIP3   OH269460   6.628   5.296  16.565
 6331TIP3    H169461   6.537   5.327  16.569
 6331TIP3    H269462   6.677   5.371  16.532
 6332TIP3   OH269463   6.658   4.349  17.665
 6332TIP3    H169464   6.663   4.388  17.752
 6332TIP3    H269465   6.565   4.341  17.647
 6333TIP3   OH269466   6.370   5.398  16.575
 6333TIP3    H169467   6.368   5.478  16.522
 6333TIP3    H269468   6.347   5.427  16.663
 6334TIP3   OH269469   6.218   4.140  16.398
 6334TIP3    H169470   6.225   4.233  16.378
 6334TIP3    H269471   6.180   4.137  16.486
 6335TIP3   OH269472   6.076   5.092  16.348
 6335TIP3    H169473   6.160   5.116  16.388
 6335TIP3    H269474   6.085   5.117  16.256
 6336TIP3   OH269475   5.848   3.854  17.193
 6336TIP3    H169476   5.810   3.815  17.114
 6336TIP3    H269477   5.866   3.779  17.250
 6337TIP3   OH269478   5.854   5.295  16.804
 6337TIP3    H169479   5.795   5.320  16.875
 6337TIP3    H269480   5.836   5.357  16.734
 6338TIP3   OH269481   5.847   5.565  18.026
 6338TIP3    H169482   5.908   5.568  18.100
 6338TIP3    H269483   5.851   5.475  17.995
 6339TIP3   OH269484   6.211   5.341  18.134
 6339TIP3    H169485   6.300   5.307  18.132
 6339TIP3    H269486   6.185   5.346  18.042
 6340TIP3   OH269487   7.197   5.305  16.220
 6340TIP3    H169488   7.126   5.265  16.168
 6340TIP3    H269489   7.274   5.299  16.164
 6341TIP3   OH269490   6.408   4.933  17.990
 6341TIP3    H169491   6.386   4.992  17.918
 6341TIP3    H269492   6.439   4.853  17.947
 6342TIP3   OH269493   6.738   5.150  16.193
 6342TIP3    H169494   6.741   5.245  16.202
 6342TIP3    H269495   6.648   5.127  16.217
 6343TIP3   OH269496   5.861   4.654  18.027
 6343TIP3    H169497   5.896   4.639  17.940
 6343TIP3    H269498   5.768   4.629  18.021
 6344TIP3   OH269499   6.389   4.788  16.466
 6344TIP3    H169500   6.308   4.801  16.416
 6344TIP3    H269501   6.452   4.755  16.401
 6345TIP3   OH269502   6.222   4.541  17.812
 6345TIP3    H169503   6.143   4.594  17.801
 6345TIP3    H269504   6.248   4.518  17.723
 6346TIP3   OH269505   6.363   4.231  17.541
 6346TIP3    H169506   6.325   4.300  17.487
 6346TIP3    H269507   6.303   4.156  17.529
 6347TIP3   OH269508   6.493   4.712  17.658
 6347TIP3    H169509   6.574   4.684  17.616
 6347TIP3    H269510   6.450   4.767  17.592
 6348TIP3   OH269511   6.166   4.408  18.050
 6348TIP3    H169512   6.098   4.343  18.031
 6348TIP3    H269513   6.185   4.448  17.965
 6349TIP3   OH269514   5.978   4.207  18.012
 6349TIP3    H169515   5.971   4.134  17.951
 6349TIP3    H269516   5.990   4.166  18.098
 6350TIP3   OH269517   6.391   5.624  16.413
 6350TIP3    H169518   6.476   5.667  16.426
 6350TIP3    H269519   6.332   5.695  16.386
 6351TIP3   OH269520   5.672   5.617  16.894
 6351TIP3    H169521   5.620   5.592  16.818
 6351TIP3    H269522   5.682   5.535  16.943
 6352TIP3   OH269523   5.731   5.388  17.045
 6352TIP3    H169524   5.694   5.318  17.099
 6352TIP3    H269525   5.780   5.443  17.107
 6353TIP3   OH269526   7.257   5.320  17.565
 6353TIP3    H169527   7.199   5.384  17.609
 6353TIP3    H269528   7.207   5.292  17.488
 6354TIP3   OH269529   7.494   4.471  17.886
 6354TIP3    H169530   7.446   4.408  17.831
 6354TIP3    H269531   7.457   4.459  17.973
 6355TIP3   OH269532   7.204   4.183  16.324
 6355TIP3    H169533   7.272   4.235  16.366
 6355TIP3    H269534   7.178   4.235  16.248
 6356TIP3   OH269535   7.248   4.345  16.766
 6356TIP3    H169536   7.167   4.358  16.716
 6356TIP3    H269537   7.298   4.283  16.713
 6357TIP3   OH269538   5.722   4.292  17.976
 6357TIP3    H169539   5.814   4.266  17.977
 6357TIP3    H269540   5.676   4.213  17.948
 6358TIP3   OH269541   7.570   3.792  18.055
 6358TIP3    H169542   7.606   3.710  18.023
 6358TIP3    H269543   7.633   3.859  18.026
 6359TIP3   OH269544   5.789   4.117  17.210
 6359TIP3    H169545   5.811   4.023  17.206
 6359TIP3    H269546   5.874   4.160  17.222
 6360TIP3   OH269547   5.671   4.425  17.382
 6360TIP3    H169548   5.723   4.398  17.306
 6360TIP3    H269549   5.684   4.519  17.388
 6361TIP3   OH269550   5.739   4.107  16.725
 6361TIP3    H169551   5.650   4.072  16.726
 6361TIP3    H269552   5.750   4.142  16.637
 6362TIP3   OH269553   5.883   5.297  17.950
 6362TIP3    H169554   5.806   5.277  17.896
 6362TIP3    H269555   5.895   5.219  18.004
 6363TIP3   OH269556   6.194   5.388  17.592
 6363TIP3    H169557   6.185   5.479  17.564
 6363TIP3    H269558   6.285   5.366  17.574
 6364TIP3   OH269559   6.659   5.547  17.917
 6364TIP3    H169560   6.657   5.478  17.983
 6364TIP3    H269561   6.751   5.556  17.894
 6365TIP3   OH269562   6.920   5.605  17.853
 6365TIP3    H169563   6.981   5.571  17.787
 6365TIP3    H269564   6.922   5.700  17.840
 6366TIP3   OH269565   7.332   3.860  17.700
 6366TIP3    H169566   7.294   3.935  17.654
 6366TIP3    H269567   7.349   3.796  17.630
 6367TIP3   OH269568   5.900   5.650  17.584
 6367TIP3    H169569   5.818   5.692  17.558
 6367TIP3    H269570   5.919   5.685  17.671
 6368TIP3   OH269571   6.171   5.651  17.515
 6368TIP3    H169572   6.077   5.660  17.529
 6368TIP3    H269573   6.188   5.699  17.434
 6369TIP3   OH269574   6.652   5.556  17.409
 6369TIP3    H169575   6.600   5.596  17.339
 6369TIP3    H269576   6.648   5.619  17.481
 6370TIP3   OH269577   6.930   5.560  17.439
 6370TIP3    H169578   6.836   5.541  17.435
 6370TIP3    H269579   6.944   5.631  17.376
 6371TIP3   OH269580   5.866   5.521  17.251
 6371TIP3    H169581   5.864   5.483  17.339
 6371TIP3    H269582   5.947   5.488  17.212
 6372TIP3   OH269583   6.087   5.387  17.170
 6372TIP3    H169584   6.069   5.301  17.207
 6372TIP3    H269585   6.175   5.408  17.201
 6373TIP3   OH269586   6.345   5.397  17.281
 6373TIP3    H169587   6.344   5.307  17.250
 6373TIP3    H269588   6.381   5.392  17.370
 6374TIP3   OH269589   5.829   3.868  16.587
 6374TIP3    H169590   5.886   3.907  16.521
 6374TIP3    H269591   5.804   3.942  16.643
 6375TIP3   OH269592   5.816   5.472  16.605
 6375TIP3    H169593   5.754   5.470  16.532
 6375TIP3    H269594   5.843   5.564  16.611
 6376TIP3   OH269595   5.994   3.974  16.397
 6376TIP3    H169596   5.959   3.943  16.314
 6376TIP3    H269597   6.071   4.026  16.374
 6377TIP3   OH269598   6.740   5.539  16.457
 6377TIP3    H169599   6.830   5.564  16.437
 6377TIP3    H269600   6.708   5.499  16.376
 6378TIP3   OH269601   5.951   3.975  17.873
 6378TIP3    H169602   5.899   3.896  17.886
 6378TIP3    H269603   6.038   3.953  17.906
 6379TIP3   OH269604   6.178   3.900  18.023
 6379TIP3    H169605   6.268   3.891  17.991
 6379TIP3    H269606   6.157   3.814  18.059
 6380TIP3   OH269607   6.044   5.613  16.310
 6380TIP3    H169608   5.949   5.605  16.317
 6380TIP3    H269609   6.073   5.524  16.291
 6381TIP3   OH269610   7.927   4.738  17.392
 6381TIP3    H169611   7.976   4.665  17.430
 6381TIP3    H269612   7.961   4.815  17.438
 6382TIP3   OH269613   7.879   5.138  17.332
 6382TIP3    H169614   7.863   5.070  17.266
 6382TIP3    H269615   7.926   5.094  17.402
 6383TIP3   OH269616   8.020   4.963  17.520
 6383TIP3    H169617   8.092   4.956  17.583
 6383TIP3    H269618   7.942   4.976  17.573
 6384TIP3   OH269619   7.690   5.063  16.681
 6384TIP3    H169620   7.617   5.056  16.619
 6384TIP3    H269621   7.679   5.149  16.721
 6385TIP3   OH269622   7.932   4.723  17.807
 6385TIP3    H169623   7.917   4.809  17.846
 6385TIP3    H269624   7.844   4.690  17.786
 6386TIP3   OH269625   8.063   5.387  18.004
 6386TIP3    H169626   0.011   5.396  17.982
 6386TIP3    H269627   8.032   5.313  17.952
 6387TIP3   OH269628   7.940   5.505  16.965
 6387TIP3    H169629   7.957   5.496  17.059
 6387TIP3    H269630   7.845   5.502  16.957
 6388TIP3   OH269631   7.794   4.989  17.665
 6388TIP3    H169632   7.817   4.989  17.757
 6388TIP3    H269633   7.719   4.930  17.658
 6389TIP3   OH269634   8.073   4.538  17.518
 6389TIP3    H169635   8.007   4.470  17.528
 6389TIP3    H269636   8.135   4.503  17.454
 6390TIP3   OH269637   7.876   4.970  17.926
 6390TIP3    H169638   7.945   4.949  17.989
 6390TIP3    H269639   7.850   5.059  17.947
 6391TIP3   OH269640   7.897   4.908  17.178
 6391TIP3    H169641   7.853   4.864  17.105
 6391TIP3    H269642   7.910   4.839  17.243
 6392TIP3   OH269643   7.658   4.664  17.783
 6392TIP3    H169644   7.606   4.595  17.824
 6392TIP3    H269645   7.616   4.680  17.699
 6393TIP3   OH269646   7.703   4.800  16.360
 6393TIP3    H169647   7.756   4.808  16.439
 6393TIP3    H269648   7.633   4.738  16.383
 6394TIP3   OH269649   7.751   5.342  17.469
 6394TIP3    H169650   7.773   5.263  17.419
 6394TIP3    H269651   7.833   5.367  17.512
 6395TIP3   OH269652   7.864   4.880  16.576
 6395TIP3    H169653   7.804   4.937  16.624
 6395TIP3    H269654   7.921   4.940  16.527
 6396TIP3   OH269655   8.005   5.079  16.428
 6396TIP3    H169656   7.944   5.153  16.430
 6396TIP3    H269657   8.003   5.049  16.337
 6397TIP3   OH269658   7.703   5.344  16.760
 6397TIP3    H169659   7.658   5.425  16.736
 6397TIP3    H269660   7.782   5.343  16.706
 6398TIP3   OH269661   7.668   5.528  17.019
 6398TIP3    H169662   7.631   5.460  16.962
 6398TIP3    H269663   7.592   5.565  17.064
 6399TIP3   OH269664   7.659   4.733  17.323
 6399TIP3    H169665   7.656   4.731  17.227
 6399TIP3    H269666   7.753   4.729  17.344
 6400TIP3   OH269667   7.792   5.222  17.988
 6400TIP3    H169668   7.772   5.314  17.974
 6400TIP3    H269669   7.743   5.199  18.068
 6401TIP3   OH269670   8.019   5.429  17.495
 6401TIP3    H169671   8.010   5.439  17.400
 6401TIP3    H269672   8.052   5.515  17.524
 6402TIP3   OH269673   7.816   5.742  17.555
 6402TIP3    H169674   7.801   5.686  17.479
 6402TIP3    H269675   7.773   5.825  17.532
 6403TIP3   OH269676   8.087   5.693  17.525
 6403TIP3    H169677   7.997   5.717  17.548
 6403TIP3    H269678   8.097   5.723  17.434
 6404TIP3   OH269679   7.788   5.580  17.336
 6404TIP3    H169680   7.754   5.499  17.376
 6404TIP3    H269681   7.857   5.551  17.277
 6405TIP3   OH269682   7.997   5.411  17.224
 6405TIP3    H169683   7.962   5.322  17.233
 6405TIP3    H269684   8.088   5.399  17.198
 6406TIP3   OH269685   8.082   3.838  17.961
 6406TIP3    H169686   8.106   3.758  17.914
 6406TIP3    H269687   7.987   3.844  17.951
 6407TIP3   OH269688   7.887   5.534  16.244
 6407TIP3    H169689   7.824   5.504  16.309
 6407TIP3    H269690   7.903   5.626  16.266
 6408TIP3   OH269691   1.202   6.719  16.946
 6408TIP3    H169692   1.195   6.813  16.925
 6408TIP3    H269693   1.163   6.675  16.871
 6409TIP3   OH269694   1.440   6.904  17.090
 6409TIP3    H169695   1.406   6.824  17.128
 6409TIP3    H269696   1.468   6.957  17.165
 6410TIP3   OH269697   0.099   6.461  16.772
 6410TIP3    H169698   0.146   6.540  16.801
 6410TIP3    H269699   0.020   6.495  16.729
 6411TIP3   OH269700   0.157   6.583  17.152
 6411TIP3    H169701   0.219   6.516  17.124
 6411TIP3    H269702   0.139   6.634  17.074
 6412TIP3   OH269703   1.205   7.431  17.126
 6412TIP3    H169704   1.270   7.361  17.130
 6412TIP3    H269705   1.159   7.427  17.210
 6413TIP3   OH269706   1.778   6.074  17.419
 6413TIP3    H169707   1.797   6.097  17.510
 6413TIP3    H269708   1.829   6.137  17.368
 6414TIP3   OH269709   1.328   6.079  16.863
 6414TIP3    H169710   1.419   6.054  16.882
 6414TIP3    H269711   1.335   6.158  16.810
 6415TIP3   OH269712   1.822   6.166  17.670
 6415TIP3    H169713   1.758   6.237  17.670
 6415TIP3    H269714   1.852   6.162  17.761
 6416TIP3   OH269715   0.203   6.961  16.671
 6416TIP3    H169716   0.253   6.910  16.607
 6416TIP3    H269717   0.181   6.898  16.740
 6417TIP3   OH269718   1.521   7.049  17.323
 6417TIP3    H169719   1.427   7.063  17.335
 6417TIP3    H269720   1.553   7.133  17.290
 6418TIP3   OH269721   1.435   7.296  17.003
 6418TIP3    H169722   1.454   7.215  16.955
 6418TIP3    H269723   1.395   7.354  16.938
 6419TIP3   OH269724   1.496   7.057  16.867
 6419TIP3    H169725   1.496   7.005  16.787
 6419TIP3    H269726   1.467   6.997  16.935
 6420TIP3   OH269727   1.752   6.577  17.497
 6420TIP3    H169728   1.693   6.647  17.472
 6420TIP3    H269729   1.790   6.547  17.415
 6421TIP3   OH269730   1.445   6.673  16.804
 6421TIP3    H169731   1.373   6.674  16.867
 6421TIP3    H269732   1.497   6.597  16.829
 6422TIP3   OH269733   1.365   6.463  17.683
 6422TIP3    H169734   1.384   6.514  17.762
 6422TIP3    H269735   1.349   6.528  17.615
 6423TIP3   OH269736   1.262   7.087  17.379
 6423TIP3    H169737   1.238   7.170  17.421
 6423TIP3    H269738   1.203   7.023  17.419
 6424TIP3   OH269739   1.096   7.236  16.944
 6424TIP3    H169740   1.122   7.312  16.996
 6424TIP3    H269741   1.030   7.269  16.883
 6425TIP3   OH269742   0.502   7.179  17.890
 6425TIP3    H169743   0.536   7.148  17.807
 6425TIP3    H269744   0.407   7.168  17.883
 6426TIP3   OH269745   0.065   6.757  17.645
 6426TIP3    H169746   8.139   6.822  17.640
 6426TIP3    H269747   0.086   6.738  17.553
 6427TIP3   OH269748   0.103   7.027  17.341
 6427TIP3    H169749   0.117   7.074  17.259
 6427TIP3    H269750   0.143   7.083  17.408
 6428TIP3   OH269751   1.072   7.647  16.613
 6428TIP3    H169752   1.027   7.563  16.620
 6428TIP3    H269753   1.072   7.681  16.703
 6429TIP3   OH269754   0.437   7.314  16.911
 6429TIP3    H169755   0.483   7.266  16.980
 6429TIP3    H269756   0.361   7.259  16.890
 6430TIP3   OH269757   1.310   7.413  16.409
 6430TIP3    H169758   1.357   7.342  16.365
 6430TIP3    H269759   1.374   7.450  16.469
 6431TIP3   OH269760   1.256   7.414  16.777
 6431TIP3    H169761   1.164   7.438  16.769
 6431TIP3    H269762   1.256   7.318  16.771
 6432TIP3   OH269763   1.562   6.288  17.910
 6432TIP3    H169764   1.561   6.326  17.822
 6432TIP3    H269765   1.553   6.194  17.896
 6433TIP3   OH269766   0.233   6.924  17.791
 6433TIP3    H169767   0.320   6.888  17.810
 6433TIP3    H269768   0.196   6.864  17.726
 6434TIP3   OH269769   1.020   5.784  17.655
 6434TIP3    H169770   1.076   5.722  17.702
 6434TIP3    H269771   0.932   5.765  17.687
 6435TIP3   OH269772   1.340   6.187  17.712
 6435TIP3    H169773   1.277   6.185  17.785
 6435TIP3    H269774   1.347   6.279  17.689
 6436TIP3   OH269775   1.038   5.993  16.338
 6436TIP3    H169776   0.970   5.988  16.405
 6436TIP3    H269777   0.990   5.994  16.255
 6437TIP3   OH269778   1.255   6.314  17.003
 6437TIP3    H169779   1.267   6.347  16.914
 6437TIP3    H269780   1.259   6.219  16.993
 6438TIP3   OH269781   8.102   5.978  16.959
 6438TIP3    H169782   0.045   5.947  16.987
 6438TIP3    H269783   8.104   5.972  16.864
 6439TIP3   OH269784   0.095   6.237  16.609
 6439TIP3    H169785   0.083   6.279  16.524
 6439TIP3    H269786   0.113   6.308  16.670
 6440TIP3   OH269787   1.598   7.608  17.991
 6440TIP3    H169788   1.595   7.639  17.900
 6440TIP3    H269789   1.598   7.689  18.043
 6441TIP3   OH269790   0.464   6.847  17.938
 6441TIP3    H169791   0.557   6.844  17.917
 6441TIP3    H269792   0.461   6.848  18.034
 6442TIP3   OH269793   1.568   6.772  17.404
 6442TIP3    H169794   1.567   6.866  17.388
 6442TIP3    H269795   1.492   6.738  17.356
 6443TIP3   OH269796   1.276   6.091  16.427
 6443TIP3    H169797   1.195   6.055  16.391
 6443TIP3    H269798   1.303   6.158  16.363
 6444TIP3   OH269799   1.330   6.323  16.734
 6444TIP3    H169800   1.417   6.317  16.695
 6444TIP3    H269801   1.277   6.365  16.666
 6445TIP3   OH269802   0.400   6.740  17.110
 6445TIP3    H169803   0.369   6.765  17.022
 6445TIP3    H269804   0.324   6.697  17.150
 6446TIP3   OH269805   1.109   6.976  16.461
 6446TIP3    H169806   1.061   7.059  16.471
 6446TIP3    H269807   1.090   6.929  16.542
 6447TIP3   OH269808   1.216   7.071  17.756
 6447TIP3    H169809   1.173   7.140  17.705
 6447TIP3    H269810   1.224   7.108  17.844
 6448TIP3   OH269811   1.804   6.318  16.512
 6448TIP3    H169812   1.774   6.292  16.425
 6448TIP3    H269813   1.822   6.411  16.504
 6449TIP3   OH269814   1.339   6.686  17.241
 6449TIP3    H169815   1.264   6.690  17.183
 6449TIP3    H269816   1.384   6.605  17.217
 6450TIP3   OH269817   0.601   7.418  16.709
 6450TIP3    H169818   0.556   7.377  16.783
 6450TIP3    H269819   0.694   7.411  16.730
 6451TIP3   OH269820   1.161   6.855  17.497
 6451TIP3    H169821   1.227   6.848  17.567
 6451TIP3    H269822   1.196   6.801  17.426
 6452TIP3   OH269823   1.391   7.008  16.438
 6452TIP3    H169824   1.434   6.962  16.510
 6452TIP3    H269825   1.298   6.990  16.450
 6453TIP3   OH269826   1.429   7.328  17.684
 6453TIP3    H169827   1.351   7.300  17.635
 6453TIP3    H269828   1.467   7.398  17.631
 6454TIP3   OH269829   0.253   6.087  17.724
 6454TIP3    H169830   0.240   6.169  17.676
 6454TIP3    H269831   0.198   6.024  17.678
 6455TIP3   OH269832   1.530   6.879  16.649
 6455TIP3    H169833   1.494   6.803  16.695
 6455TIP3    H269834   1.621   6.856  16.632
 6456TIP3   OH269835   0.240   7.200  17.536
 6456TIP3    H169836   0.324   7.158  17.516
 6456TIP3    H269837   0.261   7.293  17.543
 6457TIP3   OH269838   1.074   6.057  17.649
 6457TIP3    H169839   1.160   6.068  17.609
 6457TIP3    H269840   1.055   5.964  17.640
 6458TIP3   OH269841   1.244   5.912  16.650
 6458TIP3    H169842   1.245   5.971  16.574
 6458TIP3    H269843   1.254   5.971  16.726
 6459TIP3   OH269844   0.965   7.200  16.525
 6459TIP3    H169845   0.938   7.237  16.609
 6459TIP3    H269846   0.981   7.276  16.469
 6460TIP3   OH269847   0.915   6.120  16.791
 6460TIP3    H169848   0.992   6.176  16.787
 6460TIP3    H269849   0.861   6.159  16.860
 6461TIP3   OH269850   0.597   7.397  16.437
 6461TIP3    H169851   0.663   7.465  16.421
 6461TIP3    H269852   0.594   7.388  16.532
 6462TIP3   OH269853   1.536   6.022  17.825
 6462TIP3    H169854   1.473   6.066  17.769
 6462TIP3    H269855   1.570   5.950  17.771
 6463TIP3   OH269856   1.442   6.449  17.151
 6463TIP3    H169857   1.373   6.397  17.111
 6463TIP3    H269858   1.496   6.386  17.198
 6464TIP3   OH269859   1.577   7.312  17.238
 6464TIP3    H169860   1.527   7.312  17.156
 6464TIP3    H269861   1.668   7.328  17.211
 6465TIP3   OH269862   0.196   7.169  16.856
 6465TIP3    H169863   0.119   7.209  16.816
 6465TIP3    H269864   0.211   7.089  16.805
 6466TIP3   OH269865   0.182   7.434  17.943
 6466TIP3    H169866   0.219   7.435  18.031
 6466TIP3    H269867   0.195   7.344  17.912
 6467TIP3   OH269868   0.572   7.357  18.085
 6467TIP3    H169869   0.668   7.352  18.086
 6467TIP3    H269870   0.546   7.297  18.016
 6468TIP3   OH269871   1.239   7.155  18.020
 6468TIP3    H169872   1.232   7.075  18.071
 6468TIP3    H269873   1.318   7.197  18.051
 6469TIP3   OH269874   1.444   7.214  16.269
 6469TIP3    H169875   1.425   7.144  16.332
 6469TIP3    H269876   1.477   7.168  16.192
 6470TIP3   OH269877   0.100   6.842  18.021
 6470TIP3    H169878   0.122   6.753  17.993
 6470TIP3    H269879   0.127   6.898  17.948
 6471TIP3   OH269880   1.371   6.854  17.697
 6471TIP3    H169881   1.447   6.898  17.658
 6471TIP3    H269882   1.315   6.925  17.727
 6472TIP3   OH269883   0.691   6.169  17.768
 6472TIP3    H169884   0.667   6.099  17.708
 6472TIP3    H269885   0.760   6.217  17.722
 6473TIP3   OH269886   0.680   6.000  17.542
 6473TIP3    H169887   0.768   6.001  17.504
 6473TIP3    H269888   0.621   6.010  17.467
 6474TIP3   OH269889   1.258   6.295  18.103
 6474TIP3    H169890   1.217   6.248  18.031
 6474TIP3    H269891   1.342   6.325  18.068
 6475TIP3   OH269892   1.432   6.650  17.883
 6475TIP3    H169893   1.410   6.724  17.827
 6475TIP3    H269894   1.528   6.652  17.889
 6476TIP3   OH269895   0.741   5.751  17.668
 6476TIP3    H169896   0.697   5.832  17.642
 6476TIP3    H269897   0.761   5.707  17.586
 6477TIP3   OH269898   1.140   6.137  17.904
 6477TIP3    H169899   1.099   6.116  17.820
 6477TIP3    H269900   1.142   6.054  17.951
 6478TIP3   OH269901   0.316   6.100  17.987
 6478TIP3    H169902   0.300   6.085  17.893
 6478TIP3    H269903   0.403   6.138  17.990
 6479TIP3   OH269904   0.800   7.570  16.378
 6479TIP3    H169905   0.883   7.527  16.399
 6479TIP3    H269906   0.799   7.577  16.283
 6480TIP3   OH269907   0.104   7.460  16.951
 6480TIP3    H169908   0.101   7.418  16.864
 6480TIP3    H269909   0.094   7.388  17.013
 6481TIP3   OH269910   0.107   7.226  17.109
 6481TIP3    H169911   0.136   7.187  17.027
 6481TIP3    H269912   0.188   7.252  17.153
 6482TIP3   OH269913   1.700   6.938  18.167
 6482TIP3    H169914   1.616   6.968  18.201
 6482TIP3    H269915   1.739   7.017  18.128
 6483TIP3   OH269916   1.805   6.789  16.635
 6483TIP3    H169917   1.883   6.843  16.641
 6483TIP3    H269918   1.813   6.726  16.708
 6484TIP3   OH269919   1.829   6.607  16.848
 6484TIP3    H169920   1.748   6.560  16.869
 6484TIP3    H269921   1.863   6.637  16.932
 6485TIP3   OH269922   1.537   7.063  17.607
 6485TIP3    H169923   1.511   7.149  17.640
 6485TIP3    H269924   1.538   7.073  17.512
 6486TIP3   OH269925   1.848   6.581  16.451
 6486TIP3    H169926   1.814   6.596  16.363
 6486TIP3    H269927   1.817   6.656  16.501
 6487TIP3   OH269928   1.598   6.461  16.898
 6487TIP3    H169929   1.597   6.380  16.847
 6487TIP3    H269930   1.555   6.438  16.981
 6488TIP3   OH269931   0.110   6.735  17.377
 6488TIP3    H169932   0.124   6.685  17.297
 6488TIP3    H269933   0.111   6.827  17.349
 6489TIP3   OH269934   1.713   6.643  17.903
 6489TIP3    H169935   1.755   6.557  17.901
 6489TIP3    H269936   1.768   6.697  17.846
 6490TIP3   OH269937   1.818   6.389  17.899
 6490TIP3    H169938   1.729   6.355  17.908
 6490TIP3    H269939   1.874   6.316  17.922
 6491TIP3   OH269940   1.512   5.976  16.291
 6491TIP3    H169941   1.596   5.981  16.336
 6491TIP3    H269942   1.449   6.013  16.353
 6492TIP3   OH269943   1.607   6.244  16.713
 6492TIP3    H169944   1.611   6.148  16.719
 6492TIP3    H269945   1.668   6.266  16.643
 6493TIP3   OH269946   1.612   6.279  17.280
 6493TIP3    H169947   1.706   6.297  17.287
 6493TIP3    H269948   1.602   6.189  17.312
 6494TIP3   OH269949   1.634   6.372  17.647
 6494TIP3    H169950   1.543   6.381  17.619
 6494TIP3    H269951   1.681   6.437  17.594
 6495TIP3   OH269952   0.029   6.158  17.940
 6495TIP3    H169953   0.119   6.138  17.965
 6495TIP3    H269954   0.025   6.137  17.847
 6496TIP3   OH269955   1.918   5.715  18.013
 6496TIP3    H169956   1.844   5.658  17.992
 6496TIP3    H269957   1.880   5.784  18.067
 6497TIP3   OH269958   1.615   5.964  16.747
 6497TIP3    H169959   1.618   5.923  16.833
 6497TIP3    H269960   1.572   5.899  16.691
 6498TIP3   OH269961   0.194   5.913  17.079
 6498TIP3    H169962   0.246   5.845  17.122
 6498TIP3    H269963   0.255   5.986  17.070
 6499TIP3   OH269964   8.125   6.379  17.223
 6499TIP3    H169965   8.107   6.356  17.132
 6499TIP3    H269966   0.043   6.452  17.218
 6500TIP3   OH269967   1.774   5.968  16.378
 6500TIP3    H169968   1.818   5.965  16.293
 6500TIP3    H269969   1.842   5.998  16.438
 6501TIP3   OH269970   0.079   5.917  17.605
 6501TIP3    H169971   0.050   5.828  17.588
 6501TIP3    H269972   0.013   5.972  17.562
 6502TIP3   OH269973   0.210   7.165  17.907
 6502TIP3    H169974   0.218   7.087  17.853
 6502TIP3    H269975   0.118   7.167  17.933
 6503TIP3   OH269976   0.954   7.400  17.899
 6503TIP3    H169977   0.969   7.344  17.976
 6503TIP3    H269978   1.042   7.418  17.865
 6504TIP3   OH269979   1.213   7.463  17.825
 6504TIP3    H169980   1.288   7.420  17.783
 6504TIP3    H269981   1.247   7.496  17.908
 6505TIP3   OH269982   0.318   7.465  17.576
 6505TIP3    H169983   0.304   7.535  17.512
 6505TIP3    H269984   0.338   7.510  17.658
 6506TIP3   OH269985   0.599   7.476  17.530
 6506TIP3    H169986   0.510   7.452  17.553
 6506TIP3    H269987   0.599   7.480  17.434
 6507TIP3   OH269988   1.049   7.473  17.366
 6507TIP3    H169989   0.975   7.504  17.313
 6507TIP3    H269990   1.049   7.529  17.443
 6508TIP3   OH269991   1.231   7.330  17.500
 6508TIP3    H169992   1.151   7.367  17.462
 6508TIP3    H269993   1.299   7.396  17.482
 6509TIP3   OH269994   1.452   7.501  17.464
 6509TIP3    H169995   1.459   7.596  17.454
 6509TIP3    H269996   1.493   7.465  17.385
 6510TIP3   OH269997   0.329   7.289  17.242
 6510TIP3    H169998   0.389   7.229  17.288
 6510TIP3    H269999   0.383   7.366  17.224
 6511TIP3   OH270000   1.297   5.657  17.072
 6511TIP3    H170001   1.307   5.723  17.003
 6511TIP3    H270002   1.221   5.605  17.044
 6512TIP3   OH270003   1.464   5.748  16.651
 6512TIP3    H170004   1.380   5.791  16.640
 6512TIP3    H270005   1.457   5.668  16.598
 6513TIP3   OH270006   0.185   7.202  16.517
 6513TIP3    H170007   0.185   7.121  16.568
 6513TIP3    H270008   0.192   7.271  16.583
 6514TIP3   OH270009   0.879   5.968  16.561
 6514TIP3    H170010   0.829   5.892  16.590
 6514TIP3    H270011   0.893   6.020  16.640
 6515TIP3   OH270012   1.038   7.422  16.370
 6515TIP3    H170013   1.130   7.432  16.394
 6515TIP3    H270014   1.039   7.361  16.296
 6516TIP3   OH270015   0.386   7.252  16.331
 6516TIP3    H170016   0.321   7.242  16.401
 6516TIP3    H270017   0.455   7.304  16.370
 6517TIP3   OH270018   3.088   6.709  16.898
 6517TIP3    H170019   3.077   6.801  16.873
 6517TIP3    H270020   3.029   6.661  16.839
 6518TIP3   OH270021   2.911   6.613  17.308
 6518TIP3    H170022   2.956   6.563  17.377
 6518TIP3    H270023   2.885   6.546  17.244
 6519TIP3   OH270024   1.972   6.383  16.747
 6519TIP3    H170025   1.929   6.463  16.779
 6519TIP3    H270026   1.912   6.350  16.680
 6520TIP3   OH270027   2.783   6.858  17.319
 6520TIP3    H170028   2.826   6.773  17.306
 6520TIP3    H270029   2.855   6.920  17.328
 6521TIP3   OH270030   3.703   6.013  17.395
 6521TIP3    H170031   3.701   6.089  17.453
 6521TIP3    H270032   3.778   6.029  17.337
 6522TIP3   OH270033   3.108   6.247  17.314
 6522TIP3    H170034   3.150   6.164  17.336
 6522TIP3    H270035   3.110   6.250  17.218
 6523TIP3   OH270036   3.262   6.103  16.890
 6523TIP3    H170037   3.310   6.022  16.879
 6523TIP3    H270038   3.309   6.166  16.835
 6524TIP3   OH270039   2.090   6.317  17.138
 6524TIP3    H170040   2.164   6.274  17.181
 6524TIP3    H270041   2.107   6.306  17.045
 6525TIP3   OH270042   2.582   6.469  17.074
 6525TIP3    H170043   2.668   6.434  17.094
 6525TIP3    H270044   2.539   6.399  17.024
 6526TIP3   OH270045   3.667   6.172  17.620
 6526TIP3    H170046   3.617   6.252  17.603
 6526TIP3    H270047   3.729   6.196  17.688
 6527TIP3   OH270048   3.054   6.957  16.779
 6527TIP3    H170049   3.042   6.954  16.684
 6527TIP3    H270050   2.994   7.025  16.809
 6528TIP3   OH270051   2.592   6.742  17.483
 6528TIP3    H170052   2.531   6.812  17.506
 6528TIP3    H270053   2.659   6.785  17.430
 6529TIP3   OH270054   2.310   6.181  17.231
 6529TIP3    H170055   2.384   6.211  17.284
 6529TIP3    H270056   2.350   6.142  17.153
 6530TIP3   OH270057   2.424   6.956  17.531
 6530TIP3    H170058   2.436   6.989  17.442
 6530TIP3    H270059   2.329   6.952  17.543
 6531TIP3   OH270060   2.044   6.968  16.650
 6531TIP3    H170061   2.072   7.040  16.592
 6531TIP3    H270062   2.027   7.011  16.734
 6532TIP3   OH270063   3.457   5.882  17.401
 6532TIP3    H170064   3.375   5.931  17.393
 6532TIP3    H270065   3.525   5.949  17.395
 6533TIP3   OH270066   3.315   7.043  16.834
 6533TIP3    H170067   3.361   7.002  16.761
 6533TIP3    H270068   3.224   7.014  16.826
 6534TIP3   OH270069   3.425   6.913  17.704
 6534TIP3    H170070   3.446   6.868  17.622
 6534TIP3    H270071   3.378   6.991  17.676
 6535TIP3   OH270072   2.956   6.594  16.680
 6535TIP3    H170073   2.894   6.656  16.644
 6535TIP3    H270074   3.023   6.584  16.612
 6536TIP3   OH270075   3.659   6.581  17.525
 6536TIP3    H170076   3.594   6.651  17.518
 6536TIP3    H270077   3.714   6.591  17.448
 6537TIP3   OH270078   3.311   6.644  16.751
 6537TIP3    H170079   3.243   6.663  16.815
 6537TIP3    H270080   3.374   6.589  16.798
 6538TIP3   OH270081   3.241   6.471  17.662
 6538TIP3    H170082   3.237   6.562  17.691
 6538TIP3    H270083   3.173   6.465  17.595
 6539TIP3   OH270084   2.506   6.693  16.922
 6539TIP3    H170085   2.453   6.654  16.853
 6539TIP3    H270086   2.528   6.620  16.979
 6540TIP3   OH270087   2.528   7.001  17.258
 6540TIP3    H170088   2.528   7.038  17.169
 6540TIP3    H270089   2.612   6.955  17.265
 6541TIP3   OH270090   2.508   6.516  17.341
 6541TIP3    H170091   2.525   6.523  17.247
 6541TIP3    H270092   2.531   6.602  17.376
 6542TIP3   OH270093   2.549   6.999  17.774
 6542TIP3    H170094   2.473   6.972  17.825
 6542TIP3    H270095   2.522   6.990  17.683
 6543TIP3   OH270096   3.184   6.558  16.521
 6543TIP3    H170097   3.239   6.597  16.588
 6543TIP3    H270098   3.215   6.595  16.438
 6544TIP3   OH270099   2.217   6.598  17.774
 6544TIP3    H170100   2.237   6.691  17.761
 6544TIP3    H270101   2.132   6.586  17.733
 6545TIP3   OH270102   2.902   7.162  16.884
 6545TIP3    H170103   2.954   7.162  16.964
 6545TIP3    H270104   2.892   7.254  16.861
 6546TIP3   OH270105   3.575   5.709  16.531
 6546TIP3    H170106   3.482   5.726  16.546
 6546TIP3    H270107   3.608   5.789  16.491
 6547TIP3   OH270108   2.366   6.597  16.699
 6547TIP3    H170109   2.306   6.655  16.652
 6547TIP3    H270110   2.330   6.509  16.688
 6548TIP3   OH270111   2.800   7.132  17.714
 6548TIP3    H170112   2.811   7.207  17.771
 6548TIP3    H270113   2.717   7.092  17.741
 6549TIP3   OH270114   2.869   7.432  16.806
 6549TIP3    H170115   2.817   7.405  16.731
 6549TIP3    H270116   2.881   7.526  16.795
 6550TIP3   OH270117   3.446   6.324  17.920
 6550TIP3    H170118   3.407   6.406  17.892
 6550TIP3    H270119   3.398   6.257  17.872
 6551TIP3   OH270120   3.255   6.194  17.766
 6551TIP3    H170121   3.169   6.155  17.778
 6551TIP3    H270122   3.238   6.275  17.718
 6552TIP3   OH270123   2.483   6.267  17.437
 6552TIP3    H170124   2.412   6.272  17.501
 6552TIP3    H270125   2.492   6.357  17.405
 6553TIP3   OH270126   2.460   6.263  16.929
 6553TIP3    H170127   2.365   6.266  16.927
 6553TIP3    H270128   2.486   6.249  16.838
 6554TIP3   OH270129   3.002   6.346  16.796
 6554TIP3    H170130   2.974   6.432  16.766
 6554TIP3    H270131   3.068   6.319  16.733
 6555TIP3   OH270132   2.893   6.374  17.914
 6555TIP3    H170133   2.856   6.296  17.954
 6555TIP3    H270134   2.984   6.375  17.943
 6556TIP3   OH270135   3.102   6.265  17.041
 6556TIP3    H170136   3.056   6.312  16.971
 6556TIP3    H270137   3.154   6.199  16.996
 6557TIP3   OH270138   1.899   6.048  17.035
 6557TIP3    H170139   1.984   6.011  17.059
 6557TIP3    H270140   1.901   6.051  16.939
 6558TIP3   OH270141   1.982   6.101  16.507
 6558TIP3    H170142   2.032   6.105  16.425
 6558TIP3    H270143   1.934   6.184  16.509
 6559TIP3   OH270144   3.026   6.433  17.490
 6559TIP3    H170145   3.060   6.372  17.424
 6559TIP3    H270146   2.968   6.379  17.544
 6560TIP3   OH270147   2.694   6.124  17.026
 6560TIP3    H170148   2.604   6.144  17.002
 6560TIP3    H270149   2.723   6.199  17.078
 6561TIP3   OH270150   2.181   6.258  16.874
 6561TIP3    H170151   2.111   6.308  16.831
 6561TIP3    H270152   2.183   6.175  16.826
 6562TIP3   OH270153   2.531   6.227  16.660
 6562TIP3    H170154   2.623   6.211  16.680
 6562TIP3    H270155   2.532   6.286  16.585
 6563TIP3   OH270156   2.505   6.389  16.423
 6563TIP3    H170157   2.452   6.323  16.377
 6563TIP3    H270158   2.578   6.406  16.363
 6564TIP3   OH270159   2.324   6.874  17.887
 6564TIP3    H170160   2.359   6.815  17.955
 6564TIP3    H270161   2.230   6.879  17.906
 6565TIP3   OH270162   2.819   6.341  17.164
 6565TIP3    H170163   2.909   6.315  17.142
 6565TIP3    H270164   2.805   6.303  17.251
 6566TIP3   OH270165   2.758   6.230  17.407
 6566TIP3    H170166   2.663   6.233  17.419
 6566TIP3    H270167   2.793   6.237  17.496
 6567TIP3   OH270168   2.777   6.790  16.584
 6567TIP3    H170169   2.703   6.747  16.541
 6567TIP3    H270170   2.739   6.833  16.661
 6568TIP3   OH270171   3.474   6.778  17.471
 6568TIP3    H170172   3.536   6.819  17.411
 6568TIP3    H270173   3.409   6.736  17.414
 6569TIP3   OH270174   3.053   6.100  16.466
 6569TIP3    H170175   2.996   6.147  16.405
 6569TIP3    H270176   3.113   6.167  16.499
 6570TIP3   OH270177   2.977   6.907  17.770
 6570TIP3    H170178   2.931   6.894  17.853
 6570TIP3    H270179   2.934   6.981  17.729
 6571TIP3   OH270180   3.201   6.294  16.609
 6571TIP3    H170181   3.294   6.278  16.627
 6571TIP3    H270182   3.199   6.379  16.566
 6572TIP3   OH270183   2.994   6.945  16.500
 6572TIP3    H170184   2.958   7.033  16.491
 6572TIP3    H270185   2.918   6.890  16.520
 6573TIP3   OH270186   1.949   6.550  17.705
 6573TIP3    H170187   1.907   6.486  17.762
 6573TIP3    H270188   1.889   6.562  17.632
 6574TIP3   OH270189   2.686   6.554  17.953
 6574TIP3    H170190   2.625   6.533  17.882
 6574TIP3    H270191   2.765   6.506  17.932
 6575TIP3   OH270192   3.664   6.310  16.532
 6575TIP3    H170193   3.673   6.268  16.446
 6575TIP3    H270194   3.684   6.402  16.516
 6576TIP3   OH270195   3.672   6.870  17.832
 6576TIP3    H170196   3.587   6.902  17.802
 6576TIP3    H270197   3.727   6.870  17.754
 6577TIP3   OH270198   3.302   6.637  17.306
 6577TIP3    H170199   3.214   6.669  17.284
 6577TIP3    H270200   3.319   6.568  17.242
 6578TIP3   OH270201   2.540   7.106  16.980
 6578TIP3    H170202   2.577   7.183  16.936
 6578TIP3    H270203   2.529   7.041  16.910
 6579TIP3   OH270204   2.091   6.666  16.336
 6579TIP3    H170205   2.141   6.696  16.411
 6579TIP3    H270206   2.018   6.616  16.373
 6580TIP3   OH270207   2.654   6.892  16.812
 6580TIP3    H170208   2.706   6.929  16.883
 6580TIP3    H270209   2.603   6.822  16.853
 6581TIP3   OH270210   2.734   7.313  17.493
 6581TIP3    H170211   2.811   7.366  17.472
 6581TIP3    H270212   2.769   7.240  17.544
 6582TIP3   OH270213   2.532   7.363  16.830
 6582TIP3    H170214   2.452   7.351  16.880
 6582TIP3    H270215   2.564   7.450  16.856
 6583TIP3   OH270216   3.246   6.894  16.380
 6583TIP3    H170217   3.308   6.891  16.454
 6583TIP3    H270218   3.161   6.911  16.421
 6584TIP3   OH270219   3.402   6.862  16.612
 6584TIP3    H170220   3.364   6.791  16.663
 6584TIP3    H270221   3.496   6.845  16.614
 6585TIP3   OH270222   2.229   6.783  16.544
 6585TIP3    H170223   2.170   6.845  16.586
 6585TIP3    H270224   2.286   6.837  16.489
 6586TIP3   OH270225   3.094   5.943  16.688
 6586TIP3    H170226   3.071   5.985  16.605
 6586TIP3    H270227   3.125   6.014  16.744
 6587TIP3   OH270228   2.895   7.199  16.473
 6587TIP3    H170229   2.817   7.223  16.525
 6587TIP3    H270230   2.934   7.283  16.448
 6588TIP3   OH270231   2.780   6.179  16.766
 6588TIP3    H170232   2.858   6.233  16.774
 6588TIP3    H270233   2.763   6.147  16.855
 6589TIP3   OH270234   2.876   6.272  17.658
 6589TIP3    H170235   2.866   6.327  17.736
 6589TIP3    H270236   2.918   6.192  17.690
 6590TIP3   OH270237   2.860   5.828  16.803
 6590TIP3    H170238   2.801   5.889  16.759
 6590TIP3    H270239   2.947   5.851  16.770
 6591TIP3   OH270240   2.699   7.349  16.603
 6591TIP3    H170241   2.668   7.415  16.540
 6591TIP3    H270242   2.626   7.340  16.665
 6592TIP3   OH270243   2.451   5.955  16.601
 6592TIP3    H170244   2.477   6.046  16.617
 6592TIP3    H270245   2.530   5.913  16.567
 6593TIP3   OH270246   3.471   6.016  17.734
 6593TIP3    H170247   3.392   6.069  17.737
 6593TIP3    H270248   3.533   6.067  17.682
 6594TIP3   OH270249   3.337   6.413  17.131
 6594TIP3    H170250   3.255   6.369  17.110
 6594TIP3    H270251   3.382   6.354  17.191
 6595TIP3   OH270252   3.106   7.182  18.006
 6595TIP3    H170253   3.089   7.096  18.044
 6595TIP3    H270254   3.197   7.179  17.979
 6596TIP3   OH270255   2.069   6.829  17.984
 6596TIP3    H170256   2.062   6.736  18.007
 6596TIP3    H270257   1.986   6.867  18.012
 6597TIP3   OH270258   2.667   6.833  17.979
 6597TIP3    H170259   2.640   6.865  17.892
 6597TIP3    H270260   2.678   6.739  17.967
 6598TIP3   OH270261   3.206   6.744  17.760
 6598TIP3    H170262   3.277   6.805  17.740
 6598TIP3    H270263   3.126   6.797  17.753
 6599TIP3   OH270264   2.093   6.555  18.021
 6599TIP3    H170265   2.136   6.560  17.936
 6599TIP3    H270266   2.103   6.464  18.048
 6600TIP3   OH270267   2.549   6.656  16.492
 6600TIP3    H170268   2.500   6.660  16.573
 6600TIP3    H270269   2.537   6.566  16.461
 6601TIP3   OH270270   2.443   6.432  17.810
 6601TIP3    H170271   2.366   6.486  17.792
 6601TIP3    H270272   2.505   6.456  17.742
 6602TIP3   OH270273   2.715   6.479  16.262
 6602TIP3    H170274   2.710   6.484  16.167
 6602TIP3    H270275   2.738   6.568  16.289
 6603TIP3   OH270276   3.013   6.692  18.070
 6603TIP3    H170277   3.056   6.654  17.993
 6603TIP3    H270278   2.981   6.617  18.119
 6604TIP3   OH270279   2.644   6.529  17.650
 6604TIP3    H170280   2.718   6.490  17.604
 6604TIP3    H270281   2.619   6.605  17.597
 6605TIP3   OH270282   3.149   6.372  18.027
 6605TIP3    H170283   3.207   6.297  18.026
 6605TIP3    H270284   3.205   6.446  18.005
 6606TIP3   OH270285   3.310   6.588  17.956
 6606TIP3    H170286   3.267   6.645  17.892
 6606TIP3    H270287   3.403   6.606  17.945
 6607TIP3   OH270288   2.411   6.254  18.019
 6607TIP3    H170289   2.320   6.273  18.044
 6607TIP3    H270290   2.429   6.316  17.948
 6608TIP3   OH270291   2.764   6.151  18.024
 6608TIP3    H170292   2.779   6.103  18.105
 6608TIP3    H270293   2.675   6.186  18.033
 6609TIP3   OH270294   3.000   6.076  17.812
 6609TIP3    H170295   2.935   6.057  17.880
 6609TIP3    H270296   3.022   5.990  17.775
 6610TIP3   OH270297   2.697   7.570  16.428
 6610TIP3    H170298   2.685   7.656  16.468
 6610TIP3    H270299   2.677   7.584  16.335
 6611TIP3   OH270300   3.662   6.760  16.630
 6611TIP3    H170301   3.732   6.824  16.622
 6611TIP3    H270302   3.686   6.707  16.706
 6612TIP3   OH270303   3.721   6.578  16.838
 6612TIP3    H170304   3.635   6.544  16.863
 6612TIP3    H270305   3.772   6.578  16.919
 6613TIP3   OH270306   3.707   6.866  17.346
 6613TIP3    H170307   3.754   6.795  17.302
 6613TIP3    H270308   3.741   6.946  17.304
 6614TIP3   OH270309   3.743   6.562  16.450
 6614TIP3    H170310   3.731   6.595  16.361
 6614TIP3    H270311   3.712   6.632  16.507
 6615TIP3   OH270312   3.472   6.463  16.890
 6615TIP3    H170313   3.468   6.379  16.845
 6615TIP3    H270314   3.431   6.447  16.975
 6616TIP3   OH270315   3.577   6.628  17.922
 6616TIP3    H170316   3.634   6.557  17.892
 6616TIP3    H270317   3.610   6.706  17.878
 6617TIP3   OH270318   3.708   6.394  17.858
 6617TIP3    H170319   3.622   6.358  17.880
 6617TIP3    H270320   3.768   6.321  17.871
 6618TIP3   OH270321   3.393   6.066  16.312
 6618TIP3    H170322   3.470   6.064  16.368
 6618TIP3    H270323   3.406   5.993  16.250
 6619TIP3   OH270324   3.460   6.232  16.715
 6619TIP3    H170325   3.475   6.137  16.722
 6619TIP3    H270326   3.529   6.262  16.655
 6620TIP3   OH270327   3.481   6.257  17.310
 6620TIP3    H170328   3.575   6.262  17.291
 6620TIP3    H270329   3.473   6.288  17.400
 6621TIP3   OH270330   3.486   6.372  17.567
 6621TIP3    H170331   3.403   6.410  17.595
 6621TIP3    H270332   3.544   6.447  17.554
 6622TIP3   OH270333   1.935   6.140  17.931
 6622TIP3    H170334   2.025   6.122  17.904
 6622TIP3    H270335   1.918   6.076  18.000
 6623TIP3   OH270336   3.798   5.746  18.053
 6623TIP3    H170337   3.733   5.678  18.041
 6623TIP3    H270338   3.761   5.823  18.009
 6624TIP3   OH270339   3.463   5.955  16.757
 6624TIP3    H170340   3.528   5.903  16.804
 6624TIP3    H270341   3.419   5.892  16.700
 6625TIP3   OH270342   1.888   6.317  17.322
 6625TIP3    H170343   1.942   6.317  17.243
 6625TIP3    H270344   1.950   6.336  17.393
 6626TIP3   OH270345   3.646   5.956  17.944
 6626TIP3    H170346   3.593   5.997  18.012
 6626TIP3    H270347   3.593   5.964  17.865
 6627TIP3   OH270348   3.649   5.938  16.390
 6627TIP3    H170349   3.603   5.902  16.314
 6627TIP3    H270350   3.727   5.979  16.353
 6628TIP3   OH270351   1.909   6.004  16.758
 6628TIP3    H170352   1.819   5.982  16.736
 6628TIP3    H270353   1.948   6.032  16.675
 6629TIP3   OH270354   2.874   7.358  17.873
 6629TIP3    H170355   2.858   7.332  17.964
 6629TIP3    H270356   2.968   7.346  17.861
 6630TIP3   OH270357   3.512   5.745  17.717
 6630TIP3    H170358   3.477   5.834  17.715
 6630TIP3    H270359   3.581   5.744  17.651
 6631TIP3   OH270360   2.922   7.511  17.441
 6631TIP3    H170361   2.915   7.568  17.365
 6631TIP3    H270362   2.914   7.570  17.516
 6632TIP3   OH270363   3.533   5.762  17.131
 6632TIP3    H170364   3.581   5.796  17.055
 6632TIP3    H270365   3.449   5.806  17.128
 6633TIP3   OH270366   3.659   5.822  16.895
 6633TIP3    H170367   3.720   5.751  16.873
 6633TIP3    H270368   3.716   5.893  16.925
 6634TIP3   OH270369   3.312   5.775  16.610
 6634TIP3    H170370   3.233   5.825  16.630
 6634TIP3    H270371   3.281   5.694  16.570
 6635TIP3   OH270372   2.950   7.464  16.366
 6635TIP3    H170373   3.003   7.532  16.407
 6635TIP3    H270374   2.859   7.487  16.387
 6636TIP3   OH270375   2.163   5.736  17.893
 6636TIP3    H170376   2.074   5.726  17.929
 6636TIP3    H270377   2.208   5.793  17.955
 6637TIP3   OH270378   3.306   5.810  18.119
 6637TIP3    H170379   3.264   5.789  18.202
 6637TIP3    H270380   3.303   5.729  18.069
 6638TIP3   OH270381   4.979   6.738  16.878
 6638TIP3    H170382   4.963   6.829  16.853
 6638TIP3    H270383   4.920   6.688  16.821
 6639TIP3   OH270384   4.863   6.597  17.330
 6639TIP3    H170385   4.885   6.543  17.406
 6639TIP3    H270386   4.816   6.537  17.272
 6640TIP3   OH270387   4.077   6.551  17.430
 6640TIP3    H170388   4.085   6.467  17.474
 6640TIP3    H270389   4.142   6.607  17.473
 6641TIP3   OH270390   4.195   6.956  17.303
 6641TIP3    H170391   4.170   6.877  17.256
 6641TIP3    H270392   4.219   7.018  17.234
 6642TIP3   OH270393   3.848   6.337  16.749
 6642TIP3    H170394   3.819   6.425  16.772
 6642TIP3    H270395   3.796   6.314  16.672
 6643TIP3   OH270396   3.904   6.554  17.057
 6643TIP3    H170397   3.940   6.467  17.075
 6643TIP3    H270398   3.980   6.609  17.041
 6644TIP3   OH270399   4.700   6.820  17.364
 6644TIP3    H170400   4.749   6.745  17.329
 6644TIP3    H270401   4.768   6.881  17.394
 6645TIP3   OH270402   5.551   5.981  17.373
 6645TIP3    H170403   5.507   6.058  17.338
 6645TIP3    H270404   5.644   6.002  17.367
 6646TIP3   OH270405   4.995   6.248  17.315
 6646TIP3    H170406   5.034   6.164  17.337
 6646TIP3    H270407   5.002   6.254  17.219
 6647TIP3   OH270408   5.132   6.114  16.875
 6647TIP3    H170409   5.183   6.083  16.950
 6647TIP3    H270410   5.197   6.149  16.815
 6648TIP3   OH270411   4.006   6.300  17.179
 6648TIP3    H170412   4.093   6.302  17.218
 6648TIP3    H270413   4.019   6.268  17.090
 6649TIP3   OH270414   4.899   6.973  16.724
 6649TIP3    H170415   4.819   6.929  16.695
 6649TIP3    H270416   4.941   7.002  16.643
 6650TIP3   OH270417   4.453   6.733  17.441
 6650TIP3    H170418   4.401   6.802  17.483
 6650TIP3    H270419   4.531   6.778  17.407
 6651TIP3   OH270420   5.259   6.055  17.112
 6651TIP3    H170421   5.279   5.962  17.121
 6651TIP3    H270422   5.317   6.098  17.174
 6652TIP3   OH270423   4.303   6.941  17.558
 6652TIP3    H170424   4.271   6.949  17.468
 6652TIP3    H270425   4.247   7.000  17.608
 6653TIP3   OH270426   3.864   6.939  16.582
 6653TIP3    H170427   3.879   6.993  16.505
 6653TIP3    H270428   3.880   6.997  16.657
 6654TIP3   OH270429   5.316   5.924  17.504
 6654TIP3    H170430   5.238   5.950  17.454
 6654TIP3    H270431   5.388   5.934  17.442
 6655TIP3   OH270432   4.837   6.617  16.671
 6655TIP3    H170433   4.770   6.685  16.661
 6655TIP3    H270434   4.876   6.609  16.584
 6656TIP3   OH270435   4.824   6.453  16.316
 6656TIP3    H170436   4.910   6.466  16.357
 6656TIP3    H270437   4.842   6.441  16.223
 6657TIP3   OH270438   5.530   6.589  17.505
 6657TIP3    H170439   5.483   6.672  17.501
 6657TIP3    H270440   5.609   6.603  17.454
 6658TIP3   OH270441   5.190   6.626  16.740
 6658TIP3    H170442   5.125   6.662  16.801
 6658TIP3    H270443   5.245   6.570  16.795
 6659TIP3   OH270444   5.157   6.428  17.685
 6659TIP3    H170445   5.153   6.485  17.761
 6659TIP3    H270446   5.082   6.452  17.632
 6660TIP3   OH270447   4.330   6.646  16.944
 6660TIP3    H170448   4.281   6.638  16.863
 6660TIP3    H270449   4.406   6.589  16.932
 6661TIP3   OH270450   4.386   6.550  17.238
 6661TIP3    H170451   4.405   6.608  17.164
 6661TIP3    H270452   4.409   6.602  17.315
 6662TIP3   OH270453   4.521   6.964  17.742
 6662TIP3    H170454   4.544   7.054  17.719
 6662TIP3    H270455   4.448   6.942  17.685
 6663TIP3   OH270456   5.078   6.574  16.489
 6663TIP3    H170457   5.115   6.603  16.572
 6663TIP3    H270458   5.111   6.636  16.425
 6664TIP3   OH270459   4.146   6.594  17.746
 6664TIP3    H170460   4.158   6.671  17.802
 6664TIP3    H270461   4.054   6.595  17.723
 6665TIP3   OH270462   4.876   7.230  16.826
 6665TIP3    H170463   4.901   7.140  16.805
 6665TIP3    H270464   4.789   7.241  16.788
 6666TIP3   OH270465   4.237   7.303  17.899
 6666TIP3    H170466   4.244   7.263  17.813
 6666TIP3    H270467   4.150   7.278  17.931
 6667TIP3   OH270468   5.418   5.736  16.542
 6667TIP3    H170469   5.331   5.752  16.580
 6667TIP3    H270470   5.435   5.813  16.487
 6668TIP3   OH270471   4.228   6.593  16.692
 6668TIP3    H170472   4.182   6.665  16.649
 6668TIP3    H270473   4.190   6.514  16.654
 6669TIP3   OH270474   3.816   6.846  17.605
 6669TIP3    H170475   3.783   6.853  17.516
 6669TIP3    H270476   3.856   6.759  17.610
 6670TIP3   OH270477   3.830   7.102  17.255
 6670TIP3    H170478   3.875   7.139  17.179
 6670TIP3    H270479   3.883   7.129  17.330
 6671TIP3   OH270480   5.620   7.073  17.896
 6671TIP3    H170481   5.596   6.994  17.848
 6671TIP3    H270482   5.544   7.092  17.951
 6672TIP3   OH270483   5.378   6.314  17.839
 6672TIP3    H170484   5.311   6.360  17.790
 6672TIP3    H270485   5.376   6.224  17.805
 6673TIP3   OH270486   5.087   6.160  17.691
 6673TIP3    H170487   5.020   6.146  17.758
 6673TIP3    H270488   5.099   6.255  17.689
 6674TIP3   OH270489   4.776   6.000  16.307
 6674TIP3    H170490   4.821   6.052  16.373
 6674TIP3    H270491   4.844   5.978  16.244
 6675TIP3   OH270492   4.903   6.390  16.812
 6675TIP3    H170493   4.866   6.468  16.770
 6675TIP3    H270494   4.964   6.354  16.747
 6676TIP3   OH270495   4.784   6.346  17.941
 6676TIP3    H170496   4.743   6.261  17.958
 6676TIP3    H270497   4.872   6.338  17.979
 6677TIP3   OH270498   4.991   6.281  17.041
 6677TIP3    H170499   4.952   6.334  16.972
 6677TIP3    H270500   5.033   6.209  16.995
 6678TIP3   OH270501   4.132   6.344  17.612
 6678TIP3    H170502   4.145   6.412  17.677
 6678TIP3    H270503   4.202   6.281  17.628
 6679TIP3   OH270504   3.810   6.017  17.001
 6679TIP3    H170505   3.837   6.019  17.093
 6679TIP3    H270506   3.866   6.082  16.958
 6680TIP3   OH270507   4.923   6.413  17.529
 6680TIP3    H170508   4.951   6.353  17.460
 6680TIP3    H270509   4.843   6.374  17.564
 6681TIP3   OH270510   4.008   6.200  16.929
 6681TIP3    H170511   3.967   6.246  16.856
 6681TIP3    H270512   4.081   6.151  16.889
 6682TIP3   OH270513   4.365   6.182  16.665
 6682TIP3    H170514   4.453   6.210  16.688
 6682TIP3    H270515   4.340   6.237  16.591
 6683TIP3   OH270516   5.080   5.987  17.364
 6683TIP3    H170517   5.009   5.959  17.421
 6683TIP3    H270518   5.069   5.936  17.284
 6684TIP3   OH270519   4.330   6.360  16.453
 6684TIP3    H170520   4.249   6.403  16.425
 6684TIP3    H270521   4.397   6.397  16.395
 6685TIP3   OH270522   4.145   6.793  17.940
 6685TIP3    H170523   4.206   6.813  18.011
 6685TIP3    H270524   4.061   6.826  17.971
 6686TIP3   OH270525   4.759   6.369  17.212
 6686TIP3    H170526   4.774   6.364  17.118
 6686TIP3    H270527   4.827   6.314  17.250
 6687TIP3   OH270528   4.210   6.033  16.840
 6687TIP3    H170529   4.187   5.952  16.795
 6687TIP3    H270530   4.265   6.081  16.778
 6688TIP3   OH270531   4.660   6.832  16.661
 6688TIP3    H170532   4.606   6.783  16.598
 6688TIP3    H270533   4.598   6.860  16.728
 6689TIP3   OH270534   4.973   6.137  16.456
 6689TIP3    H170535   5.008   6.167  16.372
 6689TIP3    H270536   5.003   6.203  16.519
 6690TIP3   OH270537   4.847   6.873  17.728
 6690TIP3    H170538   4.835   6.837  17.816
 6690TIP3    H270539   4.763   6.914  17.707
 6691TIP3   OH270540   5.094   6.323  16.618
 6691TIP3    H170541   5.186   6.305  16.638
 6691TIP3    H270542   5.096   6.405  16.568
 6692TIP3   OH270543   4.158   6.715  17.157
 6692TIP3    H170544   4.212   6.708  17.079
 6692TIP3    H270545   4.185   6.643  17.213
 6693TIP3   OH270546   3.871   6.577  17.706
 6693TIP3    H170547   3.845   6.525  17.782
 6693TIP3    H270548   3.800   6.563  17.643
 6694TIP3   OH270549   4.585   6.533  17.963
 6694TIP3    H170550   4.516   6.507  17.902
 6694TIP3    H270551   4.658   6.474  17.944
 6695TIP3   OH270552   5.527   6.292  16.487
 6695TIP3    H170553   5.504   6.275  16.396
 6695TIP3    H270554   5.553   6.384  16.488
 6696TIP3   OH270555   5.553   6.839  17.757
 6696TIP3    H170556   5.476   6.831  17.700
 6696TIP3    H270557   5.627   6.830  17.697
 6697TIP3   OH270558   5.113   6.721  17.365
 6697TIP3    H170559   5.027   6.684  17.344
 6697TIP3    H270560   5.167   6.701  17.289
 6698TIP3   OH270561   4.044   6.506  16.464
 6698TIP3    H170562   4.058   6.600  16.475
 6698TIP3    H270563   3.949   6.497  16.455
 6699TIP3   OH270564   4.457   6.891  16.838
 6699TIP3    H170565   4.397   6.961  16.815
 6699TIP3    H270566   4.403   6.825  16.882
 6700TIP3   OH270567   4.403   7.351  16.828
 6700TIP3    H170568   4.351   7.275  16.802
 6700TIP3    H270569   4.432   7.332  16.917
 6701TIP3   OH270570   4.937   6.921  17.463
 6701TIP3    H170571   4.928   6.910  17.558
 6701TIP3    H270572   5.007   6.861  17.438
 6702TIP3   OH270573   4.034   6.071  17.680
 6702TIP3    H170574   4.019   6.148  17.625
 6702TIP3    H270575   4.128   6.056  17.674
 6703TIP3   OH270576   5.312   6.801  16.566
 6703TIP3    H170577   5.262   6.750  16.630
 6703TIP3    H270578   5.403   6.792  16.594
 6704TIP3   OH270579   4.473   7.124  16.402
 6704TIP3    H170580   4.516   7.048  16.442
 6704TIP3    H270581   4.483   7.194  16.467
 6705TIP3   OH270582   4.081   6.769  16.538
 6705TIP3    H170583   4.001   6.816  16.564
 6705TIP3    H270584   4.141   6.838  16.509
 6706TIP3   OH270585   4.916   5.972  17.586
 6706TIP3    H170586   4.988   6.034  17.597
 6706TIP3    H270587   4.878   5.962  17.673
 6707TIP3   OH270588   4.989   5.961  16.676
 6707TIP3    H170589   4.974   6.015  16.598
 6707TIP3    H270590   5.014   6.023  16.744
 6708TIP3   OH270591   4.517   7.338  16.567
 6708TIP3    H170592   4.520   7.425  16.529
 6708TIP3    H270593   4.473   7.350  16.651
 6709TIP3   OH270594   5.337   6.064  17.740
 6709TIP3    H170595   5.244   6.087  17.737
 6709TIP3    H270596   5.355   6.025  17.655
 6710TIP3   OH270597   5.239   6.376  17.141
 6710TIP3    H170598   5.158   6.371  17.090
 6710TIP3    H270599   5.213   6.347  17.229
 6711TIP3   OH270600   4.231   6.989  16.481
 6711TIP3    H170601   4.229   7.025  16.569
 6711TIP3    H270602   4.298   7.040  16.435
 6712TIP3   OH270603   4.101   5.814  17.140
 6712TIP3    H170604   4.094   5.831  17.046
 6712TIP3    H270605   4.087   5.720  17.148
 6713TIP3   OH270606   3.929   7.132  16.764
 6713TIP3    H170607   3.929   7.219  16.724
 6713TIP3    H270608   4.021   7.113  16.780
 6714TIP3   OH270609   4.428   7.390  18.079
 6714TIP3    H170610   4.491   7.318  18.071
 6714TIP3    H270611   4.358   7.368  18.017
 6715TIP3   OH270612   3.862   6.829  18.031
 6715TIP3    H170613   3.883   6.736  18.021
 6715TIP3    H270614   3.800   6.847  17.960
 6716TIP3   OH270615   4.528   6.811  17.985
 6716TIP3    H170616   4.525   6.855  17.899
 6716TIP3    H270617   4.548   6.720  17.965
 6717TIP3   OH270618   3.951   6.570  18.015
 6717TIP3    H170619   4.035   6.558  17.970
 6717TIP3    H270620   3.968   6.545  18.105
 6718TIP3   OH270621   4.497   6.662  16.517
 6718TIP3    H170622   4.417   6.631  16.559
 6718TIP3    H270623   4.513   6.599  16.447
 6719TIP3   OH270624   4.404   6.474  17.766
 6719TIP3    H170625   4.324   6.524  17.748
 6719TIP3    H270626   4.462   6.495  17.693
 6720TIP3   OH270627   4.546   6.483  16.305
 6720TIP3    H170628   4.543   6.471  16.210
 6720TIP3    H270629   4.639   6.475  16.327
 6721TIP3   OH270630   5.004   6.743  18.039
 6721TIP3    H170631   5.040   6.706  18.119
 6721TIP3    H270632   4.910   6.725  18.044
 6722TIP3   OH270633   4.598   6.545  17.579
 6722TIP3    H170634   4.686   6.583  17.572
 6722TIP3    H270635   4.543   6.603  17.526
 6723TIP3   OH270636   5.022   6.309  18.086
 6723TIP3    H170637   5.022   6.226  18.133
 6723TIP3    H270638   5.108   6.313  18.044
 6724TIP3   OH270639   5.185   6.566  17.920
 6724TIP3    H170640   5.126   6.637  17.944
 6724TIP3    H270641   5.272   6.605  17.925
 6725TIP3   OH270642   4.686   6.089  18.017
 6725TIP3    H170643   4.690   6.069  18.111
 6725TIP3    H270644   4.614   6.035  17.985
 6726TIP3   OH270645   4.910   6.048  17.865
 6726TIP3    H170646   4.831   6.063  17.917
 6726TIP3    H270647   4.973   6.011  17.927
 6727TIP3   OH270648   5.086   5.949  18.055
 6727TIP3    H170649   5.082   5.854  18.057
 6727TIP3    H270650   5.047   5.976  18.139
 6728TIP3   OH270651   4.545   7.583  16.422
 6728TIP3    H170652   4.607   7.654  16.440
 6728TIP3    H270653   4.550   7.571  16.327
 6729TIP3   OH270654   5.656   7.412  17.385
 6729TIP3    H170655   5.651   7.493  17.436
 6729TIP3    H270656   5.737   7.420  17.335
 6730TIP3   OH270657   5.568   6.747  16.657
 6730TIP3    H170658   5.643   6.807  16.659
 6730TIP3    H270659   5.582   6.689  16.731
 6731TIP3   OH270660   5.635   6.880  17.312
 6731TIP3    H170661   5.597   6.884  17.224
 6731TIP3    H270662   5.649   6.972  17.336
 6732TIP3   OH270663   5.597   6.554  16.454
 6732TIP3    H170664   5.575   6.583  16.365
 6732TIP3    H270665   5.573   6.627  16.510
 6733TIP3   OH270666   5.347   6.450  16.888
 6733TIP3    H170667   5.356   6.369  16.836
 6733TIP3    H270668   5.324   6.420  16.976
 6734TIP3   OH270669   3.834   6.606  17.316
 6734TIP3    H170670   3.847   6.597  17.222
 6734TIP3    H270671   3.921   6.594  17.354
 6735TIP3   OH270672   5.448   6.661  17.950
 6735TIP3    H170673   5.501   6.581  17.955
 6735TIP3    H270674   5.493   6.715  17.885
 6736TIP3   OH270675   5.574   6.418  17.991
 6736TIP3    H170676   5.512   6.375  17.932
 6736TIP3    H270677   5.659   6.383  17.965
 6737TIP3   OH270678   5.305   6.097  16.281
 6737TIP3    H170679   5.375   6.058  16.332
 6737TIP3    H270680   5.281   6.030  16.218
 6738TIP3   OH270681   5.355   6.226  16.707
 6738TIP3    H170682   5.375   6.134  16.723
 6738TIP3    H270683   5.412   6.252  16.635
 6739TIP3   OH270684   5.421   6.210  17.291
 6739TIP3    H170685   5.406   6.276  17.223
 6739TIP3    H270686   5.405   6.255  17.373
 6740TIP3   OH270687   5.370   6.365  17.508
 6740TIP3    H170688   5.296   6.387  17.565
 6740TIP3    H270689   5.427   6.441  17.513
 6741TIP3   OH270690   3.832   6.150  17.855
 6741TIP3    H170691   3.907   6.114  17.808
 6741TIP3    H270692   3.787   6.074  17.892
 6742TIP3   OH270693   5.641   5.745  18.075
 6742TIP3    H170694   5.714   5.689  18.046
 6742TIP3    H270695   5.631   5.809  18.005
 6743TIP3   OH270696   5.391   5.959  16.769
 6743TIP3    H170697   5.426   5.918  16.848
 6743TIP3    H270698   5.323   5.898  16.739
 6744TIP3   OH270699   3.939   6.021  17.248
 6744TIP3    H170700   4.003   5.956  17.217
 6744TIP3    H270701   3.984   6.105  17.239
 6745TIP3   OH270702   3.757   6.321  17.306
 6745TIP3    H170703   3.838   6.300  17.259
 6745TIP3    H270704   3.763   6.414  17.325
 6746TIP3   OH270705   5.546   5.927  17.896
 6746TIP3    H170706   5.490   6.004  17.899
 6746TIP3    H270707   5.522   5.884  17.814
 6747TIP3   OH270708   5.511   5.954  16.394
 6747TIP3    H170709   5.520   5.884  16.329
 6747TIP3    H270710   5.600   5.986  16.408
 6748TIP3   OH270711   3.833   5.920  16.632
 6748TIP3    H170712   3.744   5.911  16.666
 6748TIP3    H270713   3.829   5.997  16.575
 6749TIP3   OH270714   3.710   5.778  17.528
 6749TIP3    H170715   3.801   5.759  17.551
 6749TIP3    H270716   3.712   5.867  17.494
 6750TIP3   OH270717   5.426   5.769  17.699
 6750TIP3    H170718   5.377   5.828  17.642
 6750TIP3    H270719   5.398   5.681  17.672
 6751TIP3   OH270720   4.055   7.560  17.462
 6751TIP3    H170721   4.035   7.625  17.394
 6751TIP3    H270722   4.057   7.610  17.543
 6752TIP3   OH270723   4.310   7.466  17.521
 6752TIP3    H170724   4.217   7.482  17.503
 6752TIP3    H270725   4.356   7.516  17.453
 6753TIP3   OH270726   5.325   5.790  17.124
 6753TIP3    H170727   5.409   5.805  17.080
 6753TIP3    H270728   5.295   5.707  17.090
 6754TIP3   OH270729   5.551   5.851  16.974
 6754TIP3    H170730   5.592   5.768  16.946
 6754TIP3    H270731   5.612   5.918  16.943
 6755TIP3   OH270732   4.046   5.743  16.877
 6755TIP3    H170733   3.960   5.702  16.892
 6755TIP3    H270734   4.057   5.740  16.782
 6756TIP3   OH270735   4.022   5.723  16.604
 6756TIP3    H170736   4.092   5.755  16.548
 6756TIP3    H270737   3.957   5.793  16.603
 6757TIP3   OH270738   5.191   5.780  16.690
 6757TIP3    H170739   5.118   5.842  16.681
 6757TIP3    H270740   5.149   5.697  16.712
 6758TIP3   OH270741   5.104   5.665  18.027
 6758TIP3    H170742   5.100   5.582  18.074
 6758TIP3    H270743   5.197   5.678  18.011
 6759TIP3   OH270744   6.579   6.844  17.406
 6759TIP3    H170745   6.595   6.830  17.313
 6759TIP3    H270746   6.647   6.906  17.432
 6760TIP3   OH270747   6.797   6.248  17.217
 6760TIP3    H170748   6.852   6.173  17.194
 6760TIP3    H270749   6.848   6.324  17.190
 6761TIP3   OH270750   6.205   6.137  17.048
 6761TIP3    H170751   6.230   6.195  16.976
 6761TIP3    H270752   6.163   6.062  17.005
 6762TIP3   OH270753   5.789   6.909  16.648
 6762TIP3    H170754   5.782   6.958  16.567
 6762TIP3    H270755   5.882   6.914  16.671
 6763TIP3   OH270756   6.450   5.648  17.230
 6763TIP3    H170757   6.410   5.561  17.232
 6763TIP3    H270758   6.379   5.708  17.251
 6764TIP3   OH270759   7.471   6.549  17.522
 6764TIP3    H170760   7.415   6.607  17.471
 6764TIP3    H270761   7.529   6.510  17.458
 6765TIP3   OH270762   7.030   6.551  16.818
 6765TIP3    H170763   6.946   6.572  16.858
 6765TIP3    H270764   7.017   6.465  16.779
 6766TIP3   OH270765   6.778   7.015  17.498
 6766TIP3    H170766   6.722   7.063  17.559
 6766TIP3    H270767   6.860   7.004  17.546
 6767TIP3   OH270768   6.374   7.029  17.801
 6767TIP3    H170769   6.316   7.088  17.848
 6767TIP3    H270770   6.328   7.009  17.719
 6768TIP3   OH270771   7.062   6.574  16.523
 6768TIP3    H170772   7.073   6.592  16.616
 6768TIP3    H270773   6.994   6.635  16.494
 6769TIP3   OH270774   6.769   7.238  16.872
 6769TIP3    H170775   6.710   7.313  16.866
 6769TIP3    H270776   6.742   7.181  16.800
 6770TIP3   OH270777   6.167   7.198  17.900
 6770TIP3    H170778   6.181   7.226  17.810
 6770TIP3    H270779   6.074   7.179  17.906
 6771TIP3   OH270780   5.751   6.826  17.564
 6771TIP3    H170781   5.709   6.865  17.487
 6771TIP3    H270782   5.788   6.744  17.531
 6772TIP3   OH270783   5.694   7.137  17.382
 6772TIP3    H170784   5.789   7.154  17.386
 6772TIP3    H270785   5.654   7.224  17.385
 6773TIP3   OH270786   6.603   7.137  17.678
 6773TIP3    H170787   6.627   7.210  17.735
 6773TIP3    H270788   6.530   7.095  17.723
 6774TIP3   OH270789   6.690   7.507  16.701
 6774TIP3    H170790   6.631   7.503  16.625
 6774TIP3    H270791   6.662   7.585  16.749
 6775TIP3   OH270792   5.996   7.388  16.859
 6775TIP3    H170793   6.000   7.332  16.937
 6775TIP3    H270794   5.923   7.352  16.808
 6776TIP3   OH270795   6.945   7.417  16.752
 6776TIP3    H170796   6.859   7.455  16.731
 6776TIP3    H270797   6.924   7.336  16.798
 6777TIP3   OH270798   5.914   7.040  17.663
 6777TIP3    H170799   5.895   7.051  17.756
 6777TIP3    H270800   5.858   6.966  17.636
 6778TIP3   OH270801   6.225   5.806  17.291
 6778TIP3    H170802   6.141   5.791  17.247
 6778TIP3    H270803   6.243   5.899  17.278
 6779TIP3   OH270804   6.634   5.694  17.643
 6779TIP3    H170805   6.648   5.663  17.732
 6779TIP3    H270806   6.546   5.734  17.645
 6780TIP3   OH270807   6.758   6.404  16.758
 6780TIP3    H170808   6.687   6.342  16.737
 6780TIP3    H270809   6.835   6.368  16.713
 6781TIP3   OH270810   5.729   6.106  16.500
 6781TIP3    H170811   5.807   6.151  16.468
 6781TIP3    H270812   5.661   6.172  16.501
 6782TIP3   OH270813   6.493   6.076  16.975
 6782TIP3    H170814   6.407   6.050  17.008
 6782TIP3    H270815   6.517   6.153  17.028
 6783TIP3   OH270816   6.113   5.937  16.888
 6783TIP3    H170817   6.042   5.874  16.897
 6783TIP3    H270818   6.155   5.914  16.805
 6784TIP3   OH270819   7.247   6.674  17.405
 6784TIP3    H170820   7.230   6.663  17.312
 6784TIP3    H270821   7.204   6.600  17.447
 6785TIP3   OH270822   6.856   6.083  16.414
 6785TIP3    H170823   6.775   6.084  16.362
 6785TIP3    H270824   6.924   6.109  16.352
 6786TIP3   OH270825   7.000   6.327  16.657
 6786TIP3    H170826   7.067   6.259  16.661
 6786TIP3    H270827   7.026   6.381  16.582
 6787TIP3   OH270828   6.703   6.859  16.612
 6787TIP3    H170829   6.698   6.954  16.622
 6787TIP3    H270830   6.698   6.845  16.517
 6788TIP3   OH270831   6.204   7.106  16.906
 6788TIP3    H170832   6.244   7.183  16.866
 6788TIP3    H270833   6.198   7.043  16.834
 6789TIP3   OH270834   6.467   7.291  17.480
 6789TIP3    H170835   6.530   7.357  17.450
 6789TIP3    H270836   6.518   7.233  17.536
 6790TIP3   OH270837   6.268   7.363  16.807
 6790TIP3    H170838   6.173   7.377  16.812
 6790TIP3    H270839   6.305   7.446  16.834
 6791TIP3   OH270840   5.970   7.262  17.512
 6791TIP3    H170841   5.949   7.184  17.564
 6791TIP3    H270842   5.934   7.334  17.563
 6792TIP3   OH270843   6.353   7.048  16.429
 6792TIP3    H170844   6.345   6.968  16.481
 6792TIP3    H270845   6.373   7.116  16.492
 6793TIP3   OH270846   6.824   6.053  16.691
 6793TIP3    H170847   6.829   6.052  16.596
 6793TIP3    H270848   6.909   6.088  16.720
 6794TIP3   OH270849   6.677   7.140  16.621
 6794TIP3    H170850   6.599   7.191  16.598
 6794TIP3    H270851   6.743   7.167  16.556
 6795TIP3   OH270852   6.587   6.189  16.736
 6795TIP3    H170853   6.666   6.137  16.722
 6795TIP3    H270854   6.547   6.150  16.814
 6796TIP3   OH270855   6.639   5.890  16.828
 6796TIP3    H170856   6.602   5.951  16.891
 6796TIP3    H270857   6.710   5.938  16.786
 6797TIP3   OH270858   6.417   7.274  16.589
 6797TIP3    H170859   6.412   7.357  16.541
 6797TIP3    H270860   6.367   7.290  16.669
 6798TIP3   OH270861   5.980   5.769  17.181
 6798TIP3    H170862   5.962   5.772  17.087
 6798TIP3    H270863   5.924   5.699  17.214
 6799TIP3   OH270864   5.830   7.408  18.024
 6799TIP3    H170865   5.901   7.422  18.086
 6799TIP3    H270866   5.850   7.324  17.983
 6800TIP3   OH270867   6.266   7.316  18.135
 6800TIP3    H170868   6.279   7.241  18.193
 6800TIP3    H270869   6.241   7.278  18.051
 6801TIP3   OH270870   6.280   6.037  17.605
 6801TIP3    H170871   6.308   6.126  17.584
 6801TIP3    H270872   6.185   6.042  17.610
 6802TIP3   OH270873   7.039   6.290  18.117
 6802TIP3    H170874   6.983   6.264  18.190
 6802TIP3    H270875   7.057   6.382  18.132
 6803TIP3   OH270876   6.370   5.777  17.666
 6803TIP3    H170877   6.347   5.867  17.644
 6803TIP3    H270878   6.306   5.723  17.619
 6804TIP3   OH270879   6.421   5.691  17.928
 6804TIP3    H170880   6.495   5.632  17.919
 6804TIP3    H270881   6.399   5.717  17.839
 6805TIP3   OH270882   6.427   5.856  18.153
 6805TIP3    H170883   6.438   5.802  18.074
 6805TIP3    H270884   6.336   5.885  18.150
 6806TIP3   OH270885   6.417   7.537  16.474
 6806TIP3    H170886   6.495   7.509  16.426
 6806TIP3    H270887   6.351   7.553  16.406
 6807TIP3   OH270888   5.805   7.038  16.400
 6807TIP3    H170889   5.895   7.040  16.430
 6807TIP3    H270890   5.811   7.041  16.305
 6808TIP3   OH270891   5.620   7.533  16.897
 6808TIP3    H170892   5.647   7.494  16.813
 6808TIP3    H270893   5.568   7.465  16.939
 6809TIP3   OH270894   5.778   6.620  17.366
 6809TIP3    H170895   5.749   6.696  17.315
 6809TIP3    H270896   5.849   6.583  17.313
 6810TIP3   OH270897   7.346   6.632  17.849
 6810TIP3    H170898   7.388   6.547  17.860
 6810TIP3    H270899   7.371   6.660  17.761
 6811TIP3   OH270900   7.487   6.393  17.847
 6811TIP3    H170901   7.488   6.322  17.911
 6811TIP3    H270902   7.531   6.355  17.770
 6812TIP3   OH270903   7.192   6.135  16.676
 6812TIP3    H170904   7.247   6.107  16.750
 6812TIP3    H270905   7.244   6.115  16.599
 6813TIP3   OH270906   7.291   6.281  17.276
 6813TIP3    H170907   7.251   6.331  17.205
 6813TIP3    H270908   7.256   6.320  17.356
 6814TIP3   OH270909   7.228   6.413  17.516
 6814TIP3    H170910   7.194   6.365  17.592
 6814TIP3    H270911   7.316   6.438  17.541
 6815TIP3   OH270912   5.667   5.929  16.700
 6815TIP3    H170913   5.571   5.929  16.701
 6815TIP3    H270914   5.691   5.997  16.638
 6816TIP3   OH270915   5.644   5.755  17.523
 6816TIP3    H170916   5.584   5.765  17.596
 6816TIP3    H270917   5.620   5.826  17.463
 6817TIP3   OH270918   5.883   7.137  17.942
 6817TIP3    H170919   5.791   7.125  17.916
 6817TIP3    H270920   5.889   7.097  18.029
 6818TIP3   OH270921   6.227   7.241  17.634
 6818TIP3    H170922   6.150   7.249  17.577
 6818TIP3    H270923   6.299   7.273  17.580
 6819TIP3   OH270924   6.691   7.363  17.810
 6819TIP3    H170925   6.762   7.384  17.871
 6819TIP3    H270926   6.720   7.401  17.727
 6820TIP3   OH270927   5.873   7.486  17.637
 6820TIP3    H170928   5.803   7.537  17.596
 6820TIP3    H270929   5.894   7.535  17.717
 6821TIP3   OH270930   5.915   7.390  17.273
 6821TIP3    H170931   5.944   7.352  17.356
 6821TIP3    H270932   5.958   7.337  17.206
 6822TIP3   OH270933   6.076   7.250  17.100
 6822TIP3    H170934   6.110   7.184  17.040
 6822TIP3    H270935   6.149   7.267  17.160
 6823TIP3   OH270936   6.308   7.269  17.250
 6823TIP3    H170937   6.376   7.233  17.194
 6823TIP3    H270938   6.351   7.281  17.335
 6824TIP3   OH270939   5.928   5.731  16.912
 6824TIP3    H170940   5.837   5.712  16.890
 6824TIP3    H270941   5.973   5.647  16.900
 6825TIP3   OH270942   5.824   5.749  16.563
 6825TIP3    H170943   5.893   5.806  16.529
 6825TIP3    H270944   5.772   5.806  16.621
 6826TIP3   OH270945   6.457   5.687  16.943
 6826TIP3    H170946   6.521   5.749  16.908
 6826TIP3    H270947   6.473   5.687  17.038
 6827TIP3   OH270948   5.750   7.414  16.677
 6827TIP3    H170949   5.718   7.353  16.612
 6827TIP3    H270950   5.768   7.495  16.628
 6828TIP3   OH270951   6.490   5.926  16.587
 6828TIP3    H170952   6.531   5.908  16.672
 6828TIP3    H270953   6.488   6.022  16.582
 6829TIP3   OH270954   6.649   7.405  16.407
 6829TIP3    H170955   6.735   7.373  16.433
 6829TIP3    H270956   6.608   7.331  16.362
 6830TIP3   OH270957   5.960   5.733  17.838
 6830TIP3    H170958   5.911   5.677  17.898
 6830TIP3    H270959   6.035   5.762  17.889
 6831TIP3   OH270960   6.164   5.738  18.034
 6831TIP3    H170961   6.245   5.699  18.000
 6831TIP3    H270962   6.131   5.675  18.097
 6832TIP3   OH270963   6.053   7.391  16.320
 6832TIP3    H170964   5.961   7.400  16.344
 6832TIP3    H270965   6.074   7.471  16.272
 6833TIP3   OH270966   7.967   7.005  17.293
 6833TIP3    H170967   7.944   6.924  17.248
 6833TIP3    H270968   8.057   6.993  17.322
 6834TIP3   OH270969   7.543   6.328  16.832
 6834TIP3    H170970   7.609   6.387  16.869
 6834TIP3    H270971   7.523   6.365  16.746
 6835TIP3   OH270972   8.082   6.084  17.212
 6835TIP3    H170973   8.113   6.173  17.202
 6835TIP3    H270974   8.076   6.050  17.123
 6836TIP3   OH270975   8.023   6.056  17.476
 6836TIP3    H170976   8.037   6.042  17.383
 6836TIP3    H270977   8.015   6.151  17.485
 6837TIP3   OH270978   8.014   6.948  17.629
 6837TIP3    H170979   8.069   7.024  17.651
 6837TIP3    H270980   7.937   6.986  17.588
 6838TIP3   OH270981   7.653   6.880  16.593
 6838TIP3    H170982   7.630   6.925  16.511
 6838TIP3    H270983   7.667   6.951  16.656
 6839TIP3   OH270984   8.016   6.653  16.938
 6839TIP3    H170985   7.993   6.610  16.855
 6839TIP3    H270986   8.102   6.691  16.922
 6840TIP3   OH270987   7.933   6.588  17.748
 6840TIP3    H170988   7.987   6.658  17.712
 6840TIP3    H270989   7.845   6.607  17.715
 6841TIP3   OH270990   8.079   7.184  17.934
 6841TIP3    H170991   8.092   7.187  17.839
 6841TIP3    H270992   7.985   7.170  17.945
 6842TIP3   OH270993   7.994   6.536  16.671
 6842TIP3    H170994   7.961   6.616  16.631
 6842TIP3    H270995   7.988   6.470  16.602
 6843TIP3   OH270996   7.600   6.839  17.555
 6843TIP3    H170997   7.643   6.818  17.473
 6843TIP3    H270998   7.614   6.762  17.610
 6844TIP3   OH270999   8.090   7.279  16.786
 6844TIP3    H171000   8.030   7.323  16.847
 6844TIP3    H271001   8.034   7.222  16.734
 6845TIP3   OH271002   7.699   6.985  17.774
 6845TIP3    H171003   7.729   6.907  17.820
 6845TIP3    H271004   7.672   6.954  17.688
 6846TIP3   OH271005   8.089   5.794  17.271
 6846TIP3    H171006   8.013   5.785  17.214
 6846TIP3    H271007   8.134   5.872  17.239
 6847TIP3   OH271008   8.007   6.332  17.466
 6847TIP3    H171009   8.046   6.398  17.524
 6847TIP3    H271010   8.048   6.347  17.381
 6848TIP3   OH271011   8.098   6.322  16.962
 6848TIP3    H171012   8.022   6.304  16.907
 6848TIP3    H271013   0.016   6.366  16.904
 6849TIP3   OH271014   0.049   6.374  16.374
 6849TIP3    H171015   0.047   6.304  16.309
 6849TIP3    H271016   0.091   6.448  16.329
 6850TIP3   OH271017   7.785   6.808  17.973
 6850TIP3    H171018   7.861   6.829  18.027
 6850TIP3    H271019   7.782   6.712  17.971
 6851TIP3   OH271020   7.946   6.752  17.185
 6851TIP3    H171021   7.957   6.732  17.092
 6851TIP3    H271022   7.990   6.680  17.231
 6852TIP3   OH271023   7.654   6.611  17.714
 6852TIP3    H171024   7.637   6.567  17.798
 6852TIP3    H271025   7.595   6.569  17.652
 6853TIP3   OH271026   7.707   6.666  16.332
 6853TIP3    H171027   7.774   6.672  16.399
 6853TIP3    H271028   7.627   6.699  16.374
 6854TIP3   OH271029   7.885   6.750  16.533
 6854TIP3    H171030   7.807   6.790  16.573
 6854TIP3    H271031   7.930   6.823  16.491
 6855TIP3   OH271032   8.086   6.003  16.575
 6855TIP3    H171033   8.121   6.091  16.593
 6855TIP3    H271034   0.017   5.955  16.538
 6856TIP3   OH271035   7.983   6.964  16.374
 6856TIP3    H171036   7.995   7.059  16.373
 6856TIP3    H271037   8.067   6.929  16.345
 6857TIP3   OH271038   7.860   5.766  17.114
 6857TIP3    H171039   7.854   5.707  17.039
 6857TIP3    H271040   7.785   5.743  17.169
 6858TIP3   OH271041   7.690   7.118  16.725
 6858TIP3    H171042   7.647   7.182  16.669
 6858TIP3    H271043   7.652   7.133  16.812
 6859TIP3   OH271044   7.669   7.372  18.008
 6859TIP3    H171045   7.660   7.361  18.103
 6859TIP3    H271046   7.709   7.290  17.979
 6860TIP3   OH271047   7.814   6.531  17.990
 6860TIP3    H171048   7.863   6.535  17.907
 6860TIP3    H271049   7.844   6.451  18.031
 6861TIP3   OH271050   7.971   6.275  18.093
 6861TIP3    H171051   7.908   6.204  18.094
 6861TIP3    H271052   8.042   6.244  18.037
 6862TIP3   OH271053   7.699   7.022  16.352
 6862TIP3    H171054   7.793   7.006  16.363
 6862TIP3    H271055   7.681   7.000  16.261
 6863TIP3   OH271056   7.461   7.275  17.031
 6863TIP3    H171057   7.435   7.241  17.116
 6863TIP3    H271058   7.492   7.364  17.049
 6864TIP3   OH271059   7.806   7.140  17.964
 6864TIP3    H171060   7.773   7.103  17.881
 6864TIP3    H271061   7.805   7.066  18.025
 6865TIP3   OH271062   8.141   7.193  17.667
 6865TIP3    H171063   8.090   7.248  17.608
 6865TIP3    H271064   0.084   7.190  17.628
 6866TIP3   OH271065   7.760   7.408  17.549
 6866TIP3    H171066   7.706   7.471  17.502
 6866TIP3    H271067   7.758   7.437  17.640
 6867TIP3   OH271068   8.032   7.398  17.510
 6867TIP3    H171069   7.937   7.401  17.520
 6867TIP3    H271070   8.046   7.354  17.426
 6868TIP3   OH271071   7.851   7.144  17.517
 6868TIP3    H171072   7.804   7.227  17.517
 6868TIP3    H271073   7.862   7.122  17.425
 6869TIP3   OH271074   8.033   7.267  17.265
 6869TIP3    H171075   8.001   7.176  17.266
 6869TIP3    H271076   8.108   7.265  17.205
 6870TIP3   OH271077   7.921   5.845  16.405
 6870TIP3    H171078   7.958   5.887  16.327
 6870TIP3    H271079   7.958   5.894  16.478
 6871TIP3   OH271080   7.978   5.774  18.069
 6871TIP3    H171081   7.998   5.778  17.975
 6871TIP3    H271082   7.933   5.690  18.080
 6872TIP3   OH271083   8.046   7.232  16.368
 6872TIP3    H171084   7.990   7.304  16.396
 6872TIP3    H271085   8.133   7.255  16.400
 6873TIP3   OH271086   1.730   7.944  17.295
 6873TIP3    H171087   1.794   7.886  17.338
 6873TIP3    H271088   1.742   7.927  17.201
 6874TIP3   OH271089   0.632   0.003  17.003
 6874TIP3    H171090   0.608   8.105  16.921
 6874TIP3    H271091   0.581   8.102  17.070
 6875TIP3   OH271092   1.371   8.123  16.958
 6875TIP3    H171093   1.403   8.045  17.002
 6875TIP3    H271094   1.429   8.133  16.882
 6876TIP3   OH271095   1.841   7.864  17.564
 6876TIP3    H171096   1.849   7.958  17.547
 6876TIP3    H271097   1.754   7.855  17.605
 6877TIP3   OH271098   0.520   7.834  17.455
 6877TIP3    H171099   0.497   7.924  17.434
 6877TIP3    H271100   0.444   7.799  17.502
 6878TIP3   OH271101   1.472   7.883  17.063
 6878TIP3    H171102   1.405   7.814  17.062
 6878TIP3    H271103   1.551   7.840  17.030
 6879TIP3   OH271104   0.487   8.097  17.389
 6879TIP3    H171105   0.541   0.031  17.374
 6879TIP3    H271106   0.470   8.062  17.302
 6880TIP3   OH271107   1.485   7.788  17.424
 6880TIP3    H171108   1.394   7.808  17.404
 6880TIP3    H271109   1.536   7.837  17.359
 6881TIP3   OH271110   0.849   7.588  17.226
 6881TIP3    H171111   0.775   7.528  17.220
 6881TIP3    H271112   0.810   7.675  17.232
 6882TIP3   OH271113   0.660   7.795  17.221
 6882TIP3    H171114   0.626   7.712  17.188
 6882TIP3    H271115   0.620   7.805  17.307
 6883TIP3   OH271116   1.057   7.591  17.616
 6883TIP3    H171117   1.103   7.552  17.690
 6883TIP3    H271118   0.965   7.595  17.644
 6884TIP3   OH271119   1.382   8.065  17.736
 6884TIP3    H171120   1.319   8.016  17.789
 6884TIP3    H271121   1.329   8.132  17.692
 6885TIP3   OH271122   1.053   7.822  16.355
 6885TIP3    H171123   0.975   7.839  16.407
 6885TIP3    H271124   1.089   7.740  16.391
 6886TIP3   OH271125   0.224   7.912  17.308
 6886TIP3    H171126   0.146   7.933  17.258
 6886TIP3    H271127   0.273   7.852  17.251
 6887TIP3   OH271128   0.326   8.055  16.424
 6887TIP3    H171129   0.294   8.142  16.445
 6887TIP3    H271130   0.401   8.042  16.482
 6888TIP3   OH271131   0.867   7.912  17.011
 6888TIP3    H171132   0.778   7.905  17.048
 6888TIP3    H271133   0.922   7.866  17.074
 6889TIP3   OH271134   0.488   8.046  16.792
 6889TIP3    H171135   0.399   8.044  16.755
 6889TIP3    H271136   0.506   7.955  16.814
 6890TIP3   OH271137   0.678   8.114  16.587
 6890TIP3    H171138   0.765   8.097  16.623
 6890TIP3    H271139   0.626   8.143  16.661
 6891TIP3   OH271140   1.231   7.856  17.355
 6891TIP3    H171141   1.183   7.935  17.380
 6891TIP3    H271142   1.176   7.815  17.287
 6892TIP3   OH271143   0.527   7.792  16.881
 6892TIP3    H171144   0.463   7.720  16.880
 6892TIP3    H271145   0.612   7.748  16.884
 6893TIP3   OH271146   0.834   0.030  17.468
 6893TIP3    H171147   0.765   0.079  17.424
 6893TIP3    H271148   0.805   0.023  17.559
 6894TIP3   OH271149   1.206   8.019  16.501
 6894TIP3    H171150   1.139   7.963  16.461
 6894TIP3    H271151   1.284   8.005  16.447
 6895TIP3   OH271152   0.392   8.060  17.639
 6895TIP3    H171153   0.415   8.080  17.549
 6895TIP3    H271154   0.342   7.979  17.634
 6896TIP3   OH271155   1.061   7.873  17.631
 6896TIP3    H171156   1.126   7.879  17.701
 6896TIP3    H271157   1.069   7.783  17.600
 6897TIP3   OH271158   1.166   8.030  16.776
 6897TIP3    H171159   1.197   8.034  16.685
 6897TIP3    H271160   1.238   8.067  16.827
 6898TIP3   OH271161   0.894   8.052  16.772
 6898TIP3    H171162   0.990   8.059  16.769
 6898TIP3    H271163   0.875   8.013  16.857
 6899TIP3   OH271164   0.955   8.099  17.737
 6899TIP3    H171165   1.033   0.006  17.713
 6899TIP3    H271166   0.966   8.016  17.692
 6900TIP3   OH271167   1.066   7.782  16.848
 6900TIP3    H171168   0.987   7.802  16.897
 6900TIP3    H271169   1.107   7.868  16.832
 6901TIP3   OH271170   0.608   7.851  16.548
 6901TIP3    H171171   0.617   7.946  16.559
 6901TIP3    H271172   0.698   7.819  16.546
 6902TIP3   OH271173   1.585   7.886  17.666
 6902TIP3    H171174   1.522   7.950  17.699
 6902TIP3    H271175   1.541   7.846  17.591
 6903TIP3   OH271176   0.371   7.731  17.150
 6903TIP3    H171177   0.364   7.686  17.066
 6903TIP3    H271178   0.421   7.671  17.206
 6904TIP3   OH271179   0.594   7.975  17.816
 6904TIP3    H171180   0.663   7.938  17.761
 6904TIP3    H271181   0.540   8.027  17.757
 6905TIP3   OH271182   0.745   7.897  17.593
 6905TIP3    H171183   0.810   7.935  17.534
 6905TIP3    H271184   0.670   7.877  17.536
 6906TIP3   OH271185   0.786   7.630  17.659
 6906TIP3    H171186   0.770   7.719  17.628
 6906TIP3    H271187   0.723   7.576  17.612
 6907TIP3   OH271188   0.929   7.960  17.977
 6907TIP3    H171189   0.848   7.974  18.026
 6907TIP3    H271190   0.914   8.002  17.893
 6908TIP3   OH271191   1.191   7.919  17.880
 6908TIP3    H171192   1.102   7.935  17.913
 6908TIP3    H271193   1.237   7.880  17.955
 6909TIP3   OH271194   1.287   7.798  18.115
 6909TIP3    H171195   1.300   7.707  18.089
 6909TIP3    H271196   1.211   7.796  18.173
 6910TIP3   OH271197   0.428   7.995  18.028
 6910TIP3    H171198   0.476   7.973  17.948
 6910TIP3    H271199   0.408   7.911  18.068
 6911TIP3   OH271200   0.775   7.600  17.929
 6911TIP3    H171201   0.833   7.524  17.926
 6911TIP3    H271202   0.768   7.629  17.837
 6912TIP3   OH271203   0.836   7.725  18.169
 6912TIP3    H171204   0.831   7.678  18.086
 6912TIP3    H271205   0.799   7.811  18.149
 6913TIP3   OH271206   1.565   7.762  16.436
 6913TIP3    H171207   1.656   7.772  16.409
 6913TIP3    H271208   1.562   7.798  16.525
 6914TIP3   OH271209   1.509   8.131  16.721
 6914TIP3    H171210   1.537   8.042  16.696
 6914TIP3    H271211   1.507   0.036  16.639
 6915TIP3   OH271212   1.712   0.061  17.378
 6915TIP3    H171213   1.714   8.119  17.337
 6915TIP3    H271214   1.638   0.057  17.438
 6916TIP3   OH271215   0.207   0.033  18.007
 6916TIP3    H171216   0.274   8.109  18.011
 6916TIP3    H271217   0.130   8.132  17.971
 6917TIP3   OH271218   1.560   7.841  16.706
 6917TIP3    H171219   1.600   7.825  16.792
 6917TIP3    H271220   1.481   7.787  16.706
 6918TIP3   OH271221   0.439   8.007  17.136
 6918TIP3    H171222   0.477   7.919  17.134
 6918TIP3    H271223   0.353   7.997  17.095
 6919TIP3   OH271224   1.829   7.794  16.405
 6919TIP3    H171225   1.855   7.713  16.449
 6919TIP3    H271226   1.893   7.859  16.434
 6920TIP3   OH271227   0.224   8.066  16.727
 6920TIP3    H171228   0.157   8.123  16.765
 6920TIP3    H271229   0.191   7.978  16.743
 6921TIP3   OH271230   0.265   7.816  17.558
 6921TIP3    H171231   0.190   7.760  17.579
 6921TIP3    H271232   0.244   7.854  17.473
 6922TIP3   OH271233   1.048   7.767  17.160
 6922TIP3    H171234   0.998   7.686  17.173
 6922TIP3    H271235   1.122   7.740  17.106
 6923TIP3   OH271236   1.704   7.765  16.949
 6923TIP3    H171237   1.719   7.670  16.946
 6923TIP3    H271238   1.776   7.802  16.898
 6924TIP3   OH271239   0.352   7.577  16.931
 6924TIP3    H171240   0.259   7.553  16.933
 6924TIP3    H271241   0.399   7.494  16.932
 6925TIP3   OH271242   0.450   7.634  16.622
 6925TIP3    H171243   0.511   7.706  16.608
 6925TIP3    H271244   0.504   7.562  16.652
 6926TIP3   OH271245   0.749   7.629  16.906
 6926TIP3    H171246   0.807   7.579  16.849
 6926TIP3    H271247   0.731   7.570  16.980
 6927TIP3   OH271248   1.278   7.680  17.029
 6927TIP3    H171249   1.245   7.686  16.939
 6927TIP3    H271250   1.261   7.590  17.055
 6928TIP3   OH271251   1.345   7.669  16.704
 6928TIP3    H171252   1.266   7.683  16.651
 6928TIP3    H271253   1.341   7.577  16.730
 6929TIP3   OH271254   0.491   7.782  16.310
 6929TIP3    H171255   0.480   7.687  16.318
 6929TIP3    H271256   0.529   7.809  16.394
 6930TIP3   OH271257   0.882   7.846  16.572
 6930TIP3    H171258   0.932   7.768  16.595
 6930TIP3    H271259   0.891   7.904  16.648
 6931TIP3   OH271260   0.370   7.585  17.815
 6931TIP3    H171261   0.304   7.533  17.862
 6931TIP3    H271262   0.434   7.608  17.883
 6932TIP3   OH271263   0.528   7.627  18.048
 6932TIP3    H171264   0.612   7.643  18.006
 6932TIP3    H271265   0.529   7.534  18.069
 6933TIP3   OH271266   1.338   7.533  18.063
 6933TIP3    H171267   1.332   7.493  18.150
 6933TIP3    H271268   1.433   7.538  18.046
 6934TIP3   OH271269   3.237   8.021  16.878
 6934TIP3    H171270   3.270   7.980  16.958
 6934TIP3    H271271   3.316   8.038  16.826
 6935TIP3   OH271272   3.640   8.004  17.575
 6935TIP3    H171273   3.606   8.064  17.509
 6935TIP3    H271274   3.735   8.018  17.574
 6936TIP3   OH271275   2.313   7.858  17.515
 6936TIP3    H171276   2.315   7.910  17.435
 6936TIP3    H271277   2.239   7.894  17.565
 6937TIP3   OH271278   3.324   7.941  17.123
 6937TIP3    H171279   3.256   7.927  17.188
 6937TIP3    H271280   3.369   8.020  17.152
 6938TIP3   OH271281   2.332   8.015  17.287
 6938TIP3    H171282   2.382   8.097  17.290
 6938TIP3    H271283   2.351   7.980  17.200
 6939TIP3   OH271284   2.697   7.580  17.183
 6939TIP3    H171285   2.694   7.489  17.210
 6939TIP3    H271286   2.613   7.617  17.210
 6940TIP3   OH271287   2.870   7.694  17.650
 6940TIP3    H171288   2.860   7.658  17.738
 6940TIP3    H271289   2.784   7.729  17.628
 6941TIP3   OH271290   3.210   8.058  17.712
 6941TIP3    H171291   3.163   8.044  17.794
 6941TIP3    H271292   3.176   8.141  17.678
 6942TIP3   OH271293   2.860   7.860  16.325
 6942TIP3    H171294   2.798   7.846  16.397
 6942TIP3    H271295   2.825   7.807  16.254
 6943TIP3   OH271296   2.518   8.007  16.263
 6943TIP3    H171297   2.491   7.969  16.347
 6943TIP3    H271298   2.438   8.008  16.210
 6944TIP3   OH271299   2.014   7.959  16.526
 6944TIP3    H171300   2.090   7.916  16.488
 6944TIP3    H271301   2.033   8.053  16.518
 6945TIP3   OH271302   2.750   7.920  16.988
 6945TIP3    H171303   2.665   7.927  17.032
 6945TIP3    H271304   2.810   7.892  17.057
 6946TIP3   OH271305   2.507   8.090  16.652
 6946TIP3    H171306   2.598   8.076  16.677
 6946TIP3    H271307   2.483   0.028  16.693
 6947TIP3   OH271308   3.103   7.906  17.287
 6947TIP3    H171309   3.072   7.914  17.377
 6947TIP3    H271310   3.033   7.859  17.242
 6948TIP3   OH271311   2.672   8.023  17.439
 6948TIP3    H171312   2.618   8.094  17.407
 6948TIP3    H271313   2.727   8.062  17.507
 6949TIP3   OH271314   3.098   7.915  16.469
 6949TIP3    H171315   3.020   7.899  16.416
 6949TIP3    H271316   3.146   7.983  16.421
 6950TIP3   OH271317   2.090   7.955  17.654
 6950TIP3    H171318   2.058   8.042  17.631
 6950TIP3    H271319   2.019   7.896  17.628
 6951TIP3   OH271320   3.024   7.910  17.558
 6951TIP3    H171321   3.106   7.929  17.604
 6951TIP3    H271322   2.996   7.825  17.593
 6952TIP3   OH271323   3.073   7.849  16.734
 6952TIP3    H171324   3.089   7.873  16.643
 6952TIP3    H271325   3.129   7.908  16.785
 6953TIP3   OH271326   2.765   8.053  16.742
 6953TIP3    H171327   2.808   8.137  16.755
 6953TIP3    H271328   2.765   8.012  16.829
 6954TIP3   OH271329   2.830   8.076  17.664
 6954TIP3    H171330   2.822   8.040  17.753
 6954TIP3    H271331   2.895   8.020  17.622
 6955TIP3   OH271332   2.843   7.730  16.806
 6955TIP3    H171333   2.812   7.800  16.863
 6955TIP3    H271334   2.930   7.758  16.778
 6956TIP3   OH271335   2.439   7.869  16.501
 6956TIP3    H171336   2.433   7.949  16.553
 6956TIP3    H271337   2.524   7.831  16.525
 6957TIP3   OH271338   3.481   8.079  17.779
 6957TIP3    H171339   3.389   8.064  17.757
 6957TIP3    H271340   3.530   8.040  17.707
 6958TIP3   OH271341   2.473   7.965  17.859
 6958TIP3    H171342   2.502   7.917  17.781
 6958TIP3    H271343   2.502   8.055  17.844
 6959TIP3   OH271344   2.566   7.850  17.624
 6959TIP3    H171345   2.608   7.901  17.555
 6959TIP3    H271346   2.479   7.830  17.590
 6960TIP3   OH271347   2.798   7.990  17.981
 6960TIP3    H171348   2.811   7.983  18.076
 6960TIP3    H271349   2.710   7.955  17.966
 6961TIP3   OH271350   3.074   8.016  17.943
 6961TIP3    H171351   2.980   8.004  17.954
 6961TIP3    H271352   3.113   7.945  17.995
 6962TIP3   OH271353   3.208   7.837  18.107
 6962TIP3    H171354   3.210   7.742  18.095
 6962TIP3    H271355   3.179   7.850  18.197
 6963TIP3   OH271356   2.236   7.962  18.005
 6963TIP3    H171357   2.298   7.951  17.932
 6963TIP3    H271358   2.226   7.874  18.041
 6964TIP3   OH271359   2.726   7.592  17.873
 6964TIP3    H171360   2.776   7.510  17.877
 6964TIP3    H271361   2.657   7.574  17.809
 6965TIP3   OH271362   2.709   7.705  18.136
 6965TIP3    H171363   2.717   7.665  18.049
 6965TIP3    H271364   2.639   7.769  18.126
 6966TIP3   OH271365   3.451   8.064  16.714
 6966TIP3    H171366   3.459   7.971  16.693
 6966TIP3    H271367   3.523   8.106  16.667
 6967TIP3   OH271368   3.542   0.048  17.394
 6967TIP3    H171369   3.579   0.136  17.395
 6967TIP3    H271370   3.494   0.043  17.311
 6968TIP3   OH271371   1.964   8.028  18.007
 6968TIP3    H171372   2.059   8.028  18.019
 6968TIP3    H271373   1.950   7.980  17.925
 6969TIP3   OH271374   1.853   7.856  16.732
 6969TIP3    H171375   1.771   7.863  16.683
 6969TIP3    H271376   1.919   7.898  16.676
 6970TIP3   OH271377   2.913   7.752  17.145
 6970TIP3    H171378   2.840   7.690  17.158
 6970TIP3    H271379   2.969   7.709  17.081
 6971TIP3   OH271380   2.616   7.615  16.914
 6971TIP3    H171381   2.693   7.646  16.867
 6971TIP3    H271382   2.649   7.592  17.001
 6972TIP3   OH271383   2.716   7.822  16.570
 6972TIP3    H171384   2.756   7.771  16.640
 6972TIP3    H271385   2.728   7.913  16.597
 6973TIP3   OH271386   3.228   7.565  18.086
 6973TIP3    H171387   3.205   7.506  18.158
 6973TIP3    H271388   3.296   7.519  18.038
 6974TIP3   OH271389   4.651   7.976  17.252
 6974TIP3    H171390   4.583   7.982  17.185
 6974TIP3    H271391   4.706   7.903  17.224
 6975TIP3   OH271392   5.106   7.982  16.888
 6975TIP3    H171393   5.148   7.974  16.973
 6975TIP3    H271394   5.178   8.002  16.828
 6976TIP3   OH271395   4.248   7.844  17.487
 6976TIP3    H171396   4.189   7.908  17.448
 6976TIP3    H271397   4.192   7.791  17.544
 6977TIP3   OH271398   5.253   7.943  17.125
 6977TIP3    H171399   5.199   7.898  17.191
 6977TIP3    H271400   5.321   7.880  17.103
 6978TIP3   OH271401   4.072   8.053  17.393
 6978TIP3    H171402   4.052   8.138  17.431
 6978TIP3    H271403   4.082   8.071  17.299
 6979TIP3   OH271404   4.382   7.654  17.326
 6979TIP3    H171405   4.342   7.662  17.239
 6979TIP3    H271406   4.340   7.723  17.378
 6980TIP3   OH271407   5.218   8.094  17.717
 6980TIP3    H171408   5.153   8.049  17.771
 6980TIP3    H271409   5.169   8.124  17.641
 6981TIP3   OH271410   4.759   7.921  16.356
 6981TIP3    H171411   4.666   7.930  16.380
 6981TIP3    H271412   4.757   7.893  16.265
 6982TIP3   OH271413   3.804   7.921  16.967
 6982TIP3    H171414   3.811   7.862  17.042
 6982TIP3    H271415   3.792   7.863  16.892
 6983TIP3   OH271416   3.846   0.000  16.619
 6983TIP3    H171417   3.907   0.013  16.546
 6983TIP3    H271418   3.769   0.051  16.595
 6984TIP3   OH271419   4.771   8.041  16.989
 6984TIP3    H171420   4.676   8.049  16.995
 6984TIP3    H271421   4.801   8.050  17.080
 6985TIP3   OH271422   3.944   8.138  16.885
 6985TIP3    H171423   3.885   8.066  16.907
 6985TIP3    H271424   3.926   0.012  16.792
 6986TIP3   OH271425   4.373   7.853  16.657
 6986TIP3    H171426   4.465   7.832  16.674
 6986TIP3    H271427   4.362   7.941  16.694
 6987TIP3   OH271428   5.056   7.869  17.321
 6987TIP3    H171429   5.020   7.908  17.401
 6987TIP3    H271430   4.980   7.835  17.274
 6988TIP3   OH271431   4.673   7.992  17.520
 6988TIP3    H171432   4.663   7.978  17.425
 6988TIP3    H271433   4.666   8.087  17.531
 6989TIP3   OH271434   4.972   8.020  16.501
 6989TIP3    H171435   4.896   7.991  16.451
 6989TIP3    H271436   5.045   8.013  16.439
 6990TIP3   OH271437   4.086   7.722  17.681
 6990TIP3    H171438   4.021   7.792  17.684
 6990TIP3    H271439   4.109   7.707  17.773
 6991TIP3   OH271440   4.944   7.974  17.581
 6991TIP3    H171441   4.967   7.935  17.666
 6991TIP3    H271442   4.852   7.950  17.568
 6992TIP3   OH271443   4.964   7.832  16.708
 6992TIP3    H171444   4.967   7.892  16.634
 6992TIP3    H271445   4.998   7.883  16.782
 6993TIP3   OH271446   4.754   8.058  16.717
 6993TIP3    H171447   4.836   8.080  16.672
 6993TIP3    H271448   4.778   8.055  16.809
 6994TIP3   OH271449   4.825   0.077  17.649
 6994TIP3    H171450   4.803   0.049  17.738
 6994TIP3    H271451   4.875   0.003  17.613
 6995TIP3   OH271452   4.289   7.631  16.508
 6995TIP3    H171453   4.303   7.703  16.570
 6995TIP3    H271454   4.377   7.605  16.482
 6996TIP3   OH271455   5.429   7.917  17.686
 6996TIP3    H171456   5.348   7.968  17.698
 6996TIP3    H271457   5.462   7.944  17.601
 6997TIP3   OH271458   4.549   8.112  17.779
 6997TIP3    H171459   4.506   8.031  17.751
 6997TIP3    H271460   4.545   0.025  17.703
 6998TIP3   OH271461   4.454   7.891  17.660
 6998TIP3    H171462   4.531   7.893  17.604
 6998TIP3    H271463   4.383   7.863  17.602
 6999TIP3   OH271464   4.760   7.948  17.864
 6999TIP3    H171465   4.719   7.875  17.910
 6999TIP3    H271466   4.687   8.001  17.832
 7000TIP3   OH271467   5.031   7.953  17.861
 7000TIP3    H171468   4.936   7.955  17.870
 7000TIP3    H271469   5.062   7.907  17.939
 7001TIP3   OH271470   5.094   7.833  18.109
 7001TIP3    H171471   5.043   7.759  18.141
 7001TIP3    H271472   5.075   7.904  18.171
 7002TIP3   OH271473   4.618   7.755  18.000
 7002TIP3    H171474   4.601   7.666  17.967
 7002TIP3    H271475   4.532   7.787  18.027
 7003TIP3   OH271476   5.322   8.016  16.723
 7003TIP3    H171477   5.395   7.955  16.736
 7003TIP3    H271478   5.350   8.073  16.652
 7004TIP3   OH271479   3.671   8.041  17.984
 7004TIP3    H171480   3.625   8.064  17.903
 7004TIP3    H271481   3.604   8.001  18.040
 7005TIP3   OH271482   4.027   7.782  17.291
 7005TIP3    H171483   4.097   7.790  17.227
 7005TIP3    H271484   4.004   7.872  17.314
 7006TIP3   OH271485   5.532   7.797  17.921
 7006TIP3    H171486   5.472   7.806  17.995
 7006TIP3    H271487   5.483   7.831  17.846
 7007TIP3   OH271488   4.835   7.789  17.154
 7007TIP3    H171489   4.823   7.695  17.138
 7007TIP3    H271490   4.861   7.824  17.070
 7008TIP3   OH271491   5.498   7.785  17.021
 7008TIP3    H171492   5.513   7.700  16.980
 7008TIP3    H271493   5.576   7.837  16.998
 7009TIP3   OH271494   4.644   7.814  16.662
 7009TIP3    H171495   4.718   7.757  16.681
 7009TIP3    H271496   4.680   7.903  16.671
 7010TIP3   OH271497   4.184   7.617  17.926
 7010TIP3    H171498   4.236   7.559  17.871
 7010TIP3    H271499   4.176   7.570  18.009
 7011TIP3   OH271500   7.333   7.903  17.300
 7011TIP3    H171501   7.305   7.992  17.321
 7011TIP3    H271502   7.429   7.905  17.311
 7012TIP3   OH271503   7.427   8.126  17.544
 7012TIP3    H171504   7.363   8.136  17.473
 7012TIP3    H271505   7.414   8.037  17.575
 7013TIP3   OH271506   7.110   7.943  17.137
 7013TIP3    H171507   7.192   7.911  17.174
 7013TIP3    H271508   7.128   8.034  17.112
 7014TIP3   OH271509   7.197   7.783  17.526
 7014TIP3    H171510   7.119   7.795  17.472
 7014TIP3    H271511   7.270   7.794  17.466
 7015TIP3   OH271512   7.285   7.653  16.490
 7015TIP3    H171513   7.215   7.637  16.554
 7015TIP3    H271514   7.240   7.692  16.415
 7016TIP3   OH271515   6.954   8.014  17.711
 7016TIP3    H171516   6.891   7.986  17.778
 7016TIP3    H271517   6.935   8.107  17.699
 7017TIP3   OH271518   5.752   7.873  16.926
 7017TIP3    H171519   5.802   7.792  16.913
 7017TIP3    H271520   5.727   7.901  16.838
 7018TIP3   OH271521   6.990   7.830  17.356
 7018TIP3    H171522   6.906   7.872  17.375
 7018TIP3    H271523   7.019   7.871  17.274
 7019TIP3   OH271524   6.124   7.759  16.822
 7019TIP3    H171525   6.035   7.731  16.841
 7019TIP3    H271526   6.117   7.814  16.745
 7020TIP3   OH271527   6.900   7.979  16.388
 7020TIP3    H171528   6.811   8.008  16.371
 7020TIP3    H271529   6.944   8.055  16.426
 7021TIP3   OH271530   5.876   7.963  17.740
 7021TIP3    H171531   5.847   8.049  17.710
 7021TIP3    H271532   5.943   7.936  17.678
 7022TIP3   OH271533   6.781   7.890  17.529
 7022TIP3    H171534   6.856   7.920  17.579
 7022TIP3    H271535   6.769   7.799  17.554
 7023TIP3   OH271536   6.872   7.846  16.629
 7023TIP3    H171537   6.876   7.876  16.538
 7023TIP3    H271538   6.912   7.916  16.680
 7024TIP3   OH271539   7.225   7.970  17.731
 7024TIP3    H171540   7.134   7.999  17.726
 7024TIP3    H271541   7.233   7.904  17.663
 7025TIP3   OH271542   6.008   7.631  17.158
 7025TIP3    H171543   5.974   7.618  17.069
 7025TIP3    H271544   5.983   7.552  17.205
 7026TIP3   OH271545   6.748   7.931  17.881
 7026TIP3    H171546   6.696   7.854  17.859
 7026TIP3    H271547   6.806   7.902  17.952
 7027TIP3   OH271548   6.915   7.837  18.078
 7027TIP3    H171549   6.957   7.753  18.061
 7027TIP3    H271550   6.918   7.846  18.174
 7028TIP3   OH271551   6.536   7.604  17.787
 7028TIP3    H171552   6.564   7.514  17.806
 7028TIP3    H271553   6.461   7.595  17.730
 7029TIP3   OH271554   7.089   7.794  16.290
 7029TIP3    H171555   7.166   7.851  16.296
 7029TIP3    H271556   7.015   7.851  16.313
 7030TIP3   OH271557   7.152   8.061  16.766
 7030TIP3    H171558   7.171   7.970  16.788
 7030TIP3    H271559   7.237   8.105  16.771
 7031TIP3   OH271560   7.242   0.016  17.351
 7031TIP3    H171561   7.219   0.036  17.260
 7031TIP3    H271562   7.210   0.092  17.400
 7032TIP3   OH271563   5.697   8.013  17.947
 7032TIP3    H171564   5.765   7.998  17.882
 7032TIP3    H271565   5.644   7.934  17.945
 7033TIP3   OH271566   7.506   7.612  18.046
 7033TIP3    H171567   7.545   7.539  17.998
 7033TIP3    H271568   7.550   7.690  18.011
 7034TIP3   OH271569   7.219   7.795  16.803
 7034TIP3    H171570   7.230   7.730  16.872
 7034TIP3    H271571   7.166   7.750  16.736
 7035TIP3   OH271572   5.859   7.853  17.212
 7035TIP3    H171573   5.921   7.782  17.203
 7035TIP3    H271574   5.797   7.841  17.140
 7036TIP3   OH271575   7.260   7.841  17.974
 7036TIP3    H171576   7.250   7.896  17.896
 7036TIP3    H271577   7.260   7.751  17.940
 7037TIP3   OH271578   7.332   7.903  16.335
 7037TIP3    H171579   7.398   7.841  16.305
 7037TIP3    H271580   7.375   7.950  16.407
 7038TIP3   OH271581   5.692   7.917  16.649
 7038TIP3    H171582   5.630   7.882  16.584
 7038TIP3    H271583   5.696   8.011  16.630
 7039TIP3   OH271584   5.669   7.657  17.534
 7039TIP3    H171585   5.630   7.705  17.607
 7039TIP3    H271586   5.688   7.725  17.469
 7040TIP3   OH271587   7.272   7.651  17.763
 7040TIP3    H171588   7.234   7.697  17.688
 7040TIP3    H271589   7.335   7.590  17.724
 7041TIP3   OH271590   5.880   7.631  16.905
 7041TIP3    H171591   5.789   7.600  16.907
 7041TIP3    H271592   5.930   7.555  16.874
 7042TIP3   OH271593   5.779   7.654  16.541
 7042TIP3    H171594   5.757   7.679  16.451
 7042TIP3    H271595   5.783   7.737  16.588
 7043TIP3   OH271596   7.059   7.643  16.648
 7043TIP3    H171597   6.981   7.698  16.636
 7043TIP3    H271598   7.026   7.563  16.688
 7044TIP3   OH271599   5.899   7.634  17.874
 7044TIP3    H171600   5.866   7.562  17.928
 7044TIP3    H271601   5.834   7.703  17.886
 7045TIP3   OH271602   7.021   7.569  18.040
 7045TIP3    H171603   7.037   7.527  18.125
 7045TIP3    H271604   7.064   7.512  17.977
 7046TIP3   OH271605   7.959   8.062  16.921
 7046TIP3    H171606   8.028   8.128  16.914
 7046TIP3    H271607   7.889   8.094  16.864
 7047TIP3   OH271608   7.776   8.095  17.586
 7047TIP3    H171609   7.870   8.112  17.589
 7047TIP3    H271610   7.768   8.000  17.582
 7048TIP3   OH271611   7.688   0.024  17.217
 7048TIP3    H171612   7.634   0.094  17.255
 7048TIP3    H271613   7.703   0.052  17.127
 7049TIP3   OH271614   7.853   7.465  17.263
 7049TIP3    H171615   7.906   7.386  17.269
 7049TIP3    H271616   7.880   7.507  17.181
 7050TIP3   OH271617   7.523   8.064  16.974
 7050TIP3    H171618   7.574   8.008  17.032
 7050TIP3    H271619   7.507   8.009  16.897
 7051TIP3   OH271620   7.498   8.027  16.525
 7051TIP3    H171621   7.578   8.053  16.479
 7051TIP3    H271622   7.446   8.107  16.530
 7052TIP3   OH271623   7.752   8.125  16.760
 7052TIP3    H171624   7.684   0.032  16.717
 7052TIP3    H271625   7.735   8.035  16.732
 7053TIP3   OH271626   0.198   7.924  17.009
 7053TIP3    H171627   0.246   7.843  17.024
 7053TIP3    H271628   0.129   7.900  16.947
 7054TIP3   OH271629   7.633   0.078  17.778
 7054TIP3    H171630   7.596   0.152  17.730
 7054TIP3    H271631   7.688   0.034  17.714
 7055TIP3   OH271632   0.203   7.427  16.676
 7055TIP3    H171633   0.134   7.478  16.632
 7055TIP3    H271634   0.261   7.493  16.713
 7056TIP3   OH271635   7.645   7.599  17.379
 7056TIP3    H171636   7.641   7.686  17.340
 7056TIP3    H271637   7.714   7.554  17.331
 7057TIP3   OH271638   7.870   0.004  18.022
 7057TIP3    H171639   7.927   8.073  18.010
 7057TIP3    H271640   7.852   0.007  18.116
 7058TIP3   OH271641   7.486   8.088  17.961
 7058TIP3    H171642   7.542   8.140  17.903
 7058TIP3    H271643   7.400   8.092  17.920
 7059TIP3   OH271644   7.613   7.914  17.322
 7059TIP3    H171645   7.628   7.875  17.236
 7059TIP3    H271646   7.642   8.005  17.312
 7060TIP3   OH271647   7.467   7.898  16.766
 7060TIP3    H171648   7.379   7.859  16.765
 7060TIP3    H271649   7.474   7.940  16.681
 7061TIP3   OH271650   7.457   7.558  17.579
 7061TIP3    H171651   7.464   7.653  17.586
 7061TIP3    H271652   7.502   7.536  17.497
 7062TIP3   OH271653   7.555   7.628  16.716
 7062TIP3    H171654   7.548   7.722  16.729
 7062TIP3    H271655   7.570   7.617  16.622
 7063TIP3   OH271656   7.544   7.742  16.460
 7063TIP3    H171657   7.456   7.707  16.472
 7063TIP3    H271658   7.540   7.831  16.497
 7064TIP3   OH271659   7.753   7.861  16.669
 7064TIP3    H171660   7.804   7.780  16.666
 7064TIP3    H271661   7.757   7.895  16.580
 7065TIP3   OH271662   7.807   7.493  17.802
 7065TIP3    H171663   7.764   7.451  17.877
 7065TIP3    H271664   7.900   7.479  17.816
 7066TIP3   OH271665   8.088   7.490  17.802
 7066TIP3    H171666   0.026   7.469  17.847
 7066TIP3    H271667   8.099   7.456  17.714
 7067TIP3   OH271668   1.070   0.769  18.200
 7067TIP3    H171669   1.133   0.785  18.270
 7067TIP3    H271670   1.063   0.673  18.196
 7068TIP3   OH271671   1.268   0.823  18.388
 7068TIP3    H171672   1.321   0.743  18.395
 7068TIP3    H271673   1.322   0.883  18.337
 7069TIP3   OH271674   1.432   0.954  18.217
 7069TIP3    H171675   1.418   0.946  18.122
 7069TIP3    H271676   1.514   1.003  18.225
 7070TIP3   OH271677   0.977   0.420  18.240
 7070TIP3    H171678   1.052   0.390  18.292
 7070TIP3    H271679   0.932   0.340  18.214
 7071TIP3   OH271680   0.632   0.399  18.135
 7071TIP3    H171681   0.545   0.358  18.144
 7071TIP3    H271682   0.613   0.487  18.102
 7072TIP3   OH271683   0.192   0.493  18.318
 7072TIP3    H171684   0.283   0.509  18.341
 7072TIP3    H271685   0.148   0.481  18.403
 7073TIP3   OH271686   0.570   0.655  18.312
 7073TIP3    H171687   0.533   0.653  18.224
 7073TIP3    H271688   0.654   0.698  18.303
 7074TIP3   OH271689   0.817   1.443  18.128
 7074TIP3    H171690   0.890   1.384  18.110
 7074TIP3    H271691   0.789   1.419  18.216
 7075TIP3   OH271692   0.704   1.376  18.367
 7075TIP3    H171693   0.674   1.317  18.436
 7075TIP3    H271694   0.708   1.462  18.409
 7076TIP3   OH271695   0.724   1.625  18.480
 7076TIP3    H171696   0.713   1.698  18.419
 7076TIP3    H271697   0.709   1.664  18.566
 7077TIP3   OH271698   0.567   0.399  18.437
 7077TIP3    H171699   0.561   0.485  18.396
 7077TIP3    H271700   0.651   0.364  18.407
 7078TIP3   OH271701   0.651   1.192  18.126
 7078TIP3    H171702   0.637   1.131  18.198
 7078TIP3    H271703   0.658   1.278  18.168
 7079TIP3   OH271704   1.051   1.279  18.133
 7079TIP3    H171705   1.133   1.297  18.179
 7079TIP3    H271706   1.064   1.192  18.095
 7080TIP3   OH271707   0.613   1.010  18.330
 7080TIP3    H171708   0.525   0.974  18.333
 7080TIP3    H271709   0.667   0.939  18.294
 7081TIP3   OH271710   0.789   0.818  18.225
 7081TIP3    H171711   0.764   0.834  18.134
 7081TIP3    H271712   0.883   0.799  18.222
 7082TIP3   OH271713   1.670   1.084  18.141
 7082TIP3    H171714   1.676   1.046  18.054
 7082TIP3    H271715   1.644   1.175  18.126
 7083TIP3   OH271716   1.845   1.025  18.344
 7083TIP3    H171717   1.777   1.036  18.277
 7083TIP3    H271718   1.821   1.087  18.412
 7084TIP3   OH271719   0.213   0.194  18.420
 7084TIP3    H171720   0.253   0.236  18.344
 7084TIP3    H271721   0.123   0.227  18.420
 7085TIP3   OH271722   0.405   0.262  18.230
 7085TIP3    H171723   0.439   0.196  18.170
 7085TIP3    H271724   0.464   0.260  18.305
 7086TIP3   OH271725   3.530   0.092  18.382
 7086TIP3    H171726   3.502   0.001  18.391
 7086TIP3    H271727   3.604   0.088  18.322
 7087TIP3   OH271728   3.695   1.538  18.195
 7087TIP3    H171729   3.697   1.566  18.103
 7087TIP3    H271730   3.787   1.534  18.220
 7088TIP3   OH271731   3.260   0.451  18.275
 7088TIP3    H171732   3.215   0.446  18.190
 7088TIP3    H271733   3.322   0.523  18.264
 7089TIP3   OH271734   2.074   0.951  18.216
 7089TIP3    H171735   2.143   0.977  18.277
 7089TIP3    H271736   1.993   0.958  18.266
 7090TIP3   OH271737   2.237   1.044  18.427
 7090TIP3    H171738   2.188   1.003  18.498
 7090TIP3    H271739   2.309   1.089  18.470
 7091TIP3   OH271740   3.415   1.545  18.216
 7091TIP3    H171741   3.509   1.554  18.236
 7091TIP3    H271742   3.405   1.586  18.130
 7092TIP3   OH271743   3.566   1.023  18.194
 7092TIP3    H171744   3.574   1.000  18.101
 7092TIP3    H271745   3.548   1.117  18.194
 7093TIP3   OH271746   3.729   0.982  18.409
 7093TIP3    H171747   3.664   0.978  18.340
 7093TIP3    H271748   3.761   1.072  18.407
 7094TIP3   OH271749   3.448   0.635  18.195
 7094TIP3    H171750   3.470   0.714  18.145
 7094TIP3    H271751   3.493   0.564  18.150
 7095TIP3   OH271752   3.513   0.346  18.147
 7095TIP3    H171753   3.536   0.354  18.239
 7095TIP3    H271754   3.420   0.322  18.147
 7096TIP3   OH271755   2.111   0.106  18.411
 7096TIP3    H171756   2.152   0.135  18.329
 7096TIP3    H271757   2.083   0.188  18.453
 7097TIP3   OH271758   2.266   0.269  18.227
 7097TIP3    H171759   2.287   0.214  18.151
 7097TIP3    H271760   2.343   0.262  18.284
 7098TIP3   OH271761   2.217   1.798  18.192
 7098TIP3    H171762   2.186   1.844  18.270
 7098TIP3    H271763   2.242   1.711  18.223
 7099TIP3   OH271764   4.811   0.725  18.252
 7099TIP3    H171765   4.814   0.666  18.327
 7099TIP3    H271766   4.844   0.673  18.178
 7100TIP3   OH271767   5.364   0.115  18.482
 7100TIP3    H171768   5.312   0.184  18.522
 7100TIP3    H271769   5.398   0.154  18.401
 7101TIP3   OH271770   5.559   1.512  18.269
 7101TIP3    H171771   5.559   1.584  18.331
 7101TIP3    H271772   5.646   1.514  18.229
 7102TIP3   OH271773   5.133   1.787  18.319
 7102TIP3    H171774   5.187   1.716  18.284
 7102TIP3    H271775   5.126   1.768  18.412
 7103TIP3   OH271776   4.832   0.401  18.237
 7103TIP3    H171777   4.854   0.428  18.327
 7103TIP3    H271778   4.859   0.309  18.233
 7104TIP3   OH271779   4.377   0.715  18.380
 7104TIP3    H171780   4.345   0.630  18.351
 7104TIP3    H271781   4.432   0.746  18.308
 7105TIP3   OH271782   3.959   0.866  18.276
 7105TIP3    H171783   4.027   0.927  18.305
 7105TIP3    H271784   3.881   0.891  18.325
 7106TIP3   OH271785   5.606   1.760  18.387
 7106TIP3    H171786   5.677   1.759  18.323
 7106TIP3    H271787   5.551   1.833  18.360
 7107TIP3   OH271788   4.630   1.392  18.166
 7107TIP3    H171789   4.611   1.322  18.102
 7107TIP3    H271790   4.554   1.392  18.224
 7108TIP3   OH271791   4.436   1.428  18.392
 7108TIP3    H171792   4.427   1.381  18.475
 7108TIP3    H271793   4.508   1.489  18.406
 7109TIP3   OH271794   4.127   1.065  18.386
 7109TIP3    H171795   4.078   1.052  18.467
 7109TIP3    H271796   4.123   1.159  18.370
 7110TIP3   OH271797   4.669   1.555  18.467
 7110TIP3    H171798   4.722   1.622  18.424
 7110TIP3    H271799   4.730   1.483  18.483
 7111TIP3   OH271800   4.180   1.355  18.301
 7111TIP3    H171801   4.259   1.397  18.336
 7111TIP3    H271802   4.211   1.299  18.230
 7112TIP3   OH271803   4.800   1.604  18.125
 7112TIP3    H171804   4.745   1.527  18.137
 7112TIP3    H271805   4.879   1.572  18.082
 7113TIP3   OH271806   5.307   1.596  18.209
 7113TIP3    H171807   5.396   1.568  18.232
 7113TIP3    H271808   5.311   1.614  18.115
 7114TIP3   OH271809   4.331   1.200  18.131
 7114TIP3    H171810   4.355   1.146  18.206
 7114TIP3    H271811   4.410   1.205  18.078
 7115TIP3   OH271812   4.408   1.042  18.342
 7115TIP3    H171813   4.320   1.016  18.368
 7115TIP3    H271814   4.448   0.961  18.310
 7116TIP3   OH271815   4.556   0.837  18.209
 7116TIP3    H171816   4.556   0.871  18.120
 7116TIP3    H271817   4.645   0.805  18.224
 7117TIP3   OH271818   5.478   0.248  18.269
 7117TIP3    H171819   5.499   0.185  18.200
 7117TIP3    H271820   5.561   0.292  18.287
 7118TIP3   OH271821   4.838   1.756  18.347
 7118TIP3    H171822   4.928   1.785  18.330
 7118TIP3    H271823   4.810   1.715  18.265
 7119TIP3   OH271824   7.208   0.099  18.371
 7119TIP3    H171825   7.220   0.023  18.314
 7119TIP3    H271826   7.295   0.137  18.380
 7120TIP3   OH271827   7.403   1.555  18.266
 7120TIP3    H171828   7.439   1.636  18.301
 7120TIP3    H271829   7.475   1.492  18.273
 7121TIP3   OH271830   7.029   1.735  18.287
 7121TIP3    H171831   7.060   1.668  18.226
 7121TIP3    H271832   7.056   1.704  18.373
 7122TIP3   OH271833   6.623   0.365  18.281
 7122TIP3    H171834   6.552   0.428  18.266
 7122TIP3    H271835   6.623   0.310  18.202
 7123TIP3   OH271836   6.387   0.480  18.184
 7123TIP3    H171837   6.353   0.445  18.266
 7123TIP3    H271838   6.312   0.527  18.146
 7124TIP3   OH271839   5.706   0.521  18.523
 7124TIP3    H171840   5.716   0.452  18.458
 7124TIP3    H271841   5.725   0.602  18.476
 7125TIP3   OH271842   6.192   0.666  18.375
 7125TIP3    H171843   6.110   0.651  18.329
 7125TIP3    H271844   6.245   0.717  18.313
 7126TIP3   OH271845   6.892   0.380  18.345
 7126TIP3    H171846   6.797   0.381  18.341
 7126TIP3    H271847   6.915   0.459  18.395
 7127TIP3   OH271848   7.007   0.602  18.473
 7127TIP3    H171849   7.086   0.548  18.472
 7127TIP3    H271850   7.015   0.659  18.397
 7128TIP3   OH271851   7.440   0.678  18.459
 7128TIP3    H171852   7.388   0.652  18.383
 7128TIP3    H271853   7.460   0.770  18.444
 7129TIP3   OH271854   5.831   0.913  18.251
 7129TIP3    H171855   5.896   0.982  18.265
 7129TIP3    H271856   5.749   0.951  18.281
 7130TIP3   OH271857   7.505   1.810  18.365
 7130TIP3    H171858   7.579   1.862  18.332
 7130TIP3    H271859   7.429   1.867  18.352
 7131TIP3   OH271860   6.358   1.694  18.512
 7131TIP3    H171861   6.388   1.759  18.449
 7131TIP3    H271862   6.286   1.648  18.468
 7132TIP3   OH271863   6.298   0.420  18.439
 7132TIP3    H171864   6.274   0.512  18.431
 7132TIP3    H271865   6.219   0.378  18.474
 7133TIP3   OH271866   5.919   0.669  18.157
 7133TIP3    H171867   5.886   0.747  18.201
 7133TIP3    H271868   5.840   0.626  18.123
 7134TIP3   OH271869   7.155   1.548  18.129
 7134TIP3    H171870   7.230   1.533  18.187
 7134TIP3    H271871   7.194   1.576  18.046
 7135TIP3   OH271872   7.378   1.033  18.163
 7135TIP3    H171873   7.332   1.012  18.081
 7135TIP3    H271874   7.419   1.118  18.146
 7136TIP3   OH271875   6.477   1.879  18.342
 7136TIP3    H171876   6.570   1.860  18.329
 7136TIP3    H271877   6.453   1.938  18.270
 7137TIP3   OH271878   5.867   1.299  18.253
 7137TIP3    H171879   5.860   1.393  18.242
 7137TIP3    H271880   5.819   1.262  18.179
 7138TIP3   OH271881   7.475   0.948  18.399
 7138TIP3    H171882   7.433   0.962  18.315
 7138TIP3    H271883   7.436   1.013  18.457
 7139TIP3   OH271884   7.323   0.606  18.223
 7139TIP3    H171885   7.307   0.652  18.141
 7139TIP3    H271886   7.302   0.515  18.204
 7140TIP3   OH271887   7.232   0.357  18.143
 7140TIP3    H171888   7.233   0.305  18.224
 7140TIP3    H271889   7.144   0.346  18.108
 7141TIP3   OH271890   7.432   0.262  18.380
 7141TIP3    H171891   7.469   0.223  18.300
 7141TIP3    H271892   7.498   0.324  18.409
 7142TIP3   OH271893   5.741   0.323  18.337
 7142TIP3    H171894   5.828   0.335  18.298
 7142TIP3    H271895   5.737   0.229  18.358
 7143TIP3   OH271896   6.003   0.331  18.252
 7143TIP3    H171897   6.015   0.243  18.216
 7143TIP3    H271898   6.048   0.328  18.337
 7144TIP3   OH271899   6.742   1.789  18.317
 7144TIP3    H171900   6.836   1.787  18.300
 7144TIP3    H271901   6.724   1.706  18.361
 7145TIP3   OH271902   6.112   1.757  18.242
 7145TIP3    H171903   6.027   1.713  18.232
 7145TIP3    H271904   6.172   1.705  18.189
 7146TIP3   OH271905   7.607   0.462  18.452
 7146TIP3    H171906   7.665   0.488  18.380
 7146TIP3    H271907   7.543   0.533  18.457
 7147TIP3   OH271908   8.013   0.529  18.349
 7147TIP3    H171909   7.921   0.547  18.326
 7147TIP3    H271910   8.062   0.554  18.271
 7148TIP3   OH271911   7.708   1.012  18.233
 7148TIP3    H171912   7.753   1.067  18.296
 7148TIP3    H271913   7.635   0.974  18.282
 7149TIP3   OH271914   7.845   1.184  18.405
 7149TIP3    H171915   7.819   1.222  18.489
 7149TIP3    H271916   7.858   1.259  18.347
 7150TIP3   OH271917   7.908   1.370  18.210
 7150TIP3    H171918   7.986   1.419  18.182
 7150TIP3    H271919   7.895   1.305  18.141
 7151TIP3   OH271920   7.755   0.601  18.270
 7151TIP3    H171921   7.742   0.682  18.320
 7151TIP3    H271922   7.722   0.622  18.182
 7152TIP3   OH271923   0.002   1.411  18.064
 7152TIP3    H171924   0.056   1.434  18.139
 7152TIP3    H271925   0.045   1.334  18.026
 7153TIP3   OH271926   7.634   1.382  18.277
 7153TIP3    H171927   7.723   1.404  18.250
 7153TIP3    H271928   7.600   1.325  18.208
 7154TIP3   OH271929   7.842   1.737  18.199
 7154TIP3    H171930   7.803   1.815  18.239
 7154TIP3    H271931   7.876   1.686  18.273
 7155TIP3   OH271932   1.107   2.715  18.192
 7155TIP3    H171933   1.148   2.722  18.278
 7155TIP3    H271934   1.167   2.661  18.141
 7156TIP3   OH271935   1.296   2.722  18.424
 7156TIP3    H171936   1.315   2.769  18.505
 7156TIP3    H271937   1.338   2.775  18.355
 7157TIP3   OH271938   1.393   2.897  18.241
 7157TIP3    H171939   1.397   2.886  18.146
 7157TIP3    H271940   1.407   2.990  18.255
 7158TIP3   OH271941   1.025   2.258  18.244
 7158TIP3    H171942   0.941   2.303  18.249
 7158TIP3    H271943   1.021   2.209  18.162
 7159TIP3   OH271944   1.299   2.331  18.252
 7159TIP3    H171945   1.209   2.299  18.245
 7159TIP3    H271946   1.306   2.362  18.343
 7160TIP3   OH271947   1.329   2.452  18.503
 7160TIP3    H171948   1.420   2.420  18.505
 7160TIP3    H271949   1.336   2.541  18.469
 7161TIP3   OH271950   1.125   3.209  18.358
 7161TIP3    H171951   1.077   3.285  18.391
 7161TIP3    H271952   1.078   3.133  18.393
 7162TIP3   OH271953   1.876   2.500  18.396
 7162TIP3    H171954   1.799   2.498  18.338
 7162TIP3    H271955   1.925   2.578  18.369
 7163TIP3   OH271956   1.398   3.170  18.310
 7163TIP3    H171957   1.438   3.217  18.383
 7163TIP3    H271958   1.305   3.187  18.318
 7164TIP3   OH271959   0.780   3.278  18.155
 7164TIP3    H171960   0.872   3.269  18.132
 7164TIP3    H271961   0.738   3.199  18.121
 7165TIP3   OH271962   0.605   3.256  18.435
 7165TIP3    H171963   0.668   3.189  18.409
 7165TIP3    H271964   0.652   3.339  18.424
 7166TIP3   OH271965   0.970   3.413  18.460
 7166TIP3    H171966   0.888   3.446  18.423
 7166TIP3    H271967   1.001   3.484  18.516
 7167TIP3   OH271968   0.714   3.517  18.383
 7167TIP3    H171969   0.677   3.508  18.295
 7167TIP3    H271970   0.697   3.608  18.407
 7168TIP3   OH271971   0.403   3.284  18.249
 7168TIP3    H171972   0.463   3.258  18.319
 7168TIP3    H271973   0.456   3.338  18.191
 7169TIP3   OH271974   1.040   3.205  18.093
 7169TIP3    H171975   1.087   3.213  18.176
 7169TIP3    H271976   1.068   3.120  18.058
 7170TIP3   OH271977   0.826   2.757  18.187
 7170TIP3    H171978   0.792   2.686  18.134
 7170TIP3    H271979   0.920   2.742  18.191
 7171TIP3   OH271980   0.139   3.235  18.204
 7171TIP3    H171981   0.232   3.243  18.227
 7171TIP3    H271982   0.133   3.152  18.157
 7172TIP3   OH271983   1.682   2.492  18.200
 7172TIP3    H171984   1.709   2.541  18.122
 7172TIP3    H271985   1.633   2.417  18.166
 7173TIP3   OH271986   1.542   2.246  18.136
 7173TIP3    H171987   1.602   2.218  18.205
 7173TIP3    H271988   1.462   2.270  18.181
 7174TIP3   OH271989   1.738   2.167  18.320
 7174TIP3    H171990   1.767   2.099  18.259
 7174TIP3    H271991   1.820   2.205  18.353
 7175TIP3   OH271992   0.335   3.624  18.136
 7175TIP3    H171993   0.297   3.660  18.216
 7175TIP3    H271994   0.400   3.560  18.167
 7176TIP3   OH271995   3.277   2.764  18.438
 7176TIP3    H171996   3.363   2.762  18.396
 7176TIP3    H271997   3.231   2.837  18.396
 7177TIP3   OH271998   2.535   2.258  18.148
 7177TIP3    H171999   2.589   2.327  18.188
 7177TIP3    H272000   2.477   2.305  18.089
 7178TIP3   OH272001   1.994   2.254  18.395
 7178TIP3    H172002   2.070   2.267  18.338
 7178TIP3    H272003   1.959   2.343  18.408
 7179TIP3   OH272004   3.146   2.353  18.247
 7179TIP3    H172005   3.061   2.322  18.280
 7179TIP3    H272006   3.188   2.393  18.322
 7180TIP3   OH272007   3.243   2.466  18.474
 7180TIP3    H172008   3.330   2.436  18.501
 7180TIP3    H272009   3.249   2.562  18.478
 7181TIP3   OH272010   3.737   2.569  18.389
 7181TIP3    H172011   3.658   2.561  18.336
 7181TIP3    H272012   3.736   2.659  18.421
 7182TIP3   OH272013   2.310   3.227  18.325
 7182TIP3    H172014   2.363   3.287  18.272
 7182TIP3    H272015   2.356   3.144  18.320
 7183TIP3   OH272016   3.613   2.898  18.165
 7183TIP3    H172017   3.617   2.834  18.094
 7183TIP3    H272018   3.588   2.980  18.122
 7184TIP3   OH272019   2.619   3.790  18.253
 7184TIP3    H172020   2.707   3.753  18.265
 7184TIP3    H272021   2.625   3.838  18.171
 7185TIP3   OH272022   2.068   3.297  18.172
 7185TIP3    H172023   2.133   3.269  18.236
 7185TIP3    H272024   2.031   3.215  18.139
 7186TIP3   OH272025   3.744   2.853  18.401
 7186TIP3    H172026   3.687   2.859  18.325
 7186TIP3    H272027   3.795   2.934  18.400
 7187TIP3   OH272028   3.533   2.571  18.209
 7187TIP3    H172029   3.555   2.617  18.128
 7187TIP3    H272030   3.494   2.488  18.180
 7188TIP3   OH272031   3.436   2.324  18.145
 7188TIP3    H172032   3.501   2.256  18.163
 7188TIP3    H272033   3.354   2.287  18.177
 7189TIP3   OH272034   3.660   2.166  18.196
 7189TIP3    H172035   3.730   2.142  18.135
 7189TIP3    H272036   3.705   2.207  18.269
 7190TIP3   OH272037   2.126   1.981  18.387
 7190TIP3    H172038   2.179   2.050  18.348
 7190TIP3    H272039   2.036   2.008  18.371
 7191TIP3   OH272040   2.275   2.177  18.262
 7191TIP3    H172041   2.276   2.128  18.180
 7191TIP3    H272042   2.364   2.209  18.272
 7192TIP3   OH272043   2.881   3.704  18.224
 7192TIP3    H172044   2.947   3.743  18.281
 7192TIP3    H272045   2.930   3.671  18.148
 7193TIP3   OH272046   2.279   3.646  18.201
 7193TIP3    H172047   2.261   3.672  18.291
 7193TIP3    H272048   2.304   3.554  18.206
 7194TIP3   OH272049   4.865   2.745  18.236
 7194TIP3    H172050   4.920   2.760  18.313
 7194TIP3    H272051   4.913   2.681  18.184
 7195TIP3   OH272052   5.063   2.786  18.427
 7195TIP3    H172053   5.065   2.863  18.483
 7195TIP3    H272054   5.122   2.807  18.355
 7196TIP3   OH272055   5.401   1.950  18.361
 7196TIP3    H172056   5.312   1.920  18.341
 7196TIP3    H272057   5.388   2.036  18.402
 7197TIP3   OH272058   5.544   3.309  18.249
 7197TIP3    H172059   5.556   3.383  18.189
 7197TIP3    H272060   5.595   3.238  18.210
 7198TIP3   OH272061   5.218   2.861  18.218
 7198TIP3    H172062   5.183   2.868  18.130
 7198TIP3    H272063   5.313   2.853  18.205
 7199TIP3   OH272064   4.734   2.259  18.260
 7199TIP3    H172065   4.671   2.305  18.315
 7199TIP3    H272066   4.715   2.166  18.274
 7200TIP3   OH272067   4.997   2.354  18.274
 7200TIP3    H172068   4.906   2.323  18.279
 7200TIP3    H272069   5.014   2.392  18.360
 7201TIP3   OH272070   5.067   2.519  18.510
 7201TIP3    H172071   5.162   2.505  18.516
 7201TIP3    H272072   5.059   2.609  18.477
 7202TIP3   OH272073   3.987   2.748  18.260
 7202TIP3    H172074   4.037   2.815  18.308
 7202TIP3    H272075   3.902   2.746  18.304
 7203TIP3   OH272076   5.595   3.655  18.413
 7203TIP3    H172077   5.594   3.672  18.319
 7203TIP3    H272078   5.531   3.716  18.450
 7204TIP3   OH272079   4.529   3.336  18.167
 7204TIP3    H172080   4.619   3.304  18.158
 7204TIP3    H272081   4.475   3.261  18.144
 7205TIP3   OH272082   4.358   3.291  18.433
 7205TIP3    H172083   4.442   3.245  18.435
 7205TIP3    H272084   4.382   3.384  18.430
 7206TIP3   OH272085   4.102   2.957  18.407
 7206TIP3    H172086   4.113   2.987  18.497
 7206TIP3    H272087   4.117   3.036  18.354
 7207TIP3   OH272088   4.420   3.559  18.432
 7207TIP3    H172089   4.453   3.577  18.344
 7207TIP3    H272090   4.482   3.601  18.491
 7208TIP3   OH272091   4.157   3.199  18.277
 7208TIP3    H172092   4.221   3.245  18.332
 7208TIP3    H272093   4.207   3.171  18.201
 7209TIP3   OH272094   3.904   2.453  18.202
 7209TIP3    H172095   3.983   2.507  18.211
 7209TIP3    H272096   3.847   2.483  18.273
 7210TIP3   OH272097   4.336   3.100  18.097
 7210TIP3    H172098   4.358   3.041  18.170
 7210TIP3    H272099   4.398   3.077  18.029
 7211TIP3   OH272100   4.772   3.200  18.164
 7211TIP3    H172101   4.816   3.208  18.249
 7211TIP3    H272102   4.811   3.122  18.124
 7212TIP3   OH272103   4.390   2.934  18.308
 7212TIP3    H172104   4.319   2.884  18.347
 7212TIP3    H272105   4.461   2.871  18.296
 7213TIP3   OH272106   4.590   2.747  18.256
 7213TIP3    H172107   4.563   2.740  18.165
 7213TIP3    H272108   4.686   2.749  18.252
 7214TIP3   OH272109   5.495   2.912  18.148
 7214TIP3    H172110   5.485   2.864  18.066
 7214TIP3    H272111   5.451   2.995  18.133
 7215TIP3   OH272112   3.896   3.264  18.226
 7215TIP3    H172113   3.986   3.250  18.256
 7215TIP3    H272114   3.879   3.191  18.167
 7216TIP3   OH272115   5.376   2.543  18.204
 7216TIP3    H172116   5.451   2.592  18.171
 7216TIP3    H272117   5.366   2.470  18.143
 7217TIP3   OH272118   5.351   2.316  18.043
 7217TIP3    H172119   5.390   2.257  18.107
 7217TIP3    H272120   5.261   2.283  18.032
 7218TIP3   OH272121   4.124   3.652  18.197
 7218TIP3    H172122   4.114   3.640  18.291
 7218TIP3    H272123   4.202   3.602  18.174
 7219TIP3   OH272124   6.785   2.730  18.259
 7219TIP3    H172125   6.732   2.690  18.328
 7219TIP3    H272126   6.814   2.656  18.205
 7220TIP3   OH272127   7.022   2.735  18.406
 7220TIP3    H172128   7.106   2.771  18.376
 7220TIP3    H272129   6.958   2.769  18.345
 7221TIP3   OH272130   7.263   1.957  18.392
 7221TIP3    H172131   7.229   1.910  18.469
 7221TIP3    H272132   7.202   1.934  18.322
 7222TIP3   OH272133   7.499   3.398  18.376
 7222TIP3    H172134   7.487   3.488  18.346
 7222TIP3    H272135   7.547   3.356  18.306
 7223TIP3   OH272136   6.969   3.614  18.354
 7223TIP3    H172137   7.030   3.575  18.291
 7223TIP3    H272138   7.008   3.597  18.439
 7224TIP3   OH272139   6.598   2.234  18.289
 7224TIP3    H172140   6.566   2.308  18.238
 7224TIP3    H272141   6.557   2.157  18.248
 7225TIP3   OH272142   6.877   2.315  18.275
 7225TIP3    H172143   6.792   2.280  18.302
 7225TIP3    H272144   6.911   2.359  18.353
 7226TIP3   OH272145   6.980   2.478  18.483
 7226TIP3    H172146   7.072   2.461  18.501
 7226TIP3    H272147   6.977   2.570  18.457
 7227TIP3   OH272148   6.816   3.182  18.395
 7227TIP3    H172149   6.747   3.218  18.451
 7227TIP3    H272150   6.771   3.156  18.315
 7228TIP3   OH272151   7.081   3.216  18.304
 7228TIP3    H172152   7.115   3.206  18.393
 7228TIP3    H272153   6.986   3.205  18.313
 7229TIP3   OH272154   7.460   3.666  18.296
 7229TIP3    H172155   7.496   3.716  18.224
 7229TIP3    H272156   7.367   3.687  18.296
 7230TIP3   OH272157   6.123   3.264  18.344
 7230TIP3    H172158   6.156   3.350  18.319
 7230TIP3    H272159   6.177   3.203  18.294
 7231TIP3   OH272160   7.158   3.466  18.210
 7231TIP3    H172161   7.135   3.374  18.223
 7231TIP3    H272162   7.186   3.471  18.119
 7232TIP3   OH272163   6.644   3.138  18.175
 7232TIP3    H172164   6.648   3.202  18.104
 7232TIP3    H272165   6.667   3.055  18.133
 7233TIP3   OH272166   5.845   3.283  18.287
 7233TIP3    H172167   5.936   3.259  18.302
 7233TIP3    H272168   5.814   3.219  18.222
 7234TIP3   OH272169   6.067   3.689  18.168
 7234TIP3    H172170   6.001   3.732  18.222
 7234TIP3    H272171   6.120   3.639  18.230
 7235TIP3   OH272172   8.057   2.564  18.309
 7235TIP3    H172173   8.031   2.479  18.274
 7235TIP3    H272174   8.058   2.622  18.233
 7236TIP3   OH272175   8.041   2.260  18.403
 7236TIP3    H172176   8.051   2.334  18.462
 7236TIP3    H272177   8.096   2.191  18.441
 7237TIP3   OH272178   8.048   3.303  18.341
 7237TIP3    H172179   8.136   3.298  18.302
 7237TIP3    H272180   7.995   3.244  18.288
 7238TIP3   OH272181   7.994   3.060  18.193
 7238TIP3    H172182   8.001   3.023  18.281
 7238TIP3    H272183   8.078   3.041  18.152
 7239TIP3   OH272184   7.735   1.963  18.319
 7239TIP3    H172185   7.765   2.038  18.267
 7239TIP3    H272186   7.774   1.976  18.405
 7240TIP3   OH272187   7.888   2.162  18.193
 7240TIP3    H172188   7.945   2.100  18.147
 7240TIP3    H272189   7.944   2.199  18.261
 7241TIP3   OH272190   1.073   4.557  18.255
 7241TIP3    H172191   1.080   4.537  18.349
 7241TIP3    H272192   1.138   4.500  18.213
 7242TIP3   OH272193   0.674   4.254  18.174
 7242TIP3    H172194   0.647   4.212  18.256
 7242TIP3    H272195   0.603   4.235  18.113
 7243TIP3   OH272196   0.145   4.292  18.476
 7243TIP3    H172197   0.181   4.336  18.399
 7243TIP3    H272198   0.086   4.356  18.514
 7244TIP3   OH272199   0.525   4.524  18.249
 7244TIP3    H172200   0.499   4.505  18.159
 7244TIP3    H272201   0.620   4.522  18.248
 7245TIP3   OH272202   1.294   4.425  18.432
 7245TIP3    H172203   1.359   4.364  18.468
 7245TIP3    H272204   1.315   4.429  18.338
 7246TIP3   OH272205   1.039   5.080  18.520
 7246TIP3    H172206   1.039   5.163  18.473
 7246TIP3    H272207   1.077   5.017  18.458
 7247TIP3   OH272208   1.790   4.453  18.477
 7247TIP3    H172209   1.740   4.430  18.399
 7247TIP3    H272210   1.828   4.538  18.457
 7248TIP3   OH272211   0.756   5.210  18.402
 7248TIP3    H172212   0.755   5.143  18.471
 7248TIP3    H272213   0.845   5.246  18.405
 7249TIP3   OH272214   1.008   5.331  18.391
 7249TIP3    H172215   0.991   5.405  18.449
 7249TIP3    H272216   1.028   5.371  18.306
 7250TIP3   OH272217   0.607   4.125  18.410
 7250TIP3    H172218   0.530   4.156  18.457
 7250TIP3    H272219   0.680   4.142  18.468
 7251TIP3   OH272220   0.262   4.426  18.275
 7251TIP3    H172221   0.352   4.459  18.271
 7251TIP3    H272222   0.223   4.453  18.192
 7252TIP3   OH272223   0.984   5.313  18.071
 7252TIP3    H172224   0.893   5.315  18.042
 7252TIP3    H272225   0.991   5.234  18.124
 7253TIP3   OH272226   0.668   4.694  18.431
 7253TIP3    H172227   0.583   4.669  18.396
 7253TIP3    H272228   0.728   4.684  18.358
 7254TIP3   OH272229   0.801   4.604  18.210
 7254TIP3    H172230   0.797   4.629  18.117
 7254TIP3    H272231   0.893   4.580  18.224
 7255TIP3   OH272232   1.865   4.712  18.386
 7255TIP3    H172233   1.794   4.757  18.338
 7255TIP3    H272234   1.867   4.756  18.471
 7256TIP3   OH272235   1.673   4.429  18.226
 7256TIP3    H172236   1.719   4.477  18.157
 7256TIP3    H272237   1.614   4.371  18.178
 7257TIP3   OH272238   0.229   3.773  18.353
 7257TIP3    H172239   0.281   3.850  18.329
 7257TIP3    H272240   0.139   3.799  18.333
 7258TIP3   OH272241   0.414   3.967  18.276
 7258TIP3    H172242   0.448   3.926  18.197
 7258TIP3    H272243   0.489   4.014  18.313
 7259TIP3   OH272244   3.180   4.696  18.430
 7259TIP3    H172245   3.169   4.783  18.468
 7259TIP3    H272246   3.229   4.711  18.349
 7260TIP3   OH272247   3.565   3.818  18.453
 7260TIP3    H172248   3.507   3.767  18.396
 7260TIP3    H272249   3.599   3.887  18.396
 7261TIP3   OH272250   3.690   5.289  18.230
 7261TIP3    H172251   3.711   5.369  18.279
 7261TIP3    H272252   3.775   5.254  18.204
 7262TIP3   OH272253   3.273   5.584  18.289
 7262TIP3    H172254   3.288   5.499  18.247
 7262TIP3    H272255   3.193   5.572  18.339
 7263TIP3   OH272256   3.334   4.752  18.209
 7263TIP3    H172257   3.310   4.745  18.116
 7263TIP3    H272258   3.430   4.750  18.208
 7264TIP3   OH272259   1.956   4.224  18.489
 7264TIP3    H172260   2.013   4.254  18.418
 7264TIP3    H272261   1.890   4.293  18.497
 7265TIP3   OH272262   3.094   4.273  18.273
 7265TIP3    H172263   3.009   4.274  18.317
 7265TIP3    H272264   3.154   4.316  18.334
 7266TIP3   OH272265   3.244   4.424  18.448
 7266TIP3    H172266   3.324   4.428  18.500
 7266TIP3    H272267   3.212   4.514  18.446
 7267TIP3   OH272268   2.098   4.620  18.258
 7267TIP3    H172269   2.166   4.662  18.311
 7267TIP3    H272270   2.016   4.651  18.297
 7268TIP3   OH272271   3.312   5.101  18.301
 7268TIP3    H172272   3.385   5.051  18.337
 7268TIP3    H272273   3.235   5.068  18.349
 7269TIP3   OH272274   3.744   5.534  18.375
 7269TIP3    H172275   3.809   5.605  18.372
 7269TIP3    H272276   3.660   5.579  18.374
 7270TIP3   OH272277   2.263   5.181  18.362
 7270TIP3    H172278   2.241   5.258  18.309
 7270TIP3    H272279   2.307   5.122  18.301
 7271TIP3   OH272280   2.079   4.339  18.272
 7271TIP3    H172281   2.088   4.434  18.265
 7271TIP3    H272282   2.102   4.306  18.185
 7272TIP3   OH272283   3.336   5.342  18.171
 7272TIP3    H172284   3.336   5.265  18.227
 7272TIP3    H272285   3.424   5.346  18.134
 7273TIP3   OH272286   3.625   4.781  18.171
 7273TIP3    H172287   3.616   4.769  18.077
 7273TIP3    H272288   3.612   4.875  18.185
 7274TIP3   OH272289   3.435   4.116  18.157
 7274TIP3    H172290   3.511   4.095  18.211
 7274TIP3    H272291   3.455   4.202  18.119
 7275TIP3   OH272292   3.695   4.006  18.286
 7275TIP3    H172293   3.701   3.949  18.210
 7275TIP3    H272294   3.747   4.083  18.262
 7276TIP3   OH272295   2.114   3.972  18.428
 7276TIP3    H172296   2.165   3.992  18.349
 7276TIP3    H272297   2.051   4.044  18.434
 7277TIP3   OH272298   2.278   4.066  18.224
 7277TIP3    H172299   2.328   4.001  18.173
 7277TIP3    H272300   2.344   4.114  18.273
 7278TIP3   OH272301   5.422   3.887  18.469
 7278TIP3    H172302   5.357   3.939  18.516
 7278TIP3    H272303   5.463   3.948  18.408
 7279TIP3   OH272304   5.527   4.432  18.449
 7279TIP3    H172305   5.495   4.418  18.360
 7279TIP3    H272306   5.563   4.521  18.448
 7280TIP3   OH272307   5.649   5.593  18.322
 7280TIP3    H172308   5.647   5.624  18.232
 7280TIP3    H272309   5.561   5.611  18.356
 7281TIP3   OH272310   4.307   4.143  18.444
 7281TIP3    H172311   4.254   4.159  18.522
 7281TIP3    H272312   4.397   4.146  18.475
 7282TIP3   OH272313   3.930   5.133  18.178
 7282TIP3    H172314   3.973   5.118  18.262
 7282TIP3    H272315   3.921   5.046  18.140
 7283TIP3   OH272316   5.453   4.394  18.192
 7283TIP3    H172317   5.496   4.450  18.127
 7283TIP3    H272318   5.426   4.316  18.143
 7284TIP3   OH272319   5.380   4.134  18.099
 7284TIP3    H172320   5.432   4.109  18.175
 7284TIP3    H272321   5.330   4.056  18.076
 7285TIP3   OH272322   5.556   4.060  18.303
 7285TIP3    H172323   5.601   4.002  18.242
 7285TIP3    H272324   5.624   4.116  18.338
 7286TIP3   OH272325   3.897   3.910  18.461
 7286TIP3    H172326   3.979   3.926  18.414
 7286TIP3    H272327   3.829   3.936  18.400
 7287TIP3   OH272328   4.116   3.989  18.308
 7287TIP3    H172329   4.157   3.957  18.228
 7287TIP3    H272330   4.182   4.045  18.349
 7288TIP3   OH272331   5.734   4.249  18.423
 7288TIP3    H172332   5.786   4.294  18.356
 7288TIP3    H272333   5.659   4.307  18.437
 7289TIP3   OH272334   6.270   4.423  18.301
 7289TIP3    H172335   6.220   4.411  18.220
 7289TIP3    H272336   6.351   4.467  18.272
 7290TIP3   OH272337   7.053   4.416  18.493
 7290TIP3    H172338   7.085   4.338  18.539
 7290TIP3    H272339   7.000   4.461  18.559
 7291TIP3   OH272340   6.454   5.204  18.125
 7291TIP3    H172341   6.448   5.133  18.061
 7291TIP3    H272342   6.446   5.160  18.210
 7292TIP3   OH272343   6.405   5.129  18.393
 7292TIP3    H172344   6.316   5.095  18.387
 7292TIP3    H272345   6.394   5.221  18.416
 7293TIP3   OH272346   6.017   4.880  18.465
 7293TIP3    H172347   5.941   4.925  18.503
 7293TIP3    H272348   6.060   4.948  18.412
 7294TIP3   OH272349   6.338   5.388  18.440
 7294TIP3    H172350   6.334   5.447  18.364
 7294TIP3    H272351   6.363   5.445  18.513
 7295TIP3   OH272352   6.261   4.147  18.367
 7295TIP3    H172353   6.264   4.241  18.350
 7295TIP3    H272354   6.350   4.116  18.350
 7296TIP3   OH272355   6.128   5.118  18.347
 7296TIP3    H172356   6.123   5.207  18.313
 7296TIP3    H272357   6.141   5.063  18.269
 7297TIP3   OH272358   5.827   4.411  18.217
 7297TIP3    H172359   5.862   4.493  18.181
 7297TIP3    H272360   5.782   4.370  18.143
 7298TIP3   OH272361   6.674   5.371  18.144
 7298TIP3    H172362   6.591   5.325  18.133
 7298TIP3    H272363   6.736   5.303  18.170
 7299TIP3   OH272364   6.196   4.930  18.161
 7299TIP3    H172365   6.217   4.855  18.216
 7299TIP3    H272366   6.268   4.935  18.098
 7300TIP3   OH272367   6.229   4.727  18.351
 7300TIP3    H172368   6.153   4.760  18.399
 7300TIP3    H272369   6.202   4.640  18.321
 7301TIP3   OH272370   6.474   4.582  18.192
 7301TIP3    H172371   6.454   4.585  18.098
 7301TIP3    H272372   6.519   4.664  18.209
 7302TIP3   OH272373   6.463   5.670  18.361
 7302TIP3    H172374   6.554   5.650  18.337
 7302TIP3    H272375   6.435   5.735  18.297
 7303TIP3   OH272376   7.398   4.461  18.143
 7303TIP3    H172377   7.368   4.551  18.147
 7303TIP3    H272378   7.324   4.409  18.174
 7304TIP3   OH272379   5.901   3.829  18.334
 7304TIP3    H172380   5.936   3.913  18.303
 7304TIP3    H272381   5.808   3.846  18.348
 7305TIP3   OH272382   6.050   4.040  18.225
 7305TIP3    H172383   6.095   3.992  18.156
 7305TIP3    H272384   6.119   4.077  18.279
 7306TIP3   OH272385   6.722   5.617  18.271
 7306TIP3    H172386   6.755   5.665  18.195
 7306TIP3    H272387   6.707   5.528  18.238
 7307TIP3   OH272388   6.049   5.551  18.220
 7307TIP3    H172389   6.028   5.543  18.313
 7307TIP3    H272390   6.103   5.473  18.202
 7308TIP3   OH272391   8.009   4.822  18.380
 7308TIP3    H172392   7.959   4.783  18.451
 7308TIP3    H272393   7.964   4.905  18.362
 7309TIP3   OH272394   7.954   5.085  18.278
 7309TIP3    H172395   8.027   5.115  18.333
 7309TIP3    H272396   7.996   5.052  18.198
 7310TIP3   OH272397   8.068   4.895  18.107
 7310TIP3    H172398   8.066   4.852  18.193
 7310TIP3    H272399   8.138   4.850  18.060
 7311TIP3   OH272400   7.692   5.098  18.217
 7311TIP3    H172401   7.783   5.104  18.247
 7311TIP3    H272402   7.671   5.005  18.221
 7312TIP3   OH272403   7.865   5.526  18.126
 7312TIP3    H172404   7.879   5.512  18.219
 7312TIP3    H272405   7.934   5.477  18.083
 7313TIP3   OH272406   1.368   6.543  18.459
 7313TIP3    H172407   1.463   6.552  18.446
 7313TIP3    H272408   1.330   6.566  18.374
 7314TIP3   OH272409   1.308   7.406  18.318
 7314TIP3    H172410   1.356   7.341  18.267
 7314TIP3    H272411   1.336   7.391  18.408
 7315TIP3   OH272412   1.407   6.622  18.178
 7315TIP3    H172413   1.390   6.624  18.084
 7315TIP3    H272414   1.501   6.638  18.186
 7316TIP3   OH272415   0.132   6.121  18.453
 7316TIP3    H172416   0.224   6.142  18.439
 7316TIP3    H272417   0.084   6.193  18.411
 7317TIP3   OH272418   1.305   6.269  18.503
 7317TIP3    H172419   1.323   6.234  18.416
 7317TIP3    H272420   1.325   6.362  18.496
 7318TIP3   OH272421   1.038   6.971  18.407
 7318TIP3    H172422   1.010   7.057  18.438
 7318TIP3    H272423   0.969   6.911  18.436
 7319TIP3   OH272424   1.807   6.330  18.460
 7319TIP3    H172425   1.746   6.311  18.390
 7319TIP3    H272426   1.820   6.425  18.456
 7320TIP3   OH272427   0.225   6.616  18.203
 7320TIP3    H172428   0.209   6.704  18.237
 7320TIP3    H272429   0.166   6.560  18.253
 7321TIP3   OH272430   1.447   6.993  18.282
 7321TIP3    H172431   1.434   6.974  18.375
 7321TIP3    H272432   1.367   6.961  18.239
 7322TIP3   OH272433   0.839   7.025  18.105
 7322TIP3    H172434   0.815   6.956  18.044
 7322TIP3    H272435   0.777   7.015  18.178
 7323TIP3   OH272436   0.925   7.215  18.480
 7323TIP3    H172437   0.833   7.202  18.456
 7323TIP3    H272438   0.955   7.286  18.423
 7324TIP3   OH272439   0.221   6.274  18.184
 7324TIP3    H172440   0.258   6.340  18.125
 7324TIP3    H272441   0.242   6.190  18.143
 7325TIP3   OH272442   1.000   7.247  18.121
 7325TIP3    H172443   0.944   7.170  18.116
 7325TIP3    H272444   1.084   7.217  18.086
 7326TIP3   OH272445   1.465   7.239  18.166
 7326TIP3    H172446   1.467   7.154  18.211
 7326TIP3    H272447   1.557   7.262  18.153
 7327TIP3   OH272448   1.195   6.937  18.184
 7327TIP3    H172449   1.139   6.954  18.259
 7327TIP3    H272450   1.160   6.857  18.145
 7328TIP3   OH272451   1.683   6.668  18.182
 7328TIP3    H172452   1.703   6.644  18.092
 7328TIP3    H272453   1.694   6.763  18.185
 7329TIP3   OH272454   0.825   7.603  18.413
 7329TIP3    H172455   0.895   7.540  18.398
 7329TIP3    H272456   0.812   7.645  18.328
 7330TIP3   OH272457   0.162   6.883  18.292
 7330TIP3    H172458   0.257   6.900  18.293
 7330TIP3    H272459   0.136   6.896  18.201
 7331TIP3   OH272460   1.807   6.618  18.434
 7331TIP3    H172461   1.758   6.624  18.351
 7331TIP3    H272462   1.883   6.675  18.421
 7332TIP3   OH272463   1.643   6.289  18.242
 7332TIP3    H172464   1.630   6.345  18.166
 7332TIP3    H272465   1.628   6.200  18.210
 7333TIP3   OH272466   1.614   6.033  18.135
 7333TIP3    H172467   1.697   5.988  18.152
 7333TIP3    H272468   1.596   6.016  18.043
 7334TIP3   OH272469   1.868   5.931  18.195
 7334TIP3    H172470   1.892   5.868  18.263
 7334TIP3    H272471   1.907   6.013  18.224
 7335TIP3   OH272472   1.024   7.425  18.329
 7335TIP3    H172473   1.118   7.441  18.333
 7335TIP3    H272474   1.011   7.377  18.247
 7336TIP3   OH272475   0.311   7.418  18.178
 7336TIP3    H172476   0.312   7.456  18.266
 7336TIP3    H272477   0.401   7.386  18.165
 7337TIP3   OH272478   2.966   6.457  18.219
 7337TIP3    H172479   3.021   6.474  18.295
 7337TIP3    H272480   3.022   6.410  18.158
 7338TIP3   OH272481   3.165   6.519  18.401
 7338TIP3    H172482   3.147   6.593  18.459
 7338TIP3    H272483   3.234   6.550  18.343
 7339TIP3   OH272484   3.511   5.673  18.395
 7339TIP3    H172485   3.424   5.659  18.358
 7339TIP3    H272486   3.540   5.757  18.360
 7340TIP3   OH272487   3.164   7.418  18.317
 7340TIP3    H172488   3.170   7.323  18.323
 7340TIP3    H272489   3.226   7.450  18.383
 7341TIP3   OH272490   3.351   6.619  18.232
 7341TIP3    H172491   3.324   6.616  18.140
 7341TIP3    H272492   3.442   6.648  18.229
 7342TIP3   OH272493   1.984   6.157  18.305
 7342TIP3    H172494   2.052   6.116  18.357
 7342TIP3    H272495   1.935   6.210  18.367
 7343TIP3   OH272496   2.484   6.320  18.281
 7343TIP3    H172497   2.458   6.297  18.192
 7343TIP3    H272498   2.560   6.376  18.270
 7344TIP3   OH272499   3.152   6.261  18.494
 7344TIP3    H172500   3.229   6.213  18.463
 7344TIP3    H272501   3.161   6.348  18.456
 7345TIP3   OH272502   2.941   6.982  18.399
 7345TIP3    H172503   2.920   7.072  18.425
 7345TIP3    H272504   2.855   6.940  18.391
 7346TIP3   OH272505   3.677   6.315  18.444
 7346TIP3    H172506   3.623   6.304  18.365
 7346TIP3    H272507   3.699   6.408  18.445
 7347TIP3   OH272508   2.697   7.054  18.138
 7347TIP3    H172509   2.688   6.975  18.083
 7347TIP3    H272510   2.641   7.037  18.213
 7348TIP3   OH272511   2.543   7.039  18.366
 7348TIP3    H172512   2.448   7.032  18.355
 7348TIP3    H272513   2.556   7.127  18.402
 7349TIP3   OH272514   2.845   7.233  18.468
 7349TIP3    H172515   2.750   7.238  18.468
 7349TIP3    H272516   2.873   7.298  18.403
 7350TIP3   OH272517   2.576   7.295  18.467
 7350TIP3    H172518   2.584   7.385  18.435
 7350TIP3    H272519   2.525   7.303  18.547
 7351TIP3   OH272520   2.444   6.076  18.410
 7351TIP3    H172521   2.460   6.163  18.374
 7351TIP3    H272522   2.482   6.080  18.498
 7352TIP3   OH272523   2.162   6.305  18.136
 7352TIP3    H172524   2.191   6.353  18.214
 7352TIP3    H272525   2.096   6.244  18.170
 7353TIP3   OH272526   2.869   7.260  18.125
 7353TIP3    H172527   2.810   7.185  18.131
 7353TIP3    H272528   2.953   7.223  18.098
 7354TIP3   OH272529   3.038   6.956  18.137
 7354TIP3    H172530   3.001   6.960  18.226
 7354TIP3    H272531   3.027   6.864  18.111
 7355TIP3   OH272532   2.536   6.561  18.464
 7355TIP3    H172533   2.478   6.491  18.434
 7355TIP3    H272534   2.603   6.567  18.396
 7356TIP3   OH272535   2.690   6.492  18.227
 7356TIP3    H172536   2.679   6.528  18.139
 7356TIP3    H272537   2.784   6.477  18.235
 7357TIP3   OH272538   3.620   6.697  18.186
 7357TIP3    H172539   3.609   6.660  18.098
 7357TIP3    H272540   3.665   6.780  18.171
 7358TIP3   OH272541   2.649   7.546  18.370
 7358TIP3    H172542   2.739   7.518  18.351
 7358TIP3    H272543   2.628   7.607  18.300
 7359TIP3   OH272544   3.733   6.599  18.421
 7359TIP3    H172545   3.681   6.620  18.343
 7359TIP3    H272546   3.789   6.675  18.433
 7360TIP3   OH272547   3.539   6.286  18.204
 7360TIP3    H172548   3.524   6.331  18.121
 7360TIP3    H272549   3.508   6.196  18.188
 7361TIP3   OH272550   3.467   6.027  18.146
 7361TIP3    H172551   3.525   5.979  18.205
 7361TIP3    H272552   3.394   5.968  18.131
 7362TIP3   OH272553   3.658   5.886  18.281
 7362TIP3    H172554   3.719   5.833  18.230
 7362TIP3    H272555   3.712   5.949  18.327
 7363TIP3   OH272556   2.244   5.984  18.239
 7363TIP3    H172557   2.295   5.969  18.159
 7363TIP3    H272558   2.309   6.009  18.304
 7364TIP3   OH272559   2.896   7.455  18.309
 7364TIP3    H172560   2.992   7.466  18.310
 7364TIP3    H272561   2.879   7.402  18.231
 7365TIP3   OH272562   4.858   6.434  18.277
 7365TIP3    H172563   4.926   6.480  18.325
 7365TIP3    H272564   4.904   6.394  18.203
 7366TIP3   OH272565   5.063   6.532  18.435
 7366TIP3    H172566   5.059   6.610  18.490
 7366TIP3    H272567   5.115   6.558  18.359
 7367TIP3   OH272568   5.417   5.734  18.388
 7367TIP3    H172569   5.341   5.779  18.427
 7367TIP3    H272570   5.470   5.805  18.352
 7368TIP3   OH272571   5.186   6.608  18.207
 7368TIP3    H172572   5.198   6.552  18.130
 7368TIP3    H272573   5.273   6.647  18.222
 7369TIP3   OH272574   4.702   6.008  18.289
 7369TIP3    H172575   4.635   6.060  18.333
 7369TIP3    H272576   4.668   5.918  18.294
 7370TIP3   OH272577   3.822   6.078  18.393
 7370TIP3    H172578   3.903   6.109  18.352
 7370TIP3    H272579   3.775   6.157  18.417
 7371TIP3   OH272580   4.975   6.095  18.266
 7371TIP3    H172581   4.884   6.072  18.283
 7371TIP3    H272582   5.004   6.139  18.346
 7372TIP3   OH272583   5.103   6.258  18.475
 7372TIP3    H172584   5.195   6.244  18.453
 7372TIP3    H272585   5.090   6.353  18.463
 7373TIP3   OH272586   5.504   6.307  18.477
 7373TIP3    H172587   5.480   6.298  18.384
 7373TIP3    H272588   5.531   6.398  18.486
 7374TIP3   OH272589   3.984   6.539  18.288
 7374TIP3    H172590   4.022   6.614  18.334
 7374TIP3    H272591   3.898   6.527  18.328
 7375TIP3   OH272592   4.033   6.775  18.434
 7375TIP3    H172593   4.065   6.796  18.522
 7375TIP3    H272594   4.077   6.838  18.377
 7376TIP3   OH272595   4.175   7.000  18.326
 7376TIP3    H172596   4.190   7.091  18.301
 7376TIP3    H272597   4.230   6.949  18.266
 7377TIP3   OH272598   4.320   6.841  18.160
 7377TIP3    H172599   4.341   6.774  18.226
 7377TIP3    H272600   4.395   6.841  18.101
 7378TIP3   OH272601   4.401   6.659  18.348
 7378TIP3    H172602   4.425   6.644  18.439
 7378TIP3    H272603   4.460   6.601  18.298
 7379TIP3   OH272604   4.587   6.485  18.242
 7379TIP3    H172605   4.575   6.498  18.148
 7379TIP3    H272606   4.680   6.464  18.252
 7380TIP3   OH272607   5.437   6.724  18.216
 7380TIP3    H172608   5.449   6.700  18.124
 7380TIP3    H272609   5.450   6.819  18.218
 7381TIP3   OH272610   4.506   7.503  18.321
 7381TIP3    H172611   4.533   7.419  18.359
 7381TIP3    H272612   4.486   7.484  18.230
 7382TIP3   OH272613   3.930   7.052  18.177
 7382TIP3    H172614   3.990   7.019  18.245
 7382TIP3    H272615   3.898   6.973  18.133
 7383TIP3   OH272616   5.564   6.584  18.434
 7383TIP3    H172617   5.512   6.621  18.363
 7383TIP3    H272618   5.651   6.624  18.423
 7384TIP3   OH272619   5.431   6.306  18.211
 7384TIP3    H172620   5.480   6.349  18.141
 7384TIP3    H272621   5.399   6.225  18.171
 7385TIP3   OH272622   5.332   6.057  18.144
 7385TIP3    H172623   5.324   6.008  18.226
 7385TIP3    H272624   5.262   6.022  18.089
 7386TIP3   OH272625   5.585   5.925  18.278
 7386TIP3    H172626   5.602   5.875  18.199
 7386TIP3    H272627   5.579   6.016  18.248
 7387TIP3   OH272628   3.905   5.758  18.425
 7387TIP3    H172629   3.921   5.849  18.398
 7387TIP3    H272630   3.930   5.755  18.517
 7388TIP3   OH272631   7.118   6.598  18.121
 7388TIP3    H172632   7.066   6.670  18.085
 7388TIP3    H272633   7.203   6.607  18.079
 7389TIP3   OH272634   6.619   6.010  18.310
 7389TIP3    H172635   6.578   6.091  18.280
 7389TIP3    H272636   6.571   5.941  18.264
 7390TIP3   OH272637   6.874   6.173  18.316
 7390TIP3    H172638   6.813   6.100  18.306
 7390TIP3    H272639   6.847   6.216  18.397
 7391TIP3   OH272640   6.318   7.134  18.345
 7391TIP3    H172641   6.388   7.070  18.357
 7391TIP3    H272642   6.345   7.209  18.399
 7392TIP3   OH272643   6.414   7.362  18.478
 7392TIP3    H172644   6.409   7.428  18.409
 7392TIP3    H272645   6.376   7.405  18.555
 7393TIP3   OH272646   6.079   6.990  18.375
 7393TIP3    H172647   6.150   7.054  18.365
 7393TIP3    H272648   6.122   6.905  18.371
 7394TIP3   OH272649   6.394   7.531  18.256
 7394TIP3    H172650   6.391   7.605  18.195
 7394TIP3    H272651   6.352   7.460  18.209
 7395TIP3   OH272652   5.867   7.030  18.196
 7395TIP3    H172653   5.938   7.018  18.259
 7395TIP3    H272654   5.788   7.010  18.245
 7396TIP3   OH272655   5.754   5.812  18.457
 7396TIP3    H172656   5.754   5.720  18.433
 7396TIP3    H272657   5.699   5.854  18.391
 7397TIP3   OH272658   6.033   7.451  18.198
 7397TIP3    H172659   6.029   7.449  18.294
 7397TIP3    H272660   6.116   7.409  18.177
 7398TIP3   OH272661   8.135   6.325  18.322
 7398TIP3    H172662   8.061   6.321  18.261
 7398TIP3    H272663   0.069   6.315  18.267
 7399TIP3   OH272664   7.823   6.716  18.407
 7399TIP3    H172665   7.738   6.744  18.439
 7399TIP3    H272666   7.875   6.796  18.406
 7400TIP3   OH272667   0.008   5.879  18.435
 7400TIP3    H172668   0.050   5.965  18.444
 7400TIP3    H272669   0.066   5.830  18.377
 7401TIP3   OH272670   7.953   6.962  18.393
 7401TIP3    H172671   7.962   7.057  18.403
 7401TIP3    H272672   7.973   6.946  18.301
 7402TIP3   OH272673   7.997   6.846  18.144
 7402TIP3    H172674   8.001   6.761  18.187
 7402TIP3    H272675   8.080   6.852  18.096
 7403TIP3   OH272676   7.906   5.897  18.305
 7403TIP3    H172677   7.912   5.865  18.215
 7403TIP3    H272678   7.996   5.907  18.334
 7404TIP3   OH272679   7.726   7.298  18.277
 7404TIP3    H172680   7.667   7.372  18.294
 7404TIP3    H272681   7.809   7.338  18.253
 7405TIP3   OH272682   1.070   7.795  18.314
 7405TIP3    H172683   1.027   7.825  18.395
 7405TIP3    H272684   0.997   7.767  18.258
 7406TIP3   OH272685   0.698   7.963  18.143
 7406TIP3    H172686   0.657   7.944  18.228
 7406TIP3    H272687   0.625   7.994  18.089
 7407TIP3   OH272688   0.293   8.079  18.412
 7407TIP3    H172689   0.245   8.060  18.332
 7407TIP3    H272690   0.277   0.028  18.428
 7408TIP3   OH272691   1.334   7.936  18.446
 7408TIP3    H172692   1.278   7.871  18.405
 7408TIP3    H272693   1.338   8.008  18.383
 7409TIP3   OH272694   0.577   7.868  18.381
 7409TIP3    H172695   0.554   7.929  18.451
 7409TIP3    H272696   0.634   7.804  18.423
 7410TIP3   OH272697   1.575   7.839  18.132
 7410TIP3    H172698   1.601   7.884  18.213
 7410TIP3    H272699   1.481   7.855  18.125
 7411TIP3   OH272700   0.305   7.574  18.405
 7411TIP3    H172701   0.324   7.645  18.344
 7411TIP3    H272702   0.255   7.615  18.475
 7412TIP3   OH272703   0.372   7.779  18.215
 7412TIP3    H172704   0.419   7.720  18.157
 7412TIP3    H272705   0.440   7.816  18.272
 7413TIP3   OH272706   2.866   7.895  18.272
 7413TIP3    H172707   2.839   7.887  18.363
 7413TIP3    H272708   2.825   7.820  18.228
 7414TIP3   OH272709   2.527   7.906  18.120
 7414TIP3    H172710   2.453   7.921  18.178
 7414TIP3    H272711   2.494   7.927  18.032
 7415TIP3   OH272712   3.127   7.966  18.349
 7415TIP3    H172713   3.037   7.942  18.326
 7415TIP3    H272714   3.136   8.057  18.321
 7416TIP3   OH272715   3.464   7.949  18.133
 7416TIP3    H172716   3.461   7.960  18.228
 7416TIP3    H272717   3.378   7.911  18.111
 7417TIP3   OH272718   4.801   7.858  18.310
 7417TIP3    H172719   4.729   7.912  18.277
 7417TIP3    H272720   4.781   7.770  18.277
 7418TIP3   OH272721   4.378   7.856  18.098
 7418TIP3    H172722   4.318   7.788  18.128
 7418TIP3    H272723   4.320   7.928  18.070
 7419TIP3   OH272724   3.919   8.051  18.386
 7419TIP3    H172725   3.931   7.985  18.318
 7419TIP3    H272726   3.855   8.113  18.348
 7420TIP3   OH272727   5.022   8.023  18.294
 7420TIP3    H172728   4.941   7.974  18.305
 7420TIP3    H272729   5.047   8.048  18.383
 7421TIP3   OH272730   4.249   7.671  18.258
 7421TIP3    H172731   4.264   7.714  18.342
 7421TIP3    H272732   4.303   7.592  18.261
 7422TIP3   OH272733   5.369   7.825  18.146
 7422TIP3    H172734   5.377   7.840  18.240
 7422TIP3    H272735   5.276   7.833  18.128
 7423TIP3   OH272736   7.311   7.570  18.415
 7423TIP3    H172737   7.310   7.490  18.362
 7423TIP3    H272738   7.332   7.640  18.353
 7424TIP3   OH272739   6.881   7.912  18.360
 7424TIP3    H172740   6.812   7.971  18.330
 7424TIP3    H272741   6.900   7.941  18.449
 7425TIP3   OH272742   7.204   8.003  18.200
 7425TIP3    H172743   7.263   7.947  18.249
 7425TIP3    H272744   7.200   7.965  18.113
 7426TIP3   OH272745   7.398   7.799  18.251
 7426TIP3    H172746   7.387   7.763  18.163
 7426TIP3    H272747   7.462   7.869  18.241
 7427TIP3   OH272748   5.778   7.698  18.463
 7427TIP3    H172749   5.821   7.769  18.416
 7427TIP3    H272750   5.764   7.630  18.397
 7428TIP3   OH272751   7.551   8.022  18.312
 7428TIP3    H172752   7.569   8.111  18.281
 7428TIP3    H272753   7.549   8.031  18.408
 7429TIP3   OH272754   0.212   7.852  18.534
 7429TIP3    H172755   0.154   7.839  18.459
 7429TIP3    H272756   0.255   7.936  18.519
 7430TIP3   OH272757   7.589   7.529  18.288
 7430TIP3    H172758   7.630   7.607  18.326
 7430TIP3    H272759   7.547   7.560  18.209
 7431TIP3   OH272760   7.779   7.700  18.400
 7431TIP3    H172761   7.819   7.672  18.318
 7431TIP3    H272762   7.853   7.711  18.460
 7432TIP3   OH272763   1.200   1.048  19.153
 7432TIP3    H172764   1.194   1.142  19.139
 7432TIP3    H272765   1.130   1.011  19.099
 7433TIP3   OH272766   0.991   0.935   0.102
 7433TIP3    H172767   1.085   0.949   0.096
 7433TIP3    H272768   0.976   0.854   0.052
 7434TIP3   OH272769   0.279   0.937  19.275
 7434TIP3    H172770   0.285   0.843  19.290
 7434TIP3    H272771   0.313   0.950  19.187
 7435TIP3   OH272772   0.869   1.189   0.089
 7435TIP3    H172773   0.899   1.098   0.078
 7435TIP3    H272774   0.925   1.225   0.157
 7436TIP3   OH272775   1.832   0.354   0.169
 7436TIP3    H172776   1.816   0.399   0.252
 7436TIP3    H272777   1.838   0.424   0.105
 7437TIP3   OH272778   1.278   0.614   0.105
 7437TIP3    H172779   1.370   0.598   0.083
 7437TIP3    H272780   1.236   0.630   0.020
 7438TIP3   OH272781   0.597   0.418  19.304
 7438TIP3    H172782   0.592   0.498  19.252
 7438TIP3    H272783   0.561   0.349  19.247
 7439TIP3   OH272784   1.427   0.529  19.273
 7439TIP3    H172785   1.473   0.458  19.317
 7439TIP3    H272786   1.486   0.555  19.201
 7440TIP3   OH272787   0.271   0.667  19.323
 7440TIP3    H172788   0.335   0.621  19.377
 7440TIP3    H272789   0.265   0.614  19.243
 7441TIP3   OH272790   0.693   0.811  19.337
 7441TIP3    H172791   0.781   0.776  19.353
 7441TIP3    H272792   0.654   0.749  19.275
 7442TIP3   OH272793   1.776   0.422   0.435
 7442TIP3    H172794   1.706   0.485   0.450
 7442TIP3    H272795   1.837   0.435   0.508
 7443TIP3   OH272796   0.459   0.358   0.247
 7443TIP3    H172797   0.445   0.426   0.181
 7443TIP3    H272798   0.396   0.379   0.316
 7444TIP3   OH272799   1.173   1.305  19.065
 7444TIP3    H172800   1.157   1.306  18.970
 7444TIP3    H272801   1.149   1.393  19.094
 7445TIP3   OH272802   0.442   0.529   0.028
 7445TIP3    H172803   0.490   0.589   0.085
 7445TIP3    H272804   0.508   0.491  19.444
 7446TIP3   OH272805   0.794   0.067  19.457
 7446TIP3    H172806   0.828   0.009   0.053
 7446TIP3    H272807   0.718   0.110   0.025
 7447TIP3   OH272808   1.046   0.954  18.936
 7447TIP3    H172809   0.979   1.019  18.911
 7447TIP3    H272810   1.109   0.956  18.864
 7448TIP3   OH272811   1.076   0.826  18.587
 7448TIP3    H172812   1.132   0.840  18.663
 7448TIP3    H272813   1.137   0.827  18.512
 7449TIP3   OH272814   1.793   0.867   0.222
 7449TIP3    H172815   1.711   0.909   0.199
 7449TIP3    H272816   1.860   0.916   0.174
 7450TIP3   OH272817   1.406   0.954  18.999
 7450TIP3    H172818   1.341   0.988  19.059
 7450TIP3    H272819   1.483   0.936  19.054
 7451TIP3   OH272820   0.587   1.044  19.219
 7451TIP3    H172821   0.531   1.010  19.150
 7451TIP3    H272822   0.629   0.966  19.256
 7452TIP3   OH272823   0.739   1.386  19.407
 7452TIP3    H172824   0.645   1.368  19.409
 7452TIP3    H272825   0.778   1.316  19.458
 7453TIP3   OH272826   0.612   0.921   0.114
 7453TIP3    H172827   0.663   0.892   0.039
 7453TIP3    H272828   0.552   0.987   0.079
 7454TIP3   OH272829   0.729   1.371   0.591
 7454TIP3    H172830   0.668   1.434   0.629
 7454TIP3    H272831   0.735   1.395   0.499
 7455TIP3   OH272832   1.273   0.921  18.767
 7455TIP3    H172833   1.322   0.939  18.847
 7455TIP3    H272834   1.311   0.980  18.702
 7456TIP3   OH272835   1.094   1.560  19.148
 7456TIP3    H172836   1.148   1.626  19.192
 7456TIP3    H272837   1.008   1.568  19.189
 7457TIP3   OH272838   0.534   1.558   0.655
 7457TIP3    H172839   0.538   1.579   0.561
 7457TIP3    H272840   0.447   1.519   0.667
 7458TIP3   OH272841   0.402   0.956  19.023
 7458TIP3    H172842   0.381   1.028  18.963
 7458TIP3    H272843   0.410   0.879  18.967
 7459TIP3   OH272844   0.403   1.726  19.188
 7459TIP3    H172845   0.413   1.792  19.256
 7459TIP3    H272846   0.332   1.759  19.133
 7460TIP3   OH272847   0.548   0.150   0.090
 7460TIP3    H172848   0.514   0.174   0.004
 7460TIP3    H272849   0.515   0.220   0.148
 7461TIP3   OH272850   0.561   0.680   0.223
 7461TIP3    H172851   0.516   0.700   0.305
 7461TIP3    H272852   0.580   0.765   0.184
 7462TIP3   OH272853   0.546   0.643  19.154
 7462TIP3    H172854   0.453   0.637  19.136
 7462TIP3    H272855   0.589   0.622  19.071
 7463TIP3   OH272856   1.104   0.707  19.051
 7463TIP3    H172857   1.080   0.792  19.015
 7463TIP3    H272858   1.182   0.681  19.001
 7464TIP3   OH272859   1.050   0.761   0.747
 7464TIP3    H172860   1.003   0.678   0.749
 7464TIP3    H272861   1.141   0.737   0.768
 7465TIP3   OH272862   1.189   0.655  19.311
 7465TIP3    H172863   1.156   0.684  19.225
 7465TIP3    H272864   1.262   0.597  19.290
 7466TIP3   OH272865   0.044   0.446  19.262
 7466TIP3    H172866   0.097   0.446  19.341
 7466TIP3    H272867   0.106   0.456  19.190
 7467TIP3   OH272868   0.230   0.517  18.805
 7467TIP3    H172869   0.285   0.451  18.763
 7467TIP3    H272870   0.174   0.550  18.734
 7468TIP3   OH272871   0.877   0.439  19.311
 7468TIP3    H172872   0.787   0.409  19.323
 7468TIP3    H272873   0.931   0.362  19.332
 7469TIP3   OH272874   0.279   0.509  19.090
 7469TIP3    H172875   0.250   0.524  19.000
 7469TIP3    H272876   0.338   0.434  19.084
 7470TIP3   OH272877   0.639   0.564  18.906
 7470TIP3    H172878   0.728   0.577  18.938
 7470TIP3    H272879   0.634   0.618  18.827
 7471TIP3   OH272880   0.603   0.706  18.672
 7471TIP3    H172881   0.540   0.676  18.606
 7471TIP3    H272882   0.676   0.740  18.621
 7472TIP3   OH272883   0.936   0.685  19.426
 7472TIP3    H172884   1.026   0.692  19.395
 7472TIP3    H272885   0.909   0.598  19.398
 7473TIP3   OH272886   0.460   0.293  19.082
 7473TIP3    H172887   0.467   0.203  19.114
 7473TIP3    H272888   0.508   0.294  19.000
 7474TIP3   OH272889   0.801   0.545   0.204
 7474TIP3    H172890   0.722   0.598   0.208
 7474TIP3    H272891   0.864   0.599   0.155
 7475TIP3   OH272892   0.854   1.161  18.871
 7475TIP3    H172893   0.788   1.100  18.838
 7475TIP3    H272894   0.822   1.185  18.958
 7476TIP3   OH272895   1.342   0.660  18.919
 7476TIP3    H172896   1.427   0.658  18.963
 7476TIP3    H272897   1.346   0.739  18.865
 7477TIP3   OH272898   0.438   1.078  19.454
 7477TIP3    H172899   0.496   1.100  19.381
 7477TIP3    H272900   0.362   1.038  19.412
 7478TIP3   OH272901   1.078   1.302  18.798
 7478TIP3    H172902   1.042   1.390  18.786
 7478TIP3    H272903   1.003   1.249  18.823
 7479TIP3   OH272904   0.827   0.920   0.699
 7479TIP3    H172905   0.808   0.916   0.605
 7479TIP3    H272906   0.910   0.873   0.709
 7480TIP3   OH272907   1.800   1.222   0.632
 7480TIP3    H172908   1.754   1.306   0.635
 7480TIP3    H272909   1.850   1.226   0.550
 7481TIP3   OH272910   1.263   0.976   0.053
 7481TIP3    H172911   1.276   1.055   0.002
 7481TIP3    H272912   1.328   0.915   0.020
 7482TIP3   OH272913   0.252   0.985  18.641
 7482TIP3    H172914   0.274   1.031  18.722
 7482TIP3    H272915   0.316   1.017  18.577
 7483TIP3   OH272916   0.766   1.230  19.123
 7483TIP3    H172917   0.790   1.288  19.196
 7483TIP3    H272918   0.705   1.167  19.162
 7484TIP3   OH272919   0.872   1.622   0.327
 7484TIP3    H172920   0.891   1.710   0.296
 7484TIP3    H272921   0.948   1.597   0.379
 7485TIP3   OH272922   0.654   1.754  19.023
 7485TIP3    H172923   0.574   1.717  19.062
 7485TIP3    H272924   0.683   1.820  19.086
 7486TIP3   OH272925   0.285   0.424   0.445
 7486TIP3    H172926   0.197   0.392   0.424
 7486TIP3    H272927   0.317   0.363   0.512
 7487TIP3   OH272928   0.690   1.385  18.757
 7487TIP3    H172929   0.763   1.326  18.778
 7487TIP3    H272930   0.732   1.470  18.742
 7488TIP3   OH272931   0.325   1.155  18.843
 7488TIP3    H172932   0.300   1.211  18.916
 7488TIP3    H272933   0.347   1.216  18.773
 7489TIP3   OH272934   0.953   1.535  18.714
 7489TIP3    H172935   0.883   1.600  18.701
 7489TIP3    H272936   0.980   1.511  18.625
 7490TIP3   OH272937   0.866   0.569  19.061
 7490TIP3    H172938   0.947   0.618  19.051
 7490TIP3    H272939   0.874   0.526  19.146
 7491TIP3   OH272940   0.727   1.707  18.750
 7491TIP3    H172941   0.757   1.797  18.735
 7491TIP3    H272942   0.689   1.709  18.837
 7492TIP3   OH272943   0.619   0.297  18.847
 7492TIP3    H172944   0.619   0.391  18.868
 7492TIP3    H272945   0.708   0.279  18.818
 7493TIP3   OH272946   1.448   0.806  19.401
 7493TIP3    H172947   1.386   0.749  19.355
 7493TIP3    H272948   1.495   0.748  19.461
 7494TIP3   OH272949   0.229   0.146   0.097
 7494TIP3    H172950   0.307   0.134   0.043
 7494TIP3    H272951   0.156   0.115   0.043
 7495TIP3   OH272952   0.638   1.666   0.888
 7495TIP3    H172953   0.686   1.588   0.915
 7495TIP3    H272954   0.598   1.642   0.804
 7496TIP3   OH272955   0.763   1.192   0.796
 7496TIP3    H172956   0.759   1.245   0.717
 7496TIP3    H272957   0.789   1.105   0.765
 7497TIP3   OH272958   1.072   1.373  18.520
 7497TIP3    H172959   1.099   1.327  18.599
 7497TIP3    H272960   1.035   1.305  18.464
 7498TIP3   OH272961   0.243   0.813   0.828
 7498TIP3    H172962   0.332   0.780   0.819
 7498TIP3    H272963   0.220   0.844   0.740
 7499TIP3   OH272964   0.695   0.966  18.758
 7499TIP3    H172965   0.632   0.894  18.767
 7499TIP3    H272966   0.744   0.946  18.678
 7500TIP3   OH272967   0.807   0.830  18.537
 7500TIP3    H172968   0.806   0.851  18.444
 7500TIP3    H272969   0.900   0.822  18.559
 7501TIP3   OH272970   1.155   1.045   0.859
 7501TIP3    H172971   1.228   1.024   0.801
 7501TIP3    H272972   1.096   0.970   0.853
 7502TIP3   OH272973   0.662   0.539   0.622
 7502TIP3    H172974   0.666   0.473   0.552
 7502TIP3    H272975   0.727   0.604   0.597
 7503TIP3   OH272976   0.690   0.377   0.394
 7503TIP3    H172977   0.751   0.423   0.336
 7503TIP3    H272978   0.608   0.373   0.345
 7504TIP3   OH272979   0.820   0.890   0.415
 7504TIP3    H172980   0.909   0.891   0.379
 7504TIP3    H272981   0.764   0.915   0.342
 7505TIP3   OH272982   1.270   0.684   0.900
 7505TIP3    H172983   1.272   0.621   0.972
 7505TIP3    H272984   1.334   0.751   0.925
 7506TIP3   OH272985   1.372   0.965   0.703
 7506TIP3    H172986   1.335   0.944   0.617
 7506TIP3    H272987   1.464   0.984   0.686
 7507TIP3   OH272988   0.469   0.659   0.790
 7507TIP3    H172989   0.409   0.584   0.792
 7507TIP3    H272990   0.532   0.637   0.721
 7508TIP3   OH272991   0.652   0.096   0.394
 7508TIP3    H172992   0.680   0.185   0.417
 7508TIP3    H272993   0.611   0.105   0.308
 7509TIP3   OH272994   0.926   0.522   0.796
 7509TIP3    H172995   0.962   0.476   0.872
 7509TIP3    H272996   0.839   0.484   0.784
 7510TIP3   OH272997   0.308   0.441   0.816
 7510TIP3    H172998   0.316   0.379   0.743
 7510TIP3    H272999   0.321   0.388   0.894
 7511TIP3   OH273000   0.832   0.100   0.681
 7511TIP3    H173001   0.873   0.017   0.706
 7511TIP3    H273002   0.868   0.119   0.594
 7512TIP3   OH273003   0.802   0.201   0.936
 7512TIP3    H173004   0.823   0.164   0.851
 7512TIP3    H273005   0.739   0.271   0.918
 7513TIP3   OH273006   1.842   0.950  19.068
 7513TIP3    H173007   1.756   0.934  19.108
 7513TIP3    H273008   1.903   0.942  19.141
 7514TIP3   OH273009   1.807   1.206   0.151
 7514TIP3    H173010   1.871   1.144   0.117
 7514TIP3    H273011   1.755   1.230   0.075
 7515TIP3   OH273012   1.881   0.910  18.802
 7515TIP3    H173013   1.813   0.967  18.766
 7515TIP3    H273014   1.880   0.927  18.896
 7516TIP3   OH273015   1.598   0.871  19.178
 7516TIP3    H173016   1.612   0.779  19.156
 7516TIP3    H273017   1.553   0.868  19.263
 7517TIP3   OH273018   1.645   0.997   0.685
 7517TIP3    H173019   1.700   0.921   0.666
 7517TIP3    H273020   1.694   1.072   0.651
 7518TIP3   OH273021   1.819   0.782   0.668
 7518TIP3    H173022   1.811   0.689   0.688
 7518TIP3    H273023   1.898   0.811   0.715
 7519TIP3   OH273024   1.627   0.613  19.086
 7519TIP3    H173025   1.675   0.540  19.125
 7519TIP3    H273026   1.684   0.643  19.015
 7520TIP3   OH273027   1.568   0.630   0.103
 7520TIP3    H173028   1.655   0.612   0.068
 7520TIP3    H273029   1.578   0.622   0.198
 7521TIP3   OH273030   0.050   0.459   0.642
 7521TIP3    H173031   0.137   0.493   0.621
 7521TIP3    H273032   0.029   0.399   0.570
 7522TIP3   OH273033   0.195   0.411   0.009
 7522TIP3    H173034   0.200   0.328   0.057
 7522TIP3    H273035   0.281   0.451   0.025
 7523TIP3   OH273036   0.042   0.684   0.042
 7523TIP3    H173037   0.125   0.650   0.008
 7523TIP3    H273038   0.029   0.767  19.469
 7524TIP3   OH273039   7.993   0.329  18.842
 7524TIP3    H173040   8.080   0.298  18.868
 7524TIP3    H273041   7.997   0.424  18.851
 7525TIP3   OH273042   0.039   0.307   0.409
 7525TIP3    H173043   0.041   0.224   0.361
 7525TIP3    H273044   0.003   0.370   0.346
 7526TIP3   OH273045   0.602   1.608   0.392
 7526TIP3    H173046   0.567   1.683   0.344
 7526TIP3    H273047   0.695   1.607   0.369
 7527TIP3   OH273048   0.284   1.905   0.353
 7527TIP3    H173049   0.233   1.981   0.326
 7527TIP3    H273050   0.254   1.886   0.442
 7528TIP3   OH273051   0.534   1.844   0.262
 7528TIP3    H173052   0.445   1.861   0.292
 7528TIP3    H273053   0.550   1.909   0.194
 7529TIP3   OH273054   0.958   1.863   0.232
 7529TIP3    H173055   0.910   1.890   0.154
 7529TIP3    H273056   1.050   1.871   0.208
 7530TIP3   OH273057   0.783   1.651   0.035
 7530TIP3    H173058   0.767   1.569  19.460
 7530TIP3    H273059   0.791   1.624   0.126
 7531TIP3   OH273060   0.367   0.136  19.333
 7531TIP3    H173061   0.277   0.161  19.312
 7531TIP3    H273062   0.393   0.078  19.263
 7532TIP3   OH273063   0.241   0.109  18.714
 7532TIP3    H173064   0.297   0.179  18.681
 7532TIP3    H273065   0.174   0.097  18.647
 7533TIP3   OH273066   0.686   0.105  19.204
 7533TIP3    H173067   0.743   0.072  19.135
 7533TIP3    H273068   0.737   0.097  19.284
 7534TIP3   OH273069   0.168   1.749  18.930
 7534TIP3    H173070   0.154   1.707  18.845
 7534TIP3    H273071   0.244   1.806  18.915
 7535TIP3   OH273072   0.405   0.336  18.666
 7535TIP3    H173073   0.445   0.355  18.581
 7535TIP3    H273074   0.479   0.319  18.724
 7536TIP3   OH273075   0.348   0.242   0.635
 7536TIP3    H173076   0.273   0.184   0.650
 7536TIP3    H273077   0.419   0.203   0.685
 7537TIP3   OH273078   0.502   0.109   0.819
 7537TIP3    H173079   0.595   0.088   0.808
 7537TIP3    H273080   0.458   0.024   0.811
 7538TIP3   OH273081   2.972   0.957   0.021
 7538TIP3    H173082   2.969   0.871   0.063
 7538TIP3    H273083   2.992   0.939  19.402
 7539TIP3   OH273084   2.242   1.010   0.210
 7539TIP3    H173085   2.226   0.985   0.301
 7539TIP3    H273086   2.323   1.061   0.212
 7540TIP3   OH273087   3.338   1.238  19.342
 7540TIP3    H173088   3.311   1.163  19.394
 7540TIP3    H273089   3.338   1.312  19.403
 7541TIP3   OH273090   2.260   1.349  19.424
 7541TIP3    H173091   2.240   1.256  19.408
 7541TIP3    H273092   2.355   1.350  19.439
 7542TIP3   OH273093   2.006   0.913  19.291
 7542TIP3    H173094   2.029   0.822  19.310
 7542TIP3    H273095   2.089   0.960  19.300
 7543TIP3   OH273096   2.748   1.136   0.070
 7543TIP3    H173097   2.822   1.080   0.046
 7543TIP3    H273098   2.781   1.190   0.141
 7544TIP3   OH273099   2.083   0.657  19.390
 7544TIP3    H173100   2.177   0.675  19.395
 7544TIP3    H273101   2.078   0.561  19.392
 7545TIP3   OH273102   2.615   0.803  19.355
 7545TIP3    H173103   2.694   0.752  19.372
 7545TIP3    H273104   2.586   0.775  19.268
 7546TIP3   OH273105   2.291   0.333   0.174
 7546TIP3    H173106   2.320   0.362   0.088
 7546TIP3    H273107   2.341   0.387   0.236
 7547TIP3   OH273108   3.065   1.257  19.005
 7547TIP3    H173109   3.040   1.281  18.916
 7547TIP3    H273110   3.007   1.310  19.061
 7548TIP3   OH273111   2.399   1.295   0.311
 7548TIP3    H173112   2.419   1.383   0.282
 7548TIP3    H273113   2.327   1.306   0.373
 7549TIP3   OH273114   2.011   1.270  18.910
 7549TIP3    H173115   1.921   1.244  18.931
 7549TIP3    H273116   2.008   1.366  18.905
 7550TIP3   OH273117   3.311   1.450   0.047
 7550TIP3    H173118   3.260   1.516   0.000
 7550TIP3    H273119   3.378   1.501   0.093
 7551TIP3   OH273120   3.449   0.276   0.259
 7551TIP3    H173121   3.367   0.319   0.284
 7551TIP3    H273122   3.501   0.345   0.217
 7552TIP3   OH273123   3.339   1.279  19.061
 7552TIP3    H173124   3.245   1.270  19.047
 7552TIP3    H273125   3.351   1.263  19.154
 7553TIP3   OH273126   3.661   0.902   0.275
 7553TIP3    H173127   3.587   0.962   0.261
 7553TIP3    H273128   3.714   0.912   0.196
 7554TIP3   OH273129   2.409   0.986  19.201
 7554TIP3    H173130   2.401   0.949  19.113
 7554TIP3    H273131   2.501   0.972  19.224
 7555TIP3   OH273132   2.545   1.333  19.452
 7555TIP3    H173133   2.600   1.405  19.421
 7555TIP3    H273134   2.607   1.263   0.002
 7556TIP3   OH273135   2.550   0.940   0.116
 7556TIP3    H173136   2.558   0.892   0.033
 7556TIP3    H273137   2.600   1.020   0.102
 7557TIP3   OH273138   2.188   0.964   0.482
 7557TIP3    H173139   2.209   1.024   0.554
 7557TIP3    H273140   2.093   0.958   0.485
 7558TIP3   OH273141   2.370   0.860  18.946
 7558TIP3    H173142   2.307   0.928  18.923
 7558TIP3    H273143   2.382   0.810  18.865
 7559TIP3   OH273144   1.945   1.215   0.398
 7559TIP3    H173145   1.902   1.231   0.314
 7559TIP3    H273146   1.949   1.120   0.406
 7560TIP3   OH273147   3.734   1.569   0.670
 7560TIP3    H173148   3.727   1.474   0.668
 7560TIP3    H273149   3.644   1.600   0.670
 7561TIP3   OH273150   2.190   1.332   0.496
 7561TIP3    H173151   2.202   1.265   0.564
 7561TIP3    H273152   2.109   1.307   0.451
 7562TIP3   OH273153   2.552   0.719  19.102
 7562TIP3    H173154   2.488   0.765  19.048
 7562TIP3    H273155   2.580   0.645  19.047
 7563TIP3   OH273156   2.407   0.717  18.710
 7563TIP3    H173157   2.352   0.750  18.638
 7563TIP3    H273158   2.458   0.647  18.670
 7564TIP3   OH273159   2.210   1.147   0.699
 7564TIP3    H173160   2.287   1.141   0.755
 7564TIP3    H273161   2.137   1.159   0.760
 7565TIP3   OH273162   3.465   1.087   0.230
 7565TIP3    H173163   3.523   1.150   0.187
 7565TIP3    H273164   3.390   1.079   0.171
 7566TIP3   OH273165   2.225   1.054  19.389
 7566TIP3    H173166   2.295   1.040  19.325
 7566TIP3    H273167   2.266   1.034   0.001
 7567TIP3   OH273168   3.010   1.297  18.739
 7567TIP3    H173169   3.085   1.353  18.719
 7567TIP3    H273170   3.030   1.213  18.698
 7568TIP3   OH273171   1.912   0.942   0.460
 7568TIP3    H173172   1.880   0.883   0.528
 7568TIP3    H273173   1.874   0.908   0.379
 7569TIP3   OH273174   3.669   0.664  18.800
 7569TIP3    H173175   3.608   0.619  18.742
 7569TIP3    H273176   3.683   0.749  18.759
 7570TIP3   OH273177   3.686   1.299   0.646
 7570TIP3    H173178   3.593   1.285   0.667
 7570TIP3    H273179   3.695   1.266   0.557
 7571TIP3   OH273180   3.440   1.484  18.859
 7571TIP3    H173181   3.430   1.416  18.926
 7571TIP3    H273182   3.380   1.457  18.789
 7572TIP3   OH273183   3.250   1.042   0.054
 7572TIP3    H173184   3.154   1.040   0.063
 7572TIP3    H273185   3.272   0.957   0.016
 7573TIP3   OH273186   2.122   0.938  18.659
 7573TIP3    H173187   2.161   0.991  18.729
 7573TIP3    H273188   2.033   0.921  18.689
 7574TIP3   OH273189   3.274   1.359  18.674
 7574TIP3    H173190   3.323   1.284  18.708
 7574TIP3    H273191   3.288   1.356  18.579
 7575TIP3   OH273192   3.410   1.161  18.813
 7575TIP3    H173193   3.384   1.180  18.903
 7575TIP3    H273194   3.504   1.141  18.819
 7576TIP3   OH273195   2.222   1.090  18.864
 7576TIP3    H173196   2.149   1.147  18.887
 7576TIP3    H273197   2.300   1.137  18.896
 7577TIP3   OH273198   3.584   0.488   0.567
 7577TIP3    H173199   3.556   0.535   0.489
 7577TIP3    H273200   3.598   0.399   0.538
 7578TIP3   OH273201   3.280   0.798  19.409
 7578TIP3    H173202   3.245   0.781  19.322
 7578TIP3    H273203   3.339   0.725  19.426
 7579TIP3   OH273204   3.452   1.682   0.116
 7579TIP3    H173205   3.408   1.701   0.033
 7579TIP3    H273206   3.539   1.722   0.106
 7580TIP3   OH273207   2.177   0.132  19.351
 7580TIP3    H173208   2.158   0.086  19.269
 7580TIP3    H273209   2.185   0.062  19.416
 7581TIP3   OH273210   1.961   1.135   0.841
 7581TIP3    H173211   1.981   1.046   0.812
 7581TIP3    H273212   1.909   1.172   0.770
 7582TIP3   OH273213   2.657   1.228   0.794
 7582TIP3    H173214   2.618   1.279   0.723
 7582TIP3    H273215   2.716   1.167   0.750
 7583TIP3   OH273216   2.050   0.868   0.779
 7583TIP3    H173217   2.115   0.812   0.737
 7583TIP3    H273218   2.080   0.876   0.869
 7584TIP3   OH273219   3.049   0.983   0.857
 7584TIP3    H173220   3.144   0.989   0.856
 7584TIP3    H273221   3.027   0.949   0.770
 7585TIP3   OH273222   2.231   0.652   0.743
 7585TIP3    H173223   2.269   0.612   0.821
 7585TIP3    H273224   2.307   0.681   0.691
 7586TIP3   OH273225   3.682   1.846   0.147
 7586TIP3    H173226   3.680   1.801   0.231
 7586TIP3    H273227   3.762   1.814   0.105
 7587TIP3   OH273228   3.661   1.728   0.390
 7587TIP3    H173229   3.630   1.647   0.432
 7587TIP3    H273230   3.697   1.779   0.462
 7588TIP3   OH273231   3.511   1.314   0.888
 7588TIP3    H173232   3.426   1.341   0.923
 7588TIP3    H273233   3.574   1.376   0.925
 7589TIP3   OH273234   3.684   1.112  18.865
 7589TIP3    H173235   3.754   1.177  18.861
 7589TIP3    H273236   3.702   1.061  18.944
 7590TIP3   OH273237   3.712   0.959  19.119
 7590TIP3    H173238   3.635   0.992  19.165
 7590TIP3    H273239   3.785   0.972  19.180
 7591TIP3   OH273240   3.697   1.215   0.138
 7591TIP3    H173241   3.744   1.142   0.097
 7591TIP3    H273242   3.742   1.293   0.105
 7592TIP3   OH273243   3.721   0.902  18.677
 7592TIP3    H173244   3.707   0.922  18.584
 7592TIP3    H273245   3.693   0.981  18.723
 7593TIP3   OH273246   1.983   1.004   0.087
 7593TIP3    H173247   1.994   0.985  19.467
 7593TIP3    H273248   2.072   1.012   0.121
 7594TIP3   OH273249   3.542   0.954   0.692
 7594TIP3    H173250   3.587   0.870   0.692
 7594TIP3    H273251   3.561   0.992   0.607
 7595TIP3   OH273252   3.693   0.726   0.664
 7595TIP3    H173253   3.651   0.651   0.621
 7595TIP3    H273254   3.741   0.687   0.738
 7596TIP3   OH273255   3.482   0.358  18.435
 7596TIP3    H173256   3.492   0.263  18.434
 7596TIP3    H273257   3.390   0.373  18.416
 7597TIP3   OH273258   3.517   0.684   0.385
 7597TIP3    H173259   3.433   0.727   0.402
 7597TIP3    H273260   3.568   0.749   0.337
 7598TIP3   OH273261   3.497   0.190  19.008
 7598TIP3    H173262   3.497   0.196  19.103
 7598TIP3    H273263   3.464   0.102  18.990
 7599TIP3   OH273264   2.099   0.386  19.440
 7599TIP3    H173265   2.120   0.305  19.394
 7599TIP3    H273266   2.106   0.364   0.060
 7600TIP3   OH273267   1.845   0.627   0.075
 7600TIP3    H173268   1.918   0.641   0.015
 7600TIP3    H273269   1.844   0.706   0.130
 7601TIP3   OH273270   1.801   0.144   0.341
 7601TIP3    H173271   1.802   0.213   0.407
 7601TIP3    H273272   1.819   0.190   0.259
 7602TIP3   OH273273   2.458   1.576   0.284
 7602TIP3    H173274   2.437   1.669   0.283
 7602TIP3    H273275   2.553   1.572   0.296
 7603TIP3   OH273276   3.629   0.198   0.497
 7603TIP3    H173277   3.558   0.170   0.439
 7603TIP3    H273278   3.650   0.120   0.548
 7604TIP3   OH273279   2.176   1.979   0.398
 7604TIP3    H173280   2.084   1.957   0.389
 7604TIP3    H273281   2.186   2.005   0.490
 7605TIP3   OH273282   2.426   1.858   0.283
 7605TIP3    H173283   2.346   1.884   0.329
 7605TIP3    H273284   2.434   1.921   0.212
 7606TIP3   OH273285   3.400   1.901   0.278
 7606TIP3    H173286   3.306   1.911   0.290
 7606TIP3    H273287   3.410   1.812   0.242
 7607TIP3   OH273288   3.427   0.042  19.427
 7607TIP3    H173289   3.487   0.090  19.371
 7607TIP3    H273290   3.340   0.076  19.404
 7608TIP3   OH273291   3.608   0.175  19.263
 7608TIP3    H173292   3.665   0.115  19.216
 7608TIP3    H273293   3.641   0.262  19.241
 7609TIP3   OH273294   1.999   0.142  18.750
 7609TIP3    H173295   2.069   0.130  18.686
 7609TIP3    H273296   1.925   0.176  18.700
 7610TIP3   OH273297   2.564   0.037  19.240
 7610TIP3    H173298   2.628   0.012  19.174
 7610TIP3    H273299   2.605   0.014  19.323
 7611TIP3   OH273300   3.134   0.039  19.350
 7611TIP3    H173301   3.154   8.139  19.267
 7611TIP3    H273302   3.120   8.112  19.412
 7612TIP3   OH273303   2.059   1.680  18.857
 7612TIP3    H173304   2.098   1.668  18.770
 7612TIP3    H273305   2.065   1.775  18.872
 7613TIP3   OH273306   2.394   0.009   0.786
 7613TIP3    H173307   2.462   8.116   0.729
 7613TIP3    H273308   2.431   0.091   0.817
 7614TIP3   OH273309   2.184   1.686  18.611
 7614TIP3    H173310   2.214   1.764  18.565
 7614TIP3    H273311   2.234   1.614  18.573
 7615TIP3   OH273312   3.239   8.137   0.866
 7615TIP3    H173313   3.192   8.076   0.923
 7615TIP3    H273314   3.320   8.091   0.843
 7616TIP3   OH273315   3.476   1.654   0.646
 7616TIP3    H173316   3.426   1.646   0.727
 7616TIP3    H273317   3.421   1.708   0.588
 7617TIP3   OH273318   4.059   0.909   0.204
 7617TIP3    H173319   4.085   0.910   0.296
 7617TIP3    H273320   4.141   0.908   0.155
 7618TIP3   OH273321   4.189   1.343   0.065
 7618TIP3    H173322   4.169   1.267   0.010
 7618TIP3    H273323   4.276   1.371   0.037
 7619TIP3   OH273324   3.738   0.674  19.069
 7619TIP3    H173325   3.733   0.768  19.087
 7619TIP3    H273326   3.715   0.665  18.977
 7620TIP3   OH273327   3.948   0.966  19.277
 7620TIP3    H173328   3.989   0.917  19.205
 7620TIP3    H273329   4.016   1.026  19.307
 7621TIP3   OH273330   4.990   1.746  19.397
 7621TIP3    H173331   5.005   1.704  19.312
 7621TIP3    H273332   4.983   1.672  19.458
 7622TIP3   OH273333   4.599   1.207   0.058
 7622TIP3    H173334   4.598   1.186  19.437
 7622TIP3    H273335   4.684   1.250   0.071
 7623TIP3   OH273336   5.550   0.391   0.185
 7623TIP3    H173337   5.485   0.450   0.145
 7623TIP3    H273338   5.632   0.410   0.138
 7624TIP3   OH273339   5.123   0.661   0.106
 7624TIP3    H173340   5.075   0.583   0.078
 7624TIP3    H273341   5.122   0.718   0.029
 7625TIP3   OH273342   4.412   0.760  19.349
 7625TIP3    H173343   4.477   0.690  19.342
 7625TIP3    H273344   4.328   0.714  19.357
 7626TIP3   OH273345   4.446   1.086   0.254
 7626TIP3    H173346   4.389   1.155   0.288
 7626TIP3    H273347   4.503   1.132   0.192
 7627TIP3   OH273348   5.262   0.312  19.471
 7627TIP3    H173349   5.173   0.343  19.459
 7627TIP3    H273350   5.317   0.390  19.463
 7628TIP3   OH273351   4.265   1.282   0.340
 7628TIP3    H173352   4.236   1.314   0.254
 7628TIP3    H273353   4.184   1.271   0.390
 7629TIP3   OH273354   3.909   1.303  18.844
 7629TIP3    H173355   3.972   1.311  18.773
 7629TIP3    H273356   3.907   1.389  18.885
 7630TIP3   OH273357   5.299   0.311   0.282
 7630TIP3    H173358   5.259   0.297   0.196
 7630TIP3    H273359   5.392   0.326   0.263
 7631TIP3   OH273360   4.561   0.081  19.453
 7631TIP3    H173361   4.585   0.040   0.064
 7631TIP3    H273362   4.477   0.042  19.431
 7632TIP3   OH273363   5.057   1.622  19.151
 7632TIP3    H173364   5.069   1.535  19.112
 7632TIP3    H273365   5.146   1.654  19.166
 7633TIP3   OH273366   4.375   0.998  19.189
 7633TIP3    H173367   4.369   0.975  19.096
 7633TIP3    H273368   4.394   0.916  19.233
 7634TIP3   OH273369   4.437   1.423  19.448
 7634TIP3    H173370   4.443   1.426  19.352
 7634TIP3    H273371   4.494   1.350   0.001
 7635TIP3   OH273372   4.302   0.931   0.076
 7635TIP3    H173373   4.358   0.875   0.021
 7635TIP3    H273374   4.363   0.972   0.137
 7636TIP3   OH273375   4.429   1.339   0.571
 7636TIP3    H173376   4.365   1.395   0.616
 7636TIP3    H273377   4.390   1.321   0.486
 7637TIP3   OH273378   4.159   0.926   0.468
 7637TIP3    H173379   4.252   0.948   0.474
 7637TIP3    H273380   4.148   0.851   0.527
 7638TIP3   OH273381   4.794   1.503  19.120
 7638TIP3    H173382   4.858   1.574  19.133
 7638TIP3    H273383   4.768   1.511  19.029
 7639TIP3   OH273384   5.473   0.044  18.730
 7639TIP3    H173385   5.416   0.031  18.655
 7639TIP3    H273386   5.509   0.132  18.718
 7640TIP3   OH273387   5.571   1.439  18.650
 7640TIP3    H173388   5.569   1.534  18.659
 7640TIP3    H273389   5.589   1.425  18.557
 7641TIP3   OH273390   3.766   1.193   0.404
 7641TIP3    H173391   3.738   1.211   0.314
 7641TIP3    H273392   3.769   1.098   0.409
 7642TIP3   OH273393   3.861   1.426   0.066
 7642TIP3    H173394   3.954   1.409   0.053
 7642TIP3    H273395   3.853   1.521   0.063
 7643TIP3   OH273396   5.652   1.526   0.643
 7643TIP3    H173397   5.620   1.436   0.635
 7643TIP3    H273398   5.577   1.575   0.678
 7644TIP3   OH273399   4.701   1.423   0.569
 7644TIP3    H173400   4.721   1.516   0.583
 7644TIP3    H273401   4.606   1.420   0.561
 7645TIP3   OH273402   4.791   1.896  18.886
 7645TIP3    H173403   4.779   1.868  18.796
 7645TIP3    H273404   4.741   1.977  18.893
 7646TIP3   OH273405   4.138   1.686  19.183
 7646TIP3    H173406   4.148   1.663  19.275
 7646TIP3    H273407   4.047   1.716  19.176
 7647TIP3   OH273408   5.068   1.723  18.649
 7647TIP3    H173409   5.134   1.654  18.640
 7647TIP3    H273410   5.068   1.744  18.742
 7648TIP3   OH273411   5.038   1.785  18.920
 7648TIP3    H173412   4.950   1.822  18.917
 7648TIP3    H273413   5.040   1.736  19.002
 7649TIP3   OH273414   4.022   1.270   0.487
 7649TIP3    H173415   4.019   1.331   0.560
 7649TIP3    H273416   3.934   1.274   0.449
 7650TIP3   OH273417   4.770   0.207   0.447
 7650TIP3    H173418   4.858   0.245   0.439
 7650TIP3    H273419   4.784   0.113   0.437
 7651TIP3   OH273420   3.710   0.414  19.165
 7651TIP3    H173421   3.713   0.507  19.144
 7651TIP3    H273422   3.729   0.370  19.082
 7652TIP3   OH273423   3.944   0.628  18.758
 7652TIP3    H173424   3.941   0.658  18.667
 7652TIP3    H273425   3.854   0.633  18.788
 7653TIP3   OH273426   4.601   0.457  19.307
 7653TIP3    H173427   4.574   0.386  19.249
 7653TIP3    H273428   4.672   0.420  19.359
 7654TIP3   OH273429   4.532   0.610  18.803
 7654TIP3    H173430   4.510   0.667  18.876
 7654TIP3    H273431   4.522   0.666  18.726
 7655TIP3   OH273432   5.002   0.411   0.051
 7655TIP3    H173433   4.986   0.389   0.143
 7655TIP3    H273434   4.932   0.366   0.003
 7656TIP3   OH273435   5.386   1.924   0.753
 7656TIP3    H173436   5.415   1.943   0.663
 7656TIP3    H273437   5.462   1.945   0.807
 7657TIP3   OH273438   4.154   1.137   0.742
 7657TIP3    H173439   4.223   1.138   0.808
 7657TIP3    H273440   4.075   1.166   0.788
 7658TIP3   OH273441   4.787   1.185   0.471
 7658TIP3    H173442   4.867   1.166   0.521
 7658TIP3    H273443   4.758   1.270   0.505
 7659TIP3   OH273444   4.180   1.103  19.371
 7659TIP3    H173445   4.240   1.089  19.298
 7659TIP3    H273446   4.211   1.044  19.440
 7660TIP3   OH273447   3.811   0.928   0.502
 7660TIP3    H173448   3.793   0.857   0.564
 7660TIP3    H273449   3.770   0.900   0.421
 7661TIP3   OH273450   4.626   0.891   0.717
 7661TIP3    H173451   4.599   0.915   0.628
 7661TIP3    H273452   4.716   0.862   0.707
 7662TIP3   OH273453   5.614   0.654  18.774
 7662TIP3    H173454   5.620   0.630  18.682
 7662TIP3    H273455   5.607   0.750  18.773
 7663TIP3   OH273456   4.437   1.429  19.169
 7663TIP3    H173457   4.476   1.509  19.133
 7663TIP3    H273458   4.351   1.425  19.128
 7664TIP3   OH273459   3.977   1.019  18.609
 7664TIP3    H173460   4.026   1.024  18.691
 7664TIP3    H273461   3.903   0.961  18.629
 7665TIP3   OH273462   4.564   1.193  19.261
 7665TIP3    H173463   4.541   1.272  19.213
 7665TIP3    H273464   4.502   1.127  19.230
 7666TIP3   OH273465   4.380   1.703  19.059
 7666TIP3    H173466   4.291   1.692  19.093
 7666TIP3    H273467   4.411   1.785  19.099
 7667TIP3   OH273468   5.187   1.679   0.489
 7667TIP3    H173469   5.107   1.664   0.439
 7667TIP3    H273470   5.227   1.756   0.448
 7668TIP3   OH273471   5.585   1.719  18.657
 7668TIP3    H173472   5.599   1.732  18.563
 7668TIP3    H273473   5.533   1.795  18.684
 7669TIP3   OH273474   4.051   1.614   0.290
 7669TIP3    H173475   4.061   1.525   0.324
 7669TIP3    H273476   4.105   1.667   0.349
 7670TIP3   OH273477   4.419   1.413  18.699
 7670TIP3    H173478   4.494   1.365  18.735
 7670TIP3    H273479   4.436   1.504  18.722
 7671TIP3   OH273480   4.125   1.103  18.832
 7671TIP3    H173481   4.051   1.141  18.880
 7671TIP3    H273482   4.153   1.174  18.774
 7672TIP3   OH273483   4.731   1.537  18.851
 7672TIP3    H173484   4.649   1.585  18.837
 7672TIP3    H273485   4.774   1.537  18.765
 7673TIP3   OH273486   4.487   1.661  18.806
 7673TIP3    H173487   4.499   1.747  18.765
 7673TIP3    H273488   4.447   1.681  18.891
 7674TIP3   OH273489   4.380   0.385  18.745
 7674TIP3    H173490   4.302   0.420  18.702
 7674TIP3    H273491   4.436   0.461  18.759
 7675TIP3   OH273492   5.292   0.425   0.537
 7675TIP3    H173493   5.311   0.517   0.518
 7675TIP3    H273494   5.283   0.384   0.451
 7676TIP3   OH273495   4.153   1.334  18.678
 7676TIP3    H173496   4.243   1.363  18.689
 7676TIP3    H273497   4.130   1.361  18.589
 7677TIP3   OH273498   5.367   1.746   0.101
 7677TIP3    H173499   5.342   1.797   0.024
 7677TIP3    H273500   5.463   1.750   0.102
 7678TIP3   OH273501   4.383   1.654   0.850
 7678TIP3    H173502   4.428   1.572   0.873
 7678TIP3    H273503   4.454   1.714   0.827
 7679TIP3   OH273504   3.874   1.137   0.768
 7679TIP3    H173505   3.840   1.085   0.841
 7679TIP3    H273506   3.804   1.200   0.748
 7680TIP3   OH273507   4.551   1.182   0.773
 7680TIP3    H173508   4.522   1.228   0.694
 7680TIP3    H273509   4.584   1.098   0.740
 7681TIP3   OH273510   4.810   1.316  18.522
 7681TIP3    H173511   4.741   1.257  18.491
 7681TIP3    H273512   4.891   1.275  18.492
 7682TIP3   OH273513   4.022   0.855   0.718
 7682TIP3    H173514   4.091   0.793   0.739
 7682TIP3    H273515   3.982   0.876   0.803
 7683TIP3   OH273516   4.395   0.910  18.868
 7683TIP3    H173517   4.303   0.934  18.858
 7683TIP3    H273518   4.423   0.884  18.780
 7684TIP3   OH273519   4.486   0.806  18.614
 7684TIP3    H173520   4.431   0.773  18.544
 7684TIP3    H273521   4.558   0.851  18.570
 7685TIP3   OH273522   4.596   0.982   0.463
 7685TIP3    H173523   4.669   1.044   0.454
 7685TIP3    H273524   4.541   1.000   0.387
 7686TIP3   OH273525   4.233   0.683   0.747
 7686TIP3    H173526   4.308   0.706   0.801
 7686TIP3    H273527   4.270   0.634   0.673
 7687TIP3   OH273528   5.138   0.281   0.909
 7687TIP3    H173529   5.154   0.190   0.885
 7687TIP3    H273530   5.052   0.281   0.950
 7688TIP3   OH273531   4.632   0.159   0.856
 7688TIP3    H173532   4.659   0.183   0.768
 7688TIP3    H273533   4.657   0.233   0.911
 7689TIP3   OH273534   4.542   1.907  18.687
 7689TIP3    H173535   4.625   1.881  18.646
 7689TIP3    H273536   4.525   1.994  18.652
 7690TIP3   OH273537   5.643   1.761   0.147
 7690TIP3    H173538   5.643   1.725   0.236
 7690TIP3    H273539   5.661   1.854   0.159
 7691TIP3   OH273540   5.618   1.670   0.409
 7691TIP3    H173541   5.536   1.630   0.380
 7691TIP3    H273542   5.632   1.636   0.497
 7692TIP3   OH273543   5.555   0.881  19.079
 7692TIP3    H173544   5.480   0.842  19.124
 7692TIP3    H273545   5.608   0.919  19.148
 7693TIP3   OH273546   5.386   1.560   0.314
 7693TIP3    H173547   5.313   1.566   0.375
 7693TIP3    H273548   5.354   1.603   0.235
 7694TIP3   OH273549   5.585   0.929  18.800
 7694TIP3    H173550   5.552   1.016  18.775
 7694TIP3    H273551   5.573   0.926  18.895
 7695TIP3   OH273552   5.353   0.729  19.205
 7695TIP3    H173553   5.324   0.638  19.192
 7695TIP3    H273554   5.286   0.767  19.263
 7696TIP3   OH273555   3.834   0.981   0.065
 7696TIP3    H173556   3.859   0.968  19.446
 7696TIP3    H273557   3.911   0.955   0.115
 7697TIP3   OH273558   5.572   0.810   0.772
 7697TIP3    H173559   5.511   0.803   0.698
 7697TIP3    H273560   5.615   0.725   0.776
 7698TIP3   OH273561   5.379   0.568   0.072
 7698TIP3    H173562   5.443   0.639   0.073
 7698TIP3    H273563   5.296   0.609   0.094
 7699TIP3   OH273564   5.470   0.115   0.926
 7699TIP3    H173565   5.467   0.023   0.901
 7699TIP3    H273566   5.460   0.163   0.843
 7700TIP3   OH273567   5.464   0.273   0.699
 7700TIP3    H173568   5.390   0.325   0.669
 7700TIP3    H273569   5.533   0.290   0.634
 7701TIP3   OH273570   5.609   0.267  18.644
 7701TIP3    H173571   5.651   0.216  18.575
 7701TIP3    H273572   5.630   0.358  18.623
 7702TIP3   OH273573   5.310   1.710  19.183
 7702TIP3    H173574   5.376   1.724  19.116
 7702TIP3    H273575   5.324   1.780  19.246
 7703TIP3   OH273576   3.984   1.440   0.703
 7703TIP3    H173577   3.914   1.503   0.689
 7703TIP3    H273578   3.981   1.421   0.797
 7704TIP3   OH273579   4.748   1.685   0.653
 7704TIP3    H173580   4.758   1.667   0.746
 7704TIP3    H273581   4.822   1.742   0.631
 7705TIP3   OH273582   4.984   1.828   0.635
 7705TIP3    H173583   5.057   1.776   0.601
 7705TIP3    H273584   5.022   1.877   0.708
 7706TIP3   OH273585   5.490   0.045   0.459
 7706TIP3    H173586   5.416   0.087   0.503
 7706TIP3    H273587   5.479   8.096   0.477
 7707TIP3   OH273588   4.987   1.710   0.308
 7707TIP3    H173589   4.951   1.672   0.228
 7707TIP3    H273590   4.954   1.800   0.310
 7708TIP3   OH273591   5.291   1.877   0.332
 7708TIP3    H173592   5.284   1.969   0.305
 7708TIP3    H273593   5.304   1.829   0.250
 7709TIP3   OH273594   3.912   1.708   0.075
 7709TIP3    H173595   3.956   1.683   0.157
 7709TIP3    H273596   3.983   1.721   0.013
 7710TIP3   OH273597   4.171   1.621  19.450
 7710TIP3    H173598   4.164   1.533   0.015
 7710TIP3    H273599   4.247   1.660   0.021
 7711TIP3   OH273600   4.421   1.679   0.097
 7711TIP3    H173601   4.447   1.597   0.054
 7711TIP3    H273602   4.474   1.746   0.054
 7712TIP3   OH273603   4.794   0.256  19.418
 7712TIP3    H173604   4.716   0.204  19.436
 7712TIP3    H273605   4.853   0.196  19.372
 7713TIP3   OH273606   5.326   0.038  19.396
 7713TIP3    H173607   5.401   0.069  19.346
 7713TIP3    H273608   5.286   0.117  19.432
 7714TIP3   OH273609   5.520   0.191  19.264
 7714TIP3    H173610   5.501   0.184  19.170
 7714TIP3    H273611   5.516   0.284  19.283
 7715TIP3   OH273612   4.565   0.201  19.186
 7715TIP3    H173613   4.628   0.145  19.143
 7715TIP3    H273614   4.554   0.162  19.273
 7716TIP3   OH273615   4.967   0.064  19.310
 7716TIP3    H173616   5.035   0.042  19.246
 7716TIP3    H273617   4.969   8.137  19.373
 7717TIP3   OH273618   5.172   0.113  18.830
 7717TIP3    H173619   5.190   0.193  18.879
 7717TIP3    H273620   5.224   0.046  18.874
 7718TIP3   OH273621   4.747   0.424  18.834
 7718TIP3    H173622   4.698   0.344  18.854
 7718TIP3    H273623   4.679   0.490  18.817
 7719TIP3   OH273624   4.804   1.820  18.615
 7719TIP3    H173625   4.894   1.791  18.631
 7719TIP3    H273626   4.792   1.808  18.521
 7720TIP3   OH273627   5.492   1.751  18.975
 7720TIP3    H173628   5.509   1.667  18.932
 7720TIP3    H273629   5.481   1.813  18.903
 7721TIP3   OH273630   5.137   0.013   0.869
 7721TIP3    H173631   5.096   8.121   0.947
 7721TIP3    H273632   5.178   8.082   0.827
 7722TIP3   OH273633   5.413   1.659   0.655
 7722TIP3    H173634   5.329   1.645   0.612
 7722TIP3    H273635   5.395   1.724   0.722
 7723TIP3   OH273636   5.987   0.979   0.181
 7723TIP3    H173637   5.977   0.896   0.226
 7723TIP3    H273638   6.025   1.038   0.246
 7724TIP3   OH273639   6.026   1.351   0.062
 7724TIP3    H173640   6.016   1.274   0.006
 7724TIP3    H273641   6.084   1.322   0.133
 7725TIP3   OH273642   5.667   0.629  19.047
 7725TIP3    H173643   5.637   0.718  19.067
 7725TIP3    H273644   5.643   0.615  18.955
 7726TIP3   OH273645   5.752   0.958  19.265
 7726TIP3    H173646   5.791   0.875  19.292
 7726TIP3    H273647   5.826   1.013  19.241
 7727TIP3   OH273648   6.849   1.747  19.403
 7727TIP3    H173649   6.885   1.669  19.361
 7727TIP3    H273650   6.831   1.720   0.020
 7728TIP3   OH273651   7.396   0.398   0.165
 7728TIP3    H173652   7.437   0.421   0.248
 7728TIP3    H273653   7.430   0.462   0.103
 7729TIP3   OH273654   6.824   0.653   0.024
 7729TIP3    H173655   6.879   0.576   0.038
 7729TIP3    H273656   6.883   0.718  19.457
 7730TIP3   OH273657   6.226   0.432  19.290
 7730TIP3    H173658   6.216   0.507  19.231
 7730TIP3    H273659   6.202   0.357  19.236
 7731TIP3   OH273660   7.024   0.398  19.196
 7731TIP3    H173661   7.103   0.417  19.246
 7731TIP3    H273662   7.034   0.446  19.114
 7732TIP3   OH273663   5.865   0.721  19.351
 7732TIP3    H173664   5.922   0.672  19.411
 7732TIP3    H273665   5.888   0.688  19.264
 7733TIP3   OH273666   6.380   0.813  19.320
 7733TIP3    H173667   6.455   0.756  19.337
 7733TIP3    H273668   6.322   0.762  19.264
 7734TIP3   OH273669   7.486   0.584   0.368
 7734TIP3    H173670   7.392   0.602   0.363
 7734TIP3    H273671   7.499   0.544   0.454
 7735TIP3   OH273672   6.301   0.373   0.131
 7735TIP3    H173673   6.300   0.449   0.072
 7735TIP3    H273674   6.238   0.312   0.092
 7736TIP3   OH273675   7.174   0.373  19.425
 7736TIP3    H173676   7.243   0.314  19.456
 7736TIP3    H273677   7.199   0.459  19.457
 7737TIP3   OH273678   6.036   0.527   0.004
 7737TIP3    H173679   6.085   0.579   0.068
 7737TIP3    H273680   6.101   0.506  19.409
 7738TIP3   OH273681   6.163   1.313   0.296
 7738TIP3    H173682   6.198   1.402   0.296
 7738TIP3    H273683   6.099   1.311   0.367
 7739TIP3   OH273684   5.772   1.311  18.797
 7739TIP3    H173685   5.702   1.356  18.750
 7739TIP3    H273686   5.793   1.369  18.871
 7740TIP3   OH273687   7.190   0.248   0.263
 7740TIP3    H173688   7.106   0.292   0.249
 7740TIP3    H273689   7.255   0.305   0.223
 7741TIP3   OH273690   6.563   0.065  19.449
 7741TIP3    H173691   6.583   8.116  19.459
 7741TIP3    H273692   6.469   0.071  19.467
 7742TIP3   OH273693   6.970   1.540  19.262
 7742TIP3    H173694   6.963   1.485  19.184
 7742TIP3    H273695   7.037   1.604  19.241
 7743TIP3   OH273696   7.227   1.273   0.427
 7743TIP3    H173697   7.142   1.265   0.384
 7743TIP3    H273698   7.271   1.342   0.379
 7744TIP3   OH273699   7.365   0.933   0.272
 7744TIP3    H173700   7.427   0.934   0.345
 7744TIP3    H273701   7.416   0.964   0.197
 7745TIP3   OH273702   6.997   0.787   0.491
 7745TIP3    H173703   7.032   0.874   0.507
 7745TIP3    H273704   6.903   0.800   0.476
 7746TIP3   OH273705   6.168   0.995  19.231
 7746TIP3    H173706   6.167   1.032  19.143
 7746TIP3    H273707   6.252   0.949  19.237
 7747TIP3   OH273708   6.320   0.910   0.100
 7747TIP3    H173709   6.340   0.885   0.009
 7747TIP3    H273710   6.309   1.005   0.097
 7748TIP3   OH273711   6.014   0.982   0.510
 7748TIP3    H173712   6.057   1.065   0.532
 7748TIP3    H273713   5.975   0.953   0.593
 7749TIP3   OH273714   7.387   1.542  18.623
 7749TIP3    H173715   7.448   1.616  18.629
 7749TIP3    H273716   7.440   1.469  18.591
 7750TIP3   OH273717   5.718   1.478   0.041
 7750TIP3    H173718   5.686   1.394   0.009
 7750TIP3    H273719   5.647   1.513   0.094
 7751TIP3   OH273720   7.504   1.586   0.610
 7751TIP3    H173721   7.503   1.497   0.575
 7751TIP3    H273722   7.413   1.606   0.627
 7752TIP3   OH273723   6.750   1.889  18.993
 7752TIP3    H173724   6.699   1.869  18.915
 7752TIP3    H273725   6.717   1.974  19.022
 7753TIP3   OH273726   7.147   0.675   0.711
 7753TIP3    H173727   7.087   0.712   0.646
 7753TIP3    H273728   7.176   0.593   0.672
 7754TIP3   OH273729   5.939   1.319   0.463
 7754TIP3    H173730   5.973   1.300   0.551
 7754TIP3    H273731   5.875   1.250   0.447
 7755TIP3   OH273732   6.298   0.027   0.050
 7755TIP3    H173733   6.252   8.098   0.009
 7755TIP3    H273734   6.235   0.100   0.046
 7756TIP3   OH273735   6.783   0.086   0.471
 7756TIP3    H173736   6.781   0.035   0.552
 7756TIP3    H273737   6.713   0.049   0.418
 7757TIP3   OH273738   6.981   0.503   0.471
 7757TIP3    H173739   6.925   0.478   0.544
 7757TIP3    H273740   6.978   0.599   0.470
 7758TIP3   OH273741   6.659   0.356  18.584
 7758TIP3    H173742   6.585   0.330  18.639
 7758TIP3    H273743   6.626   0.347  18.494
 7759TIP3   OH273744   6.180   0.685   0.176
 7759TIP3    H173745   6.118   0.706   0.245
 7759TIP3    H273746   6.216   0.769   0.149
 7760TIP3   OH273747   6.218   0.672  19.154
 7760TIP3    H173748   6.124   0.679  19.138
 7760TIP3    H273749   6.257   0.674  19.066
 7761TIP3   OH273750   6.723   0.722   0.736
 7761TIP3    H173751   6.678   0.637   0.737
 7761TIP3    H273752   6.799   0.709   0.793
 7762TIP3   OH273753   5.975   0.764   0.352
 7762TIP3    H173754   5.996   0.831   0.417
 7762TIP3    H273755   5.883   0.743   0.369
 7763TIP3   OH273756   5.582   0.468  19.272
 7763TIP3    H173757   5.636   0.503  19.342
 7763TIP3    H273758   5.600   0.524  19.197
 7764TIP3   OH273759   5.834   0.480  18.783
 7764TIP3    H173760   5.839   0.474  18.688
 7764TIP3    H273761   5.769   0.549  18.799
 7765TIP3   OH273762   6.505   0.457  19.217
 7765TIP3    H173763   6.414   0.439  19.241
 7765TIP3    H273764   6.538   0.512  19.288
 7766TIP3   OH273765   5.941   0.613  19.112
 7766TIP3    H173766   5.853   0.615  19.073
 7766TIP3    H273767   5.990   0.551  19.058
 7767TIP3   OH273768   6.342   0.677  18.909
 7767TIP3    H173769   6.429   0.639  18.903
 7767TIP3    H273770   6.310   0.679  18.819
 7768TIP3   OH273771   6.880   0.372   0.072
 7768TIP3    H173772   6.858   0.357   0.164
 7768TIP3    H273773   6.799   0.353   0.025
 7769TIP3   OH273774   6.211   0.663  18.656
 7769TIP3    H173775   6.129   0.705  18.683
 7769TIP3    H273776   6.213   0.673  18.561
 7770TIP3   OH273777   7.249   1.893   0.741
 7770TIP3    H173778   7.267   1.924   0.652
 7770TIP3    H273779   7.325   1.920   0.792
 7771TIP3   OH273780   6.017   1.198   0.698
 7771TIP3    H173781   6.077   1.147   0.752
 7771TIP3    H273782   5.935   1.197   0.747
 7772TIP3   OH273783   6.563   0.629  19.428
 7772TIP3    H173784   6.657   0.638  19.444
 7772TIP3    H273785   6.522   0.645   0.040
 7773TIP3   OH273786   6.111   0.436  18.994
 7773TIP3    H173787   6.133   0.350  19.030
 7773TIP3    H273788   6.140   0.431  18.903
 7774TIP3   OH273789   6.875   0.481  18.700
 7774TIP3    H173790   6.803   0.439  18.652
 7774TIP3    H273791   6.923   0.529  18.633
 7775TIP3   OH273792   6.000   1.108  19.411
 7775TIP3    H173793   6.060   1.072  19.346
 7775TIP3    H273794   6.006   1.048   0.012
 7776TIP3   OH273795   7.455   0.642  18.736
 7776TIP3    H173796   7.435   0.629  18.643
 7776TIP3    H273797   7.423   0.731  18.755
 7777TIP3   OH273798   7.448   1.309   0.575
 7777TIP3    H173799   7.361   1.291   0.539
 7777TIP3    H273800   7.508   1.267   0.513
 7778TIP3   OH273801   7.261   1.496  18.863
 7778TIP3    H173802   7.212   1.414  18.859
 7778TIP3    H273803   7.297   1.508  18.775
 7779TIP3   OH273804   5.877   0.929  18.667
 7779TIP3    H173805   5.920   1.015  18.663
 7779TIP3    H273806   5.795   0.945  18.714
 7780TIP3   OH273807   6.496   1.645   0.309
 7780TIP3    H173808   6.554   1.709   0.269
 7780TIP3    H273809   6.529   1.635   0.398
 7781TIP3   OH273810   7.087   1.362  18.612
 7781TIP3    H173811   7.116   1.303  18.682
 7781TIP3    H273812   7.004   1.324  18.582
 7782TIP3   OH273813   7.095   1.657   0.437
 7782TIP3    H173814   7.012   1.636   0.396
 7782TIP3    H273815   7.121   1.740   0.398
 7783TIP3   OH273816   7.533   1.773  18.635
 7783TIP3    H173817   7.528   1.783  18.540
 7783TIP3    H273818   7.462   1.827  18.669
 7784TIP3   OH273819   5.643   0.354   0.503
 7784TIP3    H173820   5.608   0.426   0.449
 7784TIP3    H273821   5.665   0.286   0.439
 7785TIP3   OH273822   7.147   1.200  18.833
 7785TIP3    H173823   7.091   1.122  18.838
 7785TIP3    H273824   7.229   1.173  18.874
 7786TIP3   OH273825   5.882   1.557   0.324
 7786TIP3    H173826   5.908   1.484   0.380
 7786TIP3    H273827   5.816   1.604   0.374
 7787TIP3   OH273828   6.816   0.324   0.331
 7787TIP3    H173829   6.870   0.383   0.384
 7787TIP3    H273830   6.806   0.246   0.385
 7788TIP3   OH273831   6.827   0.366  18.944
 7788TIP3    H173832   6.844   0.411  18.861
 7788TIP3    H273833   6.898   0.302  18.951
 7789TIP3   OH273834   6.582   0.532  18.957
 7789TIP3    H173835   6.675   0.511  18.955
 7789TIP3    H273836   6.557   0.526  19.049
 7790TIP3   OH273837   6.619   0.244  19.080
 7790TIP3    H173838   6.575   0.319  19.120
 7790TIP3    H273839   6.693   0.282  19.033
 7791TIP3   OH273840   6.367   1.619  18.783
 7791TIP3    H173841   6.331   1.578  18.704
 7791TIP3    H273842   6.416   1.695  18.751
 7792TIP3   OH273843   6.228   0.398  18.748
 7792TIP3    H173844   6.238   0.487  18.713
 7792TIP3    H273845   6.318   0.366  18.760
 7793TIP3   OH273846   7.242   0.479   0.555
 7793TIP3    H173847   7.158   0.466   0.512
 7793TIP3    H273848   7.288   0.397   0.543
 7794TIP3   OH273849   7.268   1.777   0.080
 7794TIP3    H173850   7.249   1.827   0.001
 7794TIP3    H273851   7.361   1.791   0.096
 7795TIP3   OH273852   6.097   0.214   0.028
 7795TIP3    H173853   6.048   0.285  19.459
 7795TIP3    H273854   6.033   0.143   0.036
 7796TIP3   OH273855   5.815   1.503  18.996
 7796TIP3    H173856   5.727   1.507  19.032
 7796TIP3    H273857   5.824   1.584  18.946
 7797TIP3   OH273858   5.795   1.795   0.758
 7797TIP3    H173859   5.875   1.794   0.810
 7797TIP3    H273860   5.777   1.703   0.739
 7798TIP3   OH273861   6.751   1.489   0.791
 7798TIP3    H173862   6.725   1.405   0.754
 7798TIP3    H273863   6.846   1.486   0.795
 7799TIP3   OH273864   7.141   1.616  18.512
 7799TIP3    H173865   7.101   1.533  18.539
 7799TIP3    H273866   7.233   1.605  18.533
 7800TIP3   OH273867   5.773   1.129   0.819
 7800TIP3    H173868   5.816   1.046   0.800
 7800TIP3    H273869   5.680   1.111   0.808
 7801TIP3   OH273870   5.942   0.904   0.770
 7801TIP3    H173871   6.005   0.834   0.754
 7801TIP3    H273872   5.908   0.886   0.857
 7802TIP3   OH273873   6.333   0.571   0.597
 7802TIP3    H173874   6.299   0.501   0.541
 7802TIP3    H273875   6.366   0.637   0.536
 7803TIP3   OH273876   6.517   0.277   0.284
 7803TIP3    H173877   6.595   0.332   0.281
 7803TIP3    H273878   6.456   0.318   0.222
 7804TIP3   OH273879   6.947   0.710   0.899
 7804TIP3    H173880   6.935   0.631   0.951
 7804TIP3    H273881   7.027   0.694   0.848
 7805TIP3   OH273882   6.112   0.694   0.723
 7805TIP3    H173883   6.054   0.618   0.736
 7805TIP3    H273884   6.191   0.657   0.683
 7806TIP3   OH273885   6.561   0.010   0.325
 7806TIP3    H173886   6.559   0.097   0.286
 7806TIP3    H273887   6.487   0.010   0.386
 7807TIP3   OH273888   6.556   0.500   0.752
 7807TIP3    H173889   6.514   0.494   0.838
 7807TIP3    H273890   6.484   0.518   0.691
 7808TIP3   OH273891   6.816   0.427   0.668
 7808TIP3    H173892   6.726   0.431   0.701
 7808TIP3    H273893   6.863   0.372   0.730
 7809TIP3   OH273894   6.977   0.294   0.851
 7809TIP3    H173895   6.980   0.203   0.881
 7809TIP3    H273896   6.946   0.343   0.927
 7810TIP3   OH273897   5.957   0.469   0.770
 7810TIP3    H173898   5.924   0.387   0.734
 7810TIP3    H273899   5.990   0.446   0.857
 7811TIP3   OH273900   6.468   8.117   0.711
 7811TIP3    H173901   6.481   8.025   0.687
 7811TIP3    H273902   6.433   0.014   0.632
 7812TIP3   OH273903   6.519   0.168   0.902
 7812TIP3    H173904   6.527   0.097   0.838
 7812TIP3    H273905   6.441   0.217   0.875
 7813TIP3   OH273906   5.676   1.881  19.142
 7813TIP3    H173907   5.626   1.834  19.075
 7813TIP3    H273908   5.690   1.817  19.211
 7814TIP3   OH273909   5.701   1.708  19.351
 7814TIP3    H173910   5.712   1.613  19.364
 7814TIP3    H273911   5.681   1.742  19.438
 7815TIP3   OH273912   7.445   1.735   0.375
 7815TIP3    H173913   7.400   1.666   0.327
 7815TIP3    H273914   7.491   1.689   0.446
 7816TIP3   OH273915   7.242   1.284   0.975
 7816TIP3    H173916   7.179   1.241   1.033
 7816TIP3    H273917   7.323   1.286   1.025
 7817TIP3   OH273918   7.378   1.100  18.948
 7817TIP3    H173919   7.453   1.159  18.947
 7817TIP3    H273920   7.377   1.063  19.036
 7818TIP3   OH273921   7.390   0.990  19.201
 7818TIP3    H173922   7.341   0.908  19.215
 7818TIP3    H273923   7.467   0.980  19.256
 7819TIP3   OH273924   7.298   1.511   0.301
 7819TIP3    H173925   7.218   1.553   0.334
 7819TIP3    H273926   7.269   1.466   0.222
 7820TIP3   OH273927   7.374   0.907  18.747
 7820TIP3    H173928   7.295   0.924  18.695
 7820TIP3    H273929   7.372   0.973  18.816
 7821TIP3   OH273930   7.255   0.757  19.245
 7821TIP3    H173931   7.231   0.698  19.173
 7821TIP3    H273932   7.244   0.703  19.324
 7822TIP3   OH273933   5.726   0.960   0.069
 7822TIP3    H173934   5.725   0.982  19.449
 7822TIP3    H273935   5.814   0.982   0.099
 7823TIP3   OH273936   7.394   1.006   0.682
 7823TIP3    H173937   7.406   0.911   0.679
 7823TIP3    H273938   7.388   1.032   0.590
 7824TIP3   OH273939   7.418   0.733   0.692
 7824TIP3    H173940   7.326   0.707   0.689
 7824TIP3    H273941   7.466   0.653   0.670
 7825TIP3   OH273942   7.197   0.396  18.468
 7825TIP3    H173943   7.284   0.362  18.448
 7825TIP3    H273944   7.140   0.319  18.464
 7826TIP3   OH273945   7.196   0.598  19.029
 7826TIP3    H173946   7.213   0.513  18.989
 7826TIP3    H273947   7.136   0.642  18.969
 7827TIP3   OH273948   7.249   0.630   0.024
 7827TIP3    H173949   7.345   0.638   0.023
 7827TIP3    H273950   7.224   0.649   0.114
 7828TIP3   OH273951   7.225   0.698   0.295
 7828TIP3    H173952   7.152   0.714   0.354
 7828TIP3    H273953   7.267   0.784   0.284
 7829TIP3   OH273954   5.687   0.560   0.784
 7829TIP3    H173955   5.775   0.530   0.759
 7829TIP3    H273956   5.638   0.480   0.801
 7830TIP3   OH273957   7.238   0.339  18.965
 7830TIP3    H173958   7.276   0.286  19.034
 7830TIP3    H273959   7.168   0.284  18.928
 7831TIP3   OH273960   5.770   0.454   0.026
 7831TIP3    H173961   5.771   0.371  19.450
 7831TIP3    H273962   5.861   0.483   0.026
 7832TIP3   OH273963   5.621   0.713   0.113
 7832TIP3    H173964   5.679   0.650   0.070
 7832TIP3    H273965   5.651   0.798   0.082
 7833TIP3   OH273966   7.454   0.293   0.780
 7833TIP3    H173967   7.373   0.326   0.819
 7833TIP3    H273968   7.425   0.237   0.708
 7834TIP3   OH273969   5.491   0.222  18.995
 7834TIP3    H173970   5.425   0.275  18.950
 7834TIP3    H273971   5.574   0.246  18.954
 7835TIP3   OH273972   7.150   1.731  19.188
 7835TIP3    H173973   7.210   1.733  19.113
 7835TIP3    H273974   7.180   1.803  19.244
 7836TIP3   OH273975   5.669   0.173   0.303
 7836TIP3    H173976   5.608   0.114   0.345
 7836TIP3    H273977   5.615   0.227   0.245
 7837TIP3   OH273978   5.907   1.485   0.744
 7837TIP3    H173979   5.827   1.499   0.694
 7837TIP3    H273980   5.876   1.455   0.830
 7838TIP3   OH273981   6.231   1.582   0.281
 7838TIP3    H173982   6.191   1.664   0.310
 7838TIP3    H273983   6.323   1.589   0.306
 7839TIP3   OH273984   6.628   1.706   0.656
 7839TIP3    H173985   6.659   1.629   0.704
 7839TIP3    H273986   6.707   1.758   0.641
 7840TIP3   OH273987   6.851   1.866   0.609
 7840TIP3    H173988   6.923   1.856   0.547
 7840TIP3    H273989   6.891   1.906   0.686
 7841TIP3   OH273990   7.340   0.236   0.496
 7841TIP3    H173991   7.289   0.225   0.416
 7841TIP3    H273992   7.349   0.148   0.532
 7842TIP3   OH273993   6.168   1.857   0.287
 7842TIP3    H173994   6.129   1.936   0.324
 7842TIP3    H273995   6.114   1.836   0.211
 7843TIP3   OH273996   6.657   1.842   0.197
 7843TIP3    H173997   6.616   1.881   0.120
 7843TIP3    H273998   6.666   1.915   0.259
 7844TIP3   OH273999   6.884   1.706   0.263
 7844TIP3    H174000   6.800   1.748   0.246
 7844TIP3    H274001   6.949   1.775   0.254
 7845TIP3   OH274002   7.102   1.875   0.271
 7845TIP3    H174003   7.134   1.965   0.280
 7845TIP3    H274004   7.156   1.837   0.202
 7846TIP3   OH274005   6.102   1.631  19.435
 7846TIP3    H174006   6.114   1.569  19.363
 7846TIP3    H274007   6.191   1.662  19.454
 7847TIP3   OH274008   6.374   1.683   0.030
 7847TIP3    H174009   6.405   1.597   0.004
 7847TIP3    H274010   6.366   1.679   0.125
 7848TIP3   OH274011   6.730   0.254  19.349
 7848TIP3    H174012   6.676   0.188  19.392
 7848TIP3    H274013   6.699   0.256  19.258
 7849TIP3   OH274014   7.215   0.086  19.395
 7849TIP3    H174015   7.251   0.118  19.313
 7849TIP3    H274016   7.183   8.142  19.375
 7850TIP3   OH274017   7.344   0.199  19.179
 7850TIP3    H174018   7.396   0.120  19.160
 7850TIP3    H274019   7.409   0.265  19.202
 7851TIP3   OH274020   6.171   0.202  19.123
 7851TIP3    H174021   6.110   0.139  19.084
 7851TIP3    H274022   6.251   0.152  19.138
 7852TIP3   OH274023   5.736   0.008  18.803
 7852TIP3    H174024   5.752   0.086  18.856
 7852TIP3    H274025   5.642   0.011  18.785
 7853TIP3   OH274026   6.407   0.073  19.161
 7853TIP3    H174027   6.488   0.124  19.153
 7853TIP3    H274028   6.436   8.128  19.180
 7854TIP3   OH274029   6.920   0.022  19.350
 7854TIP3    H174030   6.926   8.122  19.266
 7854TIP3    H274031   6.907   8.096  19.414
 7855TIP3   OH274032   7.032   0.167  18.900
 7855TIP3    H174033   7.011   0.151  18.808
 7855TIP3    H274034   7.085   0.092  18.926
 7856TIP3   OH274035   5.790   1.730  18.846
 7856TIP3    H174036   5.728   1.717  18.775
 7856TIP3    H274037   5.817   1.822  18.839
 7857TIP3   OH274038   6.054   0.334  18.545
 7857TIP3    H174039   5.997   0.260  18.564
 7857TIP3    H274040   6.095   0.355  18.629
 7858TIP3   OH274041   6.486   0.314  18.817
 7858TIP3    H174042   6.504   0.256  18.891
 7858TIP3    H274043   6.519   0.400  18.845
 7859TIP3   OH274044   7.325   1.741  18.971
 7859TIP3    H174045   7.308   1.651  18.943
 7859TIP3    H274046   7.324   1.792  18.890
 7860TIP3   OH274047   5.837   0.250   0.664
 7860TIP3    H174048   5.759   0.289   0.625
 7860TIP3    H274049   5.885   0.212   0.590
 7861TIP3   OH274050   6.279   0.286   0.826
 7861TIP3    H174051   6.254   0.264   0.736
 7861TIP3    H274052   6.197   0.307   0.870
 7862TIP3   OH274053   5.979   1.847  18.575
 7862TIP3    H174054   6.011   1.765  18.613
 7862TIP3    H274055   6.003   1.842  18.483
 7863TIP3   OH274056   7.012   0.035   0.943
 7863TIP3    H174057   6.961   8.121   1.000
 7863TIP3    H274058   7.066   8.119   0.891
 7864TIP3   OH274059   7.237   1.626   0.669
 7864TIP3    H174060   7.187   1.627   0.587
 7864TIP3    H274061   7.238   1.717   0.698
 7865TIP3   OH274062   7.818   0.873   0.243
 7865TIP3    H174063   7.839   0.782   0.266
 7865TIP3    H274064   7.866   0.888   0.161
 7866TIP3   OH274065   7.819   1.435   0.110
 7866TIP3    H174066   7.868   1.362   0.148
 7866TIP3    H274067   7.815   1.500   0.180
 7867TIP3   OH274068   7.489   0.571  19.002
 7867TIP3    H174069   7.407   0.606  19.037
 7867TIP3    H274070   7.480   0.579  18.907
 7868TIP3   OH274071   7.674   0.909  19.377
 7868TIP3    H174072   7.681   0.820  19.342
 7868TIP3    H274073   7.765   0.934  19.395
 7869TIP3   OH274074   7.967   0.547  19.421
 7869TIP3    H174075   8.035   0.596  19.466
 7869TIP3    H274076   8.014   0.495  19.356
 7870TIP3   OH274077   7.720   0.630  19.320
 7870TIP3    H174078   7.803   0.611  19.364
 7870TIP3    H274079   7.737   0.614  19.228
 7871TIP3   OH274080   7.935   1.226   0.443
 7871TIP3    H174081   7.949   1.318   0.422
 7871TIP3    H274082   7.884   1.227   0.523
 7872TIP3   OH274083   7.603   1.262  18.944
 7872TIP3    H174084   7.640   1.251  18.857
 7872TIP3    H274085   7.621   1.353  18.966
 7873TIP3   OH274086   0.017   0.896  19.340
 7873TIP3    H174087   8.119   0.953  19.277
 7873TIP3    H274088   0.110   0.919  19.335
 7874TIP3   OH274089   7.949   0.961   0.471
 7874TIP3    H174090   7.956   1.055   0.451
 7874TIP3    H274091   7.912   0.923   0.391
 7875TIP3   OH274092   7.905   1.690   0.730
 7875TIP3    H174093   7.937   1.677   0.640
 7875TIP3    H274094   7.958   1.630   0.783
 7876TIP3   OH274095   8.060   1.039  19.141
 7876TIP3    H174096   8.073   1.100  19.069
 7876TIP3    H274097   7.986   0.985  19.114
 7877TIP3   OH274098   7.595   1.167   0.384
 7877TIP3    H174099   7.592   1.151   0.290
 7877TIP3    H274100   7.601   1.080   0.423
 7878TIP3   OH274101   7.551   1.483   0.029
 7878TIP3    H174102   7.635   1.451   0.062
 7878TIP3    H274103   7.486   1.442   0.087
 7879TIP3   OH274104   7.885   1.762  19.161
 7879TIP3    H174105   7.906   1.712  19.240
 7879TIP3    H274106   7.844   1.698  19.102
 7880TIP3   OH274107   7.705   1.418   0.447
 7880TIP3    H174108   7.734   1.395   0.536
 7880TIP3    H274109   7.676   1.335   0.410
 7881TIP3   OH274110   8.102   0.516   0.255
 7881TIP3    H174111   8.026   0.564   0.288
 7881TIP3    H274112   8.140   0.575   0.189
 7882TIP3   OH274113   8.141   0.692  19.137
 7882TIP3    H174114   8.138   0.765  19.199
 7882TIP3    H274115   8.144   0.614  19.192
 7883TIP3   OH274116   7.863   0.622   0.364
 7883TIP3    H174117   7.877   0.616   0.458
 7883TIP3    H274118   7.789   0.564   0.347
 7884TIP3   OH274119   7.535   0.403  19.218
 7884TIP3    H174120   7.584   0.467  19.271
 7884TIP3    H274121   7.519   0.448  19.135
 7885TIP3   OH274122   7.687   0.488  18.715
 7885TIP3    H174123   7.667   0.453  18.628
 7885TIP3    H274124   7.610   0.539  18.739
 7886TIP3   OH274125   7.767   0.536  19.069
 7886TIP3    H174126   7.686   0.543  19.017
 7886TIP3    H274127   7.837   0.559  19.008
 7887TIP3   OH274128   0.086   0.594  18.567
 7887TIP3    H174129   8.137   0.570  18.567
 7887TIP3    H274130   0.094   0.660  18.498
 7888TIP3   OH274131   7.815   1.253   0.677
 7888TIP3    H174132   7.853   1.190   0.737
 7888TIP3    H274133   7.811   1.335   0.727
 7889TIP3   OH274134   7.933   0.960   0.007
 7889TIP3    H174135   7.961   1.051   0.007
 7889TIP3    H274136   8.002   0.914  19.432
 7890TIP3   OH274137   7.565   0.893   0.461
 7890TIP3    H174138   7.634   0.884   0.526
 7890TIP3    H274139   7.547   0.804   0.432
 7891TIP3   OH274140   7.646   0.920  18.699
 7891TIP3    H174141   7.671   0.877  18.618
 7891TIP3    H274142   7.552   0.906  18.706
 7892TIP3   OH274143   7.781   1.635   0.295
 7892TIP3    H174144   7.737   1.574   0.355
 7892TIP3    H274145   7.755   1.722   0.327
 7893TIP3   OH274146   7.720   1.179  18.698
 7893TIP3    H174147   7.692   1.087  18.698
 7893TIP3    H274148   7.815   1.175  18.707
 7894TIP3   OH274149   7.977   1.592  18.457
 7894TIP3    H174150   7.953   1.517  18.511
 7894TIP3    H274151   8.051   1.561  18.404
 7895TIP3   OH274152   7.710   1.555  19.061
 7895TIP3    H174153   7.665   1.574  19.142
 7895TIP3    H274154   7.676   1.619  18.998
 7896TIP3   OH274155   7.650   1.810   0.698
 7896TIP3    H174156   7.738   1.776   0.715
 7896TIP3    H274157   7.603   1.736   0.660
 7897TIP3   OH274158   7.562   1.241   0.827
 7897TIP3    H174159   7.615   1.301   0.776
 7897TIP3    H274160   7.497   1.207   0.765
 7898TIP3   OH274161   7.800   0.591   0.688
 7898TIP3    H174162   7.793   0.684   0.665
 7898TIP3    H274163   7.759   0.585   0.774
 7899TIP3   OH274164   8.043   0.614   0.811
 7899TIP3    H174165   7.960   0.601   0.766
 7899TIP3    H274166   8.107   0.564   0.760
 7900TIP3   OH274167   7.803   0.348   0.944
 7900TIP3    H174168   7.858   0.306   0.877
 7900TIP3    H274169   7.853   0.337   1.025
 7901TIP3   OH274170   7.573   1.362  18.548
 7901TIP3    H174171   7.622   1.291  18.590
 7901TIP3    H274172   7.595   1.355  18.455
 7902TIP3   OH274173   7.503   1.867  19.148
 7902TIP3    H174174   7.459   1.824  19.076
 7902TIP3    H274175   7.534   1.796  19.204
 7903TIP3   OH274176   7.603   1.661  19.302
 7903TIP3    H174177   7.564   1.593  19.356
 7903TIP3    H274178   7.656   1.713  19.363
 7904TIP3   OH274179   7.603   1.022   0.146
 7904TIP3    H174180   7.611   0.997   0.054
 7904TIP3    H274181   7.672   0.973   0.190
 7905TIP3   OH274182   7.551   0.498   0.622
 7905TIP3    H174183   7.645   0.505   0.638
 7905TIP3    H274184   7.523   0.424   0.675
 7906TIP3   OH274185   7.521   0.617   0.041
 7906TIP3    H174186   7.586   0.629  19.445
 7906TIP3    H274187   7.572   0.615   0.123
 7907TIP3   OH274188   7.715   1.488   0.760
 7907TIP3    H174189   7.634   1.529   0.728
 7907TIP3    H274190   7.779   1.559   0.760
 7908TIP3   OH274191   7.993   1.616   0.487
 7908TIP3    H174192   7.931   1.623   0.414
 7908TIP3    H274193   8.078   1.599   0.445
 7909TIP3   OH274194   7.738   1.905   0.352
 7909TIP3    H174195   7.662   1.939   0.305
 7909TIP3    H274196   7.750   1.965   0.425
 7910TIP3   OH274197   8.011   1.874   0.274
 7910TIP3    H174198   7.919   1.884   0.300
 7910TIP3    H274199   8.028   1.949   0.217
 7911TIP3   OH274200   7.770   1.763   0.031
 7911TIP3    H174201   7.761   1.732   0.121
 7911TIP3    H274202   7.837   1.707  19.465
 7912TIP3   OH274203   7.929   1.581  19.375
 7912TIP3    H174204   7.882   1.522  19.434
 7912TIP3    H274205   7.989   1.525  19.327
 7913TIP3   OH274206   7.642   1.758  18.892
 7913TIP3    H174207   7.596   1.744  18.810
 7913TIP3    H274208   7.687   1.841  18.880
 7914TIP3   OH274209   7.838   1.818  18.570
 7914TIP3    H174210   7.754   1.774  18.585
 7914TIP3    H274211   7.894   1.750  18.533
 7915TIP3   OH274212   1.158   2.881  19.121
 7915TIP3    H174213   1.162   2.977  19.127
 7915TIP3    H274214   1.083   2.863  19.064
 7916TIP3   OH274215   1.088   2.844   0.038
 7916TIP3    H174216   1.112   2.801   0.120
 7916TIP3    H274217   1.025   2.784  19.469
 7917TIP3   OH274218   1.565   3.120  19.435
 7917TIP3    H174219   1.485   3.068  19.439
 7917TIP3    H274220   1.543   3.203   0.004
 7918TIP3   OH274221   0.121   2.758  19.240
 7918TIP3    H174222   0.056   2.694  19.209
 7918TIP3    H274223   0.161   2.792  19.160
 7919TIP3   OH274224   0.925   3.069   0.090
 7919TIP3    H174225   0.969   2.996   0.047
 7919TIP3    H274226   0.983   3.094   0.162
 7920TIP3   OH274227   1.817   2.201   0.203
 7920TIP3    H174228   1.824   2.278   0.259
 7920TIP3    H274229   1.886   2.211   0.139
 7921TIP3   OH274230   1.208   2.513   0.081
 7921TIP3    H174231   1.207   2.418   0.094
 7921TIP3    H274232   1.183   2.524  19.462
 7922TIP3   OH274233   1.816   2.409   0.377
 7922TIP3    H174234   1.728   2.446   0.388
 7922TIP3    H274235   1.849   2.399   0.467
 7923TIP3   OH274236   1.160   3.156  19.090
 7923TIP3    H174237   1.132   3.179  19.001
 7923TIP3    H274238   1.181   3.240  19.131
 7924TIP3   OH274239   0.719   2.983   0.271
 7924TIP3    H174240   0.658   3.054   0.291
 7924TIP3    H274241   0.780   3.020   0.208
 7925TIP3   OH274242   0.558   3.211   0.340
 7925TIP3    H174243   0.568   3.305   0.324
 7925TIP3    H274244   0.466   3.201   0.366
 7926TIP3   OH274245   0.161   3.168  18.926
 7926TIP3    H174246   0.139   3.195  18.837
 7926TIP3    H274247   0.209   3.242  18.963
 7927TIP3   OH274248   1.490   3.346   0.108
 7927TIP3    H174249   1.397   3.347   0.129
 7927TIP3    H274250   1.511   3.437   0.086
 7928TIP3   OH274251   1.556   2.139   0.273
 7928TIP3    H174252   1.496   2.196   0.225
 7928TIP3    H274253   1.643   2.163   0.241
 7929TIP3   OH274254   0.811   1.922  19.472
 7929TIP3    H174255   0.794   1.828   0.003
 7929TIP3    H274256   0.727   1.962   0.024
 7930TIP3   OH274257   1.605   3.113   0.452
 7930TIP3    H174258   1.608   3.052   0.378
 7930TIP3    H274259   1.617   3.199   0.412
 7931TIP3   OH274260   1.090   2.682  18.736
 7931TIP3    H174261   1.170   2.735  18.727
 7931TIP3    H274262   1.088   2.628  18.657
 7932TIP3   OH274263   1.403   2.847  19.000
 7932TIP3    H174264   1.322   2.860  19.050
 7932TIP3    H274265   1.461   2.800  19.060
 7933TIP3   OH274266   1.380   2.693   0.477
 7933TIP3    H174267   1.355   2.752   0.548
 7933TIP3    H274268   1.322   2.718   0.404
 7934TIP3   OH274269   0.766   3.260  19.438
 7934TIP3    H174270   0.756   3.226  19.349
 7934TIP3    H274271   0.819   3.194   0.011
 7935TIP3   OH274272   1.235   3.331   0.208
 7935TIP3    H174273   1.240   3.349   0.302
 7935TIP3    H274274   1.190   3.247   0.201
 7936TIP3   OH274275   0.713   3.246   0.574
 7936TIP3    H174276   0.644   3.303   0.607
 7936TIP3    H274277   0.677   3.209   0.493
 7937TIP3   OH274278   1.345   2.808  18.731
 7937TIP3    H174279   1.351   2.810  18.827
 7937TIP3    H274280   1.400   2.881  18.703
 7938TIP3   OH274281   0.501   3.420   0.622
 7938TIP3    H174282   0.510   3.449   0.531
 7938TIP3    H274283   0.408   3.401   0.632
 7939TIP3   OH274284   0.124   3.040   0.412
 7939TIP3    H174285   0.042   3.086   0.394
 7939TIP3    H274286   0.097   2.954   0.444
 7940TIP3   OH274287   0.110   3.250   0.024
 7940TIP3    H174288   0.189   3.210   0.061
 7940TIP3    H274289   0.087   3.319   0.087
 7941TIP3   OH274290   1.875   3.387   0.740
 7941TIP3    H174291   1.862   3.298   0.709
 7941TIP3    H274292   1.858   3.441   0.662
 7942TIP3   OH274293   0.967   3.352   0.541
 7942TIP3    H174294   0.975   3.436   0.586
 7942TIP3    H274295   0.879   3.321   0.562
 7943TIP3   OH274296   0.446   3.578  19.172
 7943TIP3    H174297   0.460   3.530  19.254
 7943TIP3    H274298   0.398   3.516  19.117
 7944TIP3   OH274299   1.590   2.567   0.651
 7944TIP3    H174300   1.514   2.595   0.601
 7944TIP3    H274301   1.606   2.477   0.622
 7945TIP3   OH274302   0.294   3.255   0.430
 7945TIP3    H174303   0.273   3.279   0.520
 7945TIP3    H274304   0.240   3.178   0.412
 7946TIP3   OH274305   0.568   2.046   0.059
 7946TIP3    H174306   0.510   2.002  19.470
 7946TIP3    H274307   0.534   2.136   0.066
 7947TIP3   OH274308   1.336   2.423   0.522
 7947TIP3    H174309   1.255   2.424   0.574
 7947TIP3    H274310   1.345   2.512   0.490
 7948TIP3   OH274311   1.107   2.529  18.975
 7948TIP3    H174312   1.071   2.592  18.912
 7948TIP3    H274313   1.193   2.507  18.940
 7949TIP3   OH274314   1.127   2.481   0.688
 7949TIP3    H174315   1.049   2.437   0.723
 7949TIP3    H274316   1.177   2.507   0.766
 7950TIP3   OH274317   1.186   2.576  19.275
 7950TIP3    H174318   1.173   2.663  19.239
 7950TIP3    H274319   1.156   2.517  19.206
 7951TIP3   OH274320   1.185   2.709   0.273
 7951TIP3    H174321   1.200   2.636   0.213
 7951TIP3    H274322   1.110   2.681   0.327
 7952TIP3   OH274323   0.862   2.301  19.259
 7952TIP3    H174324   0.773   2.274  19.279
 7952TIP3    H274325   0.917   2.245  19.314
 7953TIP3   OH274326   1.190   2.237   0.098
 7953TIP3    H174327   1.182   2.184   0.178
 7953TIP3    H274328   1.133   2.193   0.035
 7954TIP3   OH274329   0.853   3.051  18.881
 7954TIP3    H174330   0.864   2.956  18.876
 7954TIP3    H274331   0.820   3.067  18.970
 7955TIP3   OH274332   1.584   2.973   0.209
 7955TIP3    H174333   1.637   3.035   0.158
 7955TIP3    H274334   1.504   2.961   0.158
 7956TIP3   OH274335   1.252   2.238  18.748
 7956TIP3    H174336   1.210   2.201  18.670
 7956TIP3    H274337   1.274   2.328  18.723
 7957TIP3   OH274338   1.038   3.077   0.541
 7957TIP3    H174339   1.045   3.039   0.628
 7957TIP3    H274340   1.008   3.167   0.556
 7958TIP3   OH274341   1.350   2.528  18.845
 7958TIP3    H174342   1.436   2.533  18.886
 7958TIP3    H274343   1.353   2.594  18.775
 7959TIP3   OH274344   1.066   3.222  18.841
 7959TIP3    H174345   1.092   3.228  18.749
 7959TIP3    H274346   0.993   3.161  18.841
 7960TIP3   OH274347   0.087   2.776   0.475
 7960TIP3    H174348   0.173   2.741   0.453
 7960TIP3    H274349   0.025   2.711   0.443
 7961TIP3   OH274350   1.245   3.346   0.480
 7961TIP3    H174351   1.155   3.350   0.513
 7961TIP3    H274352   1.299   3.375   0.553
 7962TIP3   OH274353   1.832   3.143   0.609
 7962TIP3    H174354   1.742   3.135   0.580
 7962TIP3    H274355   1.881   3.084   0.552
 7963TIP3   OH274356   1.368   2.922   0.026
 7963TIP3    H174357   1.273   2.918   0.023
 7963TIP3    H274358   1.397   2.843  19.452
 7964TIP3   OH274359   0.645   3.348  19.122
 7964TIP3    H174360   0.685   3.435  19.120
 7964TIP3    H274361   0.566   3.357  19.067
 7965TIP3   OH274362   0.708   3.087  19.114
 7965TIP3    H174363   0.697   3.181  19.123
 7965TIP3    H274364   0.626   3.057  19.075
 7966TIP3   OH274365   0.854   3.515   0.329
 7966TIP3    H174366   0.907   3.591   0.352
 7966TIP3    H274367   0.898   3.441   0.372
 7967TIP3   OH274368   0.705   3.624  19.093
 7967TIP3    H174369   0.613   3.617  19.116
 7967TIP3    H274370   0.726   3.716  19.104
 7968TIP3   OH274371   1.125   3.081   0.280
 7968TIP3    H174372   1.090   3.080   0.369
 7968TIP3    H274373   1.187   3.008   0.277
 7969TIP3   OH274374   0.206   2.360   0.393
 7969TIP3    H174375   0.186   2.287   0.334
 7969TIP3    H274376   0.200   2.322   0.481
 7970TIP3   OH274377   1.535   3.015  18.822
 7970TIP3    H174378   1.490   2.970  18.893
 7970TIP3    H274379   1.618   3.042  18.860
 7971TIP3   OH274380   0.265   3.501   0.295
 7971TIP3    H174381   0.276   3.416   0.337
 7971TIP3    H274382   0.287   3.564   0.363
 7972TIP3   OH274383   0.665   3.241  18.794
 7972TIP3    H174384   0.724   3.168  18.813
 7972TIP3    H274385   0.724   3.314  18.773
 7973TIP3   OH274386   0.361   2.994  18.862
 7973TIP3    H174387   0.290   3.053  18.889
 7973TIP3    H274388   0.398   3.035  18.784
 7974TIP3   OH274389   0.887   2.343  18.984
 7974TIP3    H174390   0.963   2.401  18.972
 7974TIP3    H274391   0.878   2.334  19.079
 7975TIP3   OH274392   1.560   2.271   0.530
 7975TIP3    H174393   1.477   2.319   0.529
 7975TIP3    H274394   1.556   2.216   0.452
 7976TIP3   OH274395   1.428   2.661  19.394
 7976TIP3    H174396   1.344   2.621  19.371
 7976TIP3    H274397   1.448   2.627   0.009
 7977TIP3   OH274398   0.434   3.197  18.650
 7977TIP3    H174399   0.502   3.218  18.714
 7977TIP3    H274400   0.477   3.207  18.565
 7978TIP3   OH274401   1.552   3.612   0.079
 7978TIP3    H174402   1.488   3.657   0.024
 7978TIP3    H274403   1.628   3.670   0.080
 7979TIP3   OH274404   0.379   1.940  19.367
 7979TIP3    H174405   0.335   1.992  19.300
 7979TIP3    H274406   0.310   1.915  19.428
 7980TIP3   OH274407   0.296   3.398  19.023
 7980TIP3    H174408   0.225   3.407  19.086
 7980TIP3    H274409   0.273   3.458  18.952
 7981TIP3   OH274410   0.266   3.626   0.712
 7981TIP3    H174411   0.287   3.635   0.805
 7981TIP3    H274412   0.236   3.535   0.703
 7982TIP3   OH274413   0.592   3.553   0.845
 7982TIP3    H174414   0.652   3.488   0.882
 7982TIP3    H274415   0.565   3.515   0.762
 7983TIP3   OH274416   0.121   3.121   0.827
 7983TIP3    H174417   0.103   3.031   0.854
 7983TIP3    H274418   0.061   3.137   0.755
 7984TIP3   OH274419   0.774   3.100   0.803
 7984TIP3    H174420   0.759   3.138   0.716
 7984TIP3    H274421   0.779   3.006   0.787
 7985TIP3   OH274422   1.345   3.081   0.529
 7985TIP3    H174423   1.435   3.099   0.503
 7985TIP3    H274424   1.296   3.158   0.501
 7986TIP3   OH274425   1.095   2.949   0.797
 7986TIP3    H174426   1.180   2.918   0.763
 7986TIP3    H274427   1.067   2.880   0.856
 7987TIP3   OH274428   1.283   2.551   0.909
 7987TIP3    H174429   1.292   2.492   0.984
 7987TIP3    H274430   1.353   2.615   0.920
 7988TIP3   OH274431   1.355   2.878   0.702
 7988TIP3    H174432   1.336   2.952   0.644
 7988TIP3    H274433   1.450   2.867   0.697
 7989TIP3   OH274434   0.882   2.367   0.791
 7989TIP3    H174435   0.873   2.415   0.873
 7989TIP3    H274436   0.818   2.408   0.732
 7990TIP3   OH274437   0.879   1.944   0.631
 7990TIP3    H174438   0.877   1.848   0.637
 7990TIP3    H274439   0.864   1.963   0.539
 7991TIP3   OH274440   0.790   2.069   0.862
 7991TIP3    H174441   0.816   2.025   0.781
 7991TIP3    H274442   0.827   2.157   0.855
 7992TIP3   OH274443   0.159   3.248  18.665
 7992TIP3    H174444   0.252   3.233  18.651
 7992TIP3    H274445   0.119   3.242  18.578
 7993TIP3   OH274446   0.092   3.660  19.192
 7993TIP3    H174447   0.054   3.629  19.110
 7993TIP3    H274448   0.124   3.580  19.235
 7994TIP3   OH274449   0.197   3.420  19.291
 7994TIP3    H174450   0.150   3.354  19.340
 7994TIP3    H274451   0.284   3.424  19.331
 7995TIP3   OH274452   1.816   3.740   0.138
 7995TIP3    H174453   1.806   3.673   0.206
 7995TIP3    H274454   1.893   3.713   0.088
 7996TIP3   OH274455   1.819   3.545   0.329
 7996TIP3    H174456   1.747   3.482   0.339
 7996TIP3    H274457   1.898   3.491   0.331
 7997TIP3   OH274458   1.784   3.054  18.948
 7997TIP3    H174459   1.863   3.108  18.955
 7997TIP3    H274460   1.789   2.996  19.025
 7998TIP3   OH274461   1.801   2.831  19.124
 7998TIP3    H174462   1.714   2.801  19.150
 7998TIP3    H274463   1.830   2.766  19.059
 7999TIP3   OH274464   1.844   3.096   0.162
 7999TIP3    H174465   1.877   3.032   0.100
 7999TIP3    H274466   1.879   3.180   0.132
 8000TIP3   OH274467   1.603   3.372   0.359
 8000TIP3    H174468   1.524   3.399   0.406
 8000TIP3    H274469   1.575   3.361   0.268
 8001TIP3   OH274470   1.892   2.878  18.765
 8001TIP3    H174471   1.834   2.874  18.689
 8001TIP3    H274472   1.851   2.942  18.822
 8002TIP3   OH274473   1.568   2.690  19.159
 8002TIP3    H174474   1.565   2.606  19.113
 8002TIP3    H274475   1.522   2.674  19.242
 8003TIP3   OH274476   8.132   2.797   0.007
 8003TIP3    H174477   0.040   2.792  19.399
 8003TIP3    H274478   8.061   2.858  19.459
 8004TIP3   OH274479   1.623   2.847   0.669
 8004TIP3    H174480   1.639   2.753   0.661
 8004TIP3    H274481   1.666   2.885   0.593
 8005TIP3   OH274482   1.557   2.287  18.503
 8005TIP3    H174483   1.625   2.261  18.441
 8005TIP3    H274484   1.530   2.205  18.545
 8006TIP3   OH274485   1.595   2.474  18.974
 8006TIP3    H174486   1.564   2.387  18.949
 8006TIP3    H274487   1.676   2.486  18.925
 8007TIP3   OH274488   1.597   2.570   0.346
 8007TIP3    H174489   1.524   2.619   0.382
 8007TIP3    H274490   1.624   2.620   0.268
 8008TIP3   OH274491   1.964   2.015   0.807
 8008TIP3    H174492   1.928   1.938   0.850
 8008TIP3    H274493   1.888   2.059   0.769
 8009TIP3   OH274494   1.764   2.150   0.662
 8009TIP3    H174495   1.689   2.192   0.621
 8009TIP3    H274496   1.805   2.098   0.592
 8010TIP3   OH274497   0.107   2.109   0.301
 8010TIP3    H174498   0.046   2.108   0.375
 8010TIP3    H274499   0.051   2.103   0.224
 8011TIP3   OH274500   0.225   3.347   0.685
 8011TIP3    H174501   0.132   3.351   0.661
 8011TIP3    H274502   0.230   3.279   0.752
 8012TIP3   OH274503   0.580   3.492   0.363
 8012TIP3    H174504   0.548   3.574   0.324
 8012TIP3    H274505   0.675   3.500   0.360
 8013TIP3   OH274506   1.011   3.602   0.643
 8013TIP3    H174507   0.975   3.627   0.728
 8013TIP3    H274508   1.064   3.678   0.617
 8014TIP3   OH274509   0.339   3.716   0.464
 8014TIP3    H174510   0.272   3.784   0.454
 8014TIP3    H274511   0.328   3.684   0.553
 8015TIP3   OH274512   0.581   3.788   0.329
 8015TIP3    H174513   0.505   3.765   0.382
 8015TIP3    H274514   0.564   3.877   0.300
 8016TIP3   OH274515   0.349   3.637   0.077
 8016TIP3    H174516   0.316   3.596   0.156
 8016TIP3    H274517   0.399   3.569   0.032
 8017TIP3   OH274518   0.469   3.429  19.411
 8017TIP3    H174519   0.468   3.336  19.435
 8017TIP3    H274520   0.552   3.461  19.446
 8018TIP3   OH274521   0.707   3.505   0.066
 8018TIP3    H174522   0.738   3.421   0.031
 8018TIP3    H274523   0.750   3.512   0.152
 8019TIP3   OH274524   1.012   2.102  19.401
 8019TIP3    H174525   0.947   2.038  19.430
 8019TIP3    H274526   1.048   2.065  19.320
 8020TIP3   OH274527   0.770   1.938  19.194
 8020TIP3    H174528   0.851   1.965  19.151
 8020TIP3    H274529   0.792   1.934  19.287
 8021TIP3   OH274530   0.006   3.523  18.965
 8021TIP3    H174531   8.088   3.466  18.919
 8021TIP3    H274532   0.076   3.540  18.902
 8022TIP3   OH274533   0.742   2.145  18.849
 8022TIP3    H174534   0.786   2.074  18.896
 8022TIP3    H274535   0.783   2.225  18.883
 8023TIP3   OH274536   0.465   2.041   0.872
 8023TIP3    H174537   0.558   2.028   0.852
 8023TIP3    H274538   0.435   1.955   0.902
 8024TIP3   OH274539   0.307   3.613  18.568
 8024TIP3    H174540   0.278   3.673  18.499
 8024TIP3    H274541   0.329   3.532  18.522
 8025TIP3   OH274542   3.069   2.894  19.194
 8025TIP3    H174543   3.073   2.985  19.165
 8025TIP3    H274544   2.976   2.871  19.189
 8026TIP3   OH274545   2.887   2.851   0.109
 8026TIP3    H174546   2.980   2.839   0.131
 8026TIP3    H274547   2.858   2.765   0.079
 8027TIP3   OH274548   2.248   3.263   0.023
 8027TIP3    H174549   2.210   3.192  19.443
 8027TIP3    H274550   2.340   3.240   0.030
 8028TIP3   OH274551   2.727   3.074   0.131
 8028TIP3    H174552   2.773   2.991   0.118
 8028TIP3    H274553   2.797   3.139   0.140
 8029TIP3   OH274554   3.708   2.231   0.167
 8029TIP3    H174555   3.723   2.262   0.256
 8029TIP3    H274556   3.734   2.305   0.111
 8030TIP3   OH274557   3.151   2.470   0.153
 8030TIP3    H174558   3.123   2.382   0.131
 8030TIP3    H274559   3.114   2.526   0.085
 8031TIP3   OH274560   3.231   2.362  19.183
 8031TIP3    H174561   3.272   2.304  19.247
 8031TIP3    H274562   3.300   2.380  19.119
 8032TIP3   OH274563   3.700   2.327   0.425
 8032TIP3    H174564   3.650   2.402   0.393
 8032TIP3    H274565   3.757   2.363   0.493
 8033TIP3   OH274566   2.353   2.287   0.234
 8033TIP3    H174567   2.390   2.375   0.228
 8033TIP3    H274568   2.284   2.295   0.301
 8034TIP3   OH274569   3.062   3.155  19.105
 8034TIP3    H174570   3.136   3.196  19.059
 8034TIP3    H274571   3.025   3.227  19.158
 8035TIP3   OH274572   3.327   2.233  19.412
 8035TIP3    H174573   3.254   2.220  19.472
 8035TIP3    H274574   3.379   2.303  19.451
 8036TIP3   OH274575   3.422   2.217   0.241
 8036TIP3    H174576   3.354   2.258   0.295
 8036TIP3    H274577   3.451   2.286   0.182
 8037TIP3   OH274578   3.673   2.732   0.209
 8037TIP3    H174579   3.609   2.802   0.195
 8037TIP3    H274580   3.757   2.772   0.188
 8038TIP3   OH274581   3.270   2.828  19.007
 8038TIP3    H174582   3.203   2.848  19.072
 8038TIP3    H274583   3.341   2.788  19.056
 8039TIP3   OH274584   2.515   2.928  19.087
 8039TIP3    H174585   2.438   2.881  19.056
 8039TIP3    H274586   2.545   2.879  19.164
 8040TIP3   OH274587   2.515   3.210   0.014
 8040TIP3    H174588   2.532   3.220  19.393
 8040TIP3    H274589   2.587   3.156   0.046
 8041TIP3   OH274590   3.207   2.726  18.757
 8041TIP3    H174591   3.229   2.780  18.833
 8041TIP3    H274592   3.234   2.779  18.682
 8042TIP3   OH274593   2.449   3.466   0.661
 8042TIP3    H174594   2.458   3.479   0.566
 8042TIP3    H274595   2.360   3.434   0.673
 8043TIP3   OH274596   3.578   2.022  18.797
 8043TIP3    H174597   3.544   1.945  18.753
 8043TIP3    H274598   3.625   2.071  18.729
 8044TIP3   OH274599   1.860   2.953   0.401
 8044TIP3    H174600   1.848   3.006   0.322
 8044TIP3    H274601   1.866   2.863   0.368
 8045TIP3   OH274602   1.989   3.328   0.095
 8045TIP3    H174603   2.074   3.302   0.059
 8045TIP3    H274604   2.010   3.388   0.165
 8046TIP3   OH274605   2.193   3.645  19.210
 8046TIP3    H174606   2.254   3.601  19.270
 8046TIP3    H274607   2.113   3.592  19.215
 8047TIP3   OH274608   3.457   2.502   0.703
 8047TIP3    H174609   3.364   2.527   0.700
 8047TIP3    H274610   3.457   2.410   0.675
 8048TIP3   OH274611   2.415   2.056   0.092
 8048TIP3    H174612   2.336   2.046   0.038
 8048TIP3    H274613   2.401   2.138   0.140
 8049TIP3   OH274614   3.256   2.377   0.399
 8049TIP3    H174615   3.191   2.370   0.470
 8049TIP3    H274616   3.210   2.427   0.331
 8050TIP3   OH274617   2.433   2.553   0.207
 8050TIP3    H174618   2.359   2.593   0.255
 8050TIP3    H274619   2.426   2.590   0.119
 8051TIP3   OH274620   2.910   2.524   0.739
 8051TIP3    H174621   2.839   2.574   0.778
 8051TIP3    H274622   2.989   2.554   0.784
 8052TIP3   OH274623   3.096   2.543  19.336
 8052TIP3    H174624   3.052   2.606  19.278
 8052TIP3    H274625   3.129   2.475  19.277
 8053TIP3   OH274626   2.004   2.266  19.171
 8053TIP3    H174627   1.985   2.267  19.265
 8053TIP3    H274628   2.045   2.181  19.157
 8054TIP3   OH274629   3.403   3.839   0.684
 8054TIP3    H174630   3.441   3.855   0.598
 8054TIP3    H274631   3.474   3.858   0.746
 8055TIP3   OH274632   2.838   2.591   0.040
 8055TIP3    H174633   2.861   2.529  19.442
 8055TIP3    H274634   2.789   2.538   0.103
 8056TIP3   OH274635   2.694   2.458   0.240
 8056TIP3    H174636   2.608   2.500   0.238
 8056TIP3    H274637   2.727   2.475   0.328
 8057TIP3   OH274638   3.134   2.286  18.676
 8057TIP3    H174639   3.146   2.336  18.595
 8057TIP3    H274640   3.159   2.347  18.746
 8058TIP3   OH274641   3.201   2.474  18.858
 8058TIP3    H174642   3.268   2.484  18.926
 8058TIP3    H274643   3.192   2.562  18.820
 8059TIP3   OH274644   3.697   3.083   0.607
 8059TIP3    H174645   3.664   3.173   0.610
 8059TIP3    H274646   3.747   3.078   0.525
 8060TIP3   OH274647   3.182   2.844   0.081
 8060TIP3    H174648   3.150   2.891   0.004
 8060TIP3    H274649   3.247   2.782   0.046
 8061TIP3   OH274650   2.549   3.255  19.219
 8061TIP3    H174651   2.623   3.313  19.205
 8061TIP3    H274652   2.524   3.226  19.131
 8062TIP3   OH274653   2.731   3.558   0.266
 8062TIP3    H174654   2.783   3.632   0.234
 8062TIP3    H274655   2.753   3.552   0.359
 8063TIP3   OH274656   3.760   3.744  18.633
 8063TIP3    H174657   3.827   3.782  18.576
 8063TIP3    H274658   3.681   3.743  18.579
 8064TIP3   OH274659   2.122   2.293   0.398
 8064TIP3    H174660   2.063   2.321   0.468
 8064TIP3    H274661   2.141   2.201   0.418
 8065TIP3   OH274662   2.102   3.499   0.292
 8065TIP3    H174663   2.186   3.454   0.301
 8065TIP3    H274664   2.113   3.580   0.342
 8066TIP3   OH274665   2.984   2.173  18.900
 8066TIP3    H174666   3.024   2.187  18.815
 8066TIP3    H274667   3.020   2.242  18.956
 8067TIP3   OH274668   2.812   2.440   0.496
 8067TIP3    H174669   2.845   2.485   0.574
 8067TIP3    H274670   2.879   2.375   0.475
 8068TIP3   OH274671   3.458   2.270   0.561
 8068TIP3    H174672   3.385   2.293   0.503
 8068TIP3    H274673   3.534   2.265   0.504
 8069TIP3   OH274674   3.340   2.645  19.414
 8069TIP3    H174675   3.255   2.609  19.388
 8069TIP3    H274676   3.383   2.573  19.460
 8070TIP3   OH274677   2.292   3.202  18.630
 8070TIP3    H174678   2.284   3.231  18.540
 8070TIP3    H274679   2.242   3.121  18.634
 8071TIP3   OH274680   2.175   2.009  19.425
 8071TIP3    H174681   2.161   1.989  19.333
 8071TIP3    H274682   2.155   1.927  19.470
 8072TIP3   OH274683   2.061   3.670   0.769
 8072TIP3    H174684   2.095   3.665   0.859
 8072TIP3    H274685   2.100   3.595   0.725
 8073TIP3   OH274686   2.420   3.596   0.904
 8073TIP3    H174687   2.505   3.604   0.948
 8073TIP3    H274688   2.439   3.547   0.825
 8074TIP3   OH274689   2.719   2.951   0.788
 8074TIP3    H174690   2.684   2.955   0.699
 8074TIP3    H274691   2.805   2.993   0.782
 8075TIP3   OH274692   2.551   2.952  18.744
 8075TIP3    H174693   2.537   2.989  18.832
 8075TIP3    H274694   2.565   3.028  18.688
 8076TIP3   OH274695   3.013   2.954   0.914
 8076TIP3    H174696   3.106   2.946   0.935
 8076TIP3    H274697   2.974   2.874   0.949
 8077TIP3   OH274698   2.650   2.195   0.322
 8077TIP3    H174699   2.671   2.281   0.287
 8077TIP3    H274700   2.554   2.194   0.327
 8078TIP3   OH274701   3.141   2.592   0.870
 8078TIP3    H174702   3.181   2.519   0.917
 8078TIP3    H274703   3.214   2.644   0.838
 8079TIP3   OH274704   3.318   2.766   0.738
 8079TIP3    H174705   3.272   2.802   0.662
 8079TIP3    H274706   3.408   2.797   0.729
 8080TIP3   OH274707   3.100   2.336   0.626
 8080TIP3    H174708   3.036   2.384   0.678
 8080TIP3    H274709   3.144   2.279   0.689
 8081TIP3   OH274710   3.224   2.188   0.841
 8081TIP3    H174711   3.199   2.100   0.871
 8081TIP3    H274712   3.205   2.245   0.916
 8082TIP3   OH274713   2.190   2.347   0.756
 8082TIP3    H174714   2.269   2.398   0.734
 8082TIP3    H274715   2.204   2.262   0.713
 8083TIP3   OH274716   1.862   3.732  19.133
 8083TIP3    H174717   1.822   3.684  19.061
 8083TIP3    H274718   1.887   3.665  19.196
 8084TIP3   OH274719   1.954   3.532  19.304
 8084TIP3    H174720   1.893   3.460  19.320
 8084TIP3    H274721   1.985   3.557  19.391
 8085TIP3   OH274722   3.795   2.882  18.689
 8085TIP3    H174723   3.755   2.864  18.604
 8085TIP3    H274724   3.814   2.976  18.686
 8086TIP3   OH274725   3.456   2.685  19.155
 8086TIP3    H174726   3.454   2.595  19.123
 8086TIP3    H274727   3.428   2.678  19.247
 8087TIP3   OH274728   3.574   2.866   0.718
 8087TIP3    H174729   3.626   2.792   0.686
 8087TIP3    H274730   3.612   2.942   0.675
 8088TIP3   OH274731   3.679   2.627   0.612
 8088TIP3    H174732   3.599   2.585   0.644
 8088TIP3    H274733   3.747   2.562   0.628
 8089TIP3   OH274734   3.461   2.308  18.566
 8089TIP3    H174735   3.550   2.273  18.560
 8089TIP3    H274736   3.413   2.245  18.619
 8090TIP3   OH274737   3.447   2.437  19.012
 8090TIP3    H174738   3.469   2.344  19.014
 8090TIP3    H274739   3.486   2.469  18.931
 8091TIP3   OH274740   3.485   2.435   0.066
 8091TIP3    H174741   3.575   2.444   0.032
 8091TIP3    H274742   3.489   2.472   0.154
 8092TIP3   OH274743   3.536   2.523   0.322
 8092TIP3    H174744   3.467   2.554   0.381
 8092TIP3    H274745   3.586   2.602   0.300
 8093TIP3   OH274746   1.950   2.360   0.614
 8093TIP3    H174747   2.021   2.377   0.675
 8093TIP3    H274748   1.897   2.293   0.657
 8094TIP3   OH274749   3.485   2.166  19.012
 8094TIP3    H174750   3.427   2.100  19.050
 8094TIP3    H274751   3.524   2.123  18.936
 8095TIP3   OH274752   2.040   2.234   0.037
 8095TIP3    H174753   2.085   2.154   0.007
 8095TIP3    H274754   2.100   2.272   0.102
 8096TIP3   OH274755   3.721   2.152  18.602
 8096TIP3    H174756   3.750   2.064  18.576
 8096TIP3    H274757   3.801   2.199  18.622
 8097TIP3   OH274758   1.866   2.035   0.434
 8097TIP3    H174759   1.843   1.947   0.405
 8097TIP3    H274760   1.850   2.090   0.357
 8098TIP3   OH274761   2.183   3.398   0.723
 8098TIP3    H174762   2.112   3.345   0.688
 8098TIP3    H274763   2.200   3.360   0.810
 8099TIP3   OH274764   3.144   3.747   0.622
 8099TIP3    H174765   3.172   3.656   0.611
 8099TIP3    H274766   3.224   3.793   0.648
 8100TIP3   OH274767   2.132   3.746   0.408
 8100TIP3    H174768   2.046   3.787   0.392
 8100TIP3    H274769   2.167   3.795   0.483
 8101TIP3   OH274770   2.426   3.820   0.333
 8101TIP3    H174771   2.336   3.786   0.334
 8101TIP3    H274772   2.437   3.853   0.244
 8102TIP3   OH274773   2.874   3.788   0.193
 8102TIP3    H174774   2.818   3.857   0.158
 8102TIP3    H274775   2.907   3.824   0.275
 8103TIP3   OH274776   2.078   3.646   0.055
 8103TIP3    H174777   2.079   3.608   0.143
 8103TIP3    H274778   2.161   3.618   0.016
 8104TIP3   OH274779   2.303   3.525  19.432
 8104TIP3    H174780   2.283   3.432  19.444
 8104TIP3    H274781   2.393   3.535  19.463
 8105TIP3   OH274782   2.545   3.491   0.074
 8105TIP3    H174783   2.560   3.398   0.062
 8105TIP3    H274784   2.612   3.518   0.137
 8106TIP3   OH274785   3.392   1.969  19.348
 8106TIP3    H174786   3.486   1.976  19.333
 8106TIP3    H274787   3.364   2.059  19.369
 8107TIP3   OH274788   2.129   1.985  19.138
 8107TIP3    H174789   2.085   1.971  19.054
 8107TIP3    H274790   2.218   1.953  19.125
 8108TIP3   OH274791   2.058   1.965  18.854
 8108TIP3    H174792   2.123   2.013  18.802
 8108TIP3    H274793   1.987   1.947  18.793
 8109TIP3   OH274794   2.181   2.096  18.645
 8109TIP3    H174795   2.168   2.055  18.560
 8109TIP3    H274796   2.194   2.189  18.625
 8110TIP3   OH274797   2.187   2.082   0.658
 8110TIP3    H174798   2.109   2.058   0.709
 8110TIP3    H274799   2.258   2.033   0.699
 8111TIP3   OH274800   2.391   1.927   0.764
 8111TIP3    H174801   2.468   1.929   0.708
 8111TIP3    H274802   2.379   1.834   0.784
 8112TIP3   OH274803   2.221   3.711  18.462
 8112TIP3    H174804   2.173   3.794  18.459
 8112TIP3    H274805   2.225   3.689  18.555
 8113TIP3   OH274806   4.972   2.877  19.173
 8113TIP3    H174807   4.954   2.969  19.151
 8113TIP3    H274808   4.908   2.828  19.121
 8114TIP3   OH274809   4.797   2.845   0.064
 8114TIP3    H174810   4.845   2.792   0.127
 8114TIP3    H274811   4.841   2.830  19.453
 8115TIP3   OH274812   4.145   2.878   0.197
 8115TIP3    H174813   4.146   2.898   0.291
 8115TIP3    H274814   4.216   2.815   0.185
 8116TIP3   OH274815   4.227   3.222   0.044
 8116TIP3    H174816   4.196   3.141   0.003
 8116TIP3    H274817   4.320   3.224   0.025
 8117TIP3   OH274818   3.841   2.640  19.100
 8117TIP3    H174819   3.871   2.724  19.135
 8117TIP3    H274820   3.755   2.659  19.064
 8118TIP3   OH274821   3.950   2.821  19.300
 8118TIP3    H174822   3.990   2.738  19.325
 8118TIP3    H274823   4.021   2.885  19.311
 8119TIP3   OH274824   4.685   3.098   0.106
 8119TIP3    H174825   4.706   3.009   0.076
 8119TIP3    H274826   4.756   3.120   0.166
 8120TIP3   OH274827   5.550   2.278   0.194
 8120TIP3    H174828   5.560   2.325   0.277
 8120TIP3    H274829   5.513   2.343   0.134
 8121TIP3   OH274830   5.043   2.492   0.064
 8121TIP3    H174831   5.056   2.400   0.088
 8121TIP3    H274832   4.990   2.488  19.457
 8122TIP3   OH274833   5.114   2.347  19.157
 8122TIP3    H174834   5.174   2.309  19.221
 8122TIP3    H274835   5.172   2.390  19.094
 8123TIP3   OH274836   3.976   2.529  19.310
 8123TIP3    H174837   4.056   2.507  19.263
 8123TIP3    H274838   3.915   2.556  19.242
 8124TIP3   OH274839   4.505   2.686  19.282
 8124TIP3    H174840   4.568   2.620  19.312
 8124TIP3    H274841   4.442   2.636  19.230
 8125TIP3   OH274842   4.902   3.116  19.050
 8125TIP3    H174843   4.942   3.138  18.966
 8125TIP3    H274844   4.809   3.135  19.038
 8126TIP3   OH274845   4.467   3.000   0.260
 8126TIP3    H174846   4.404   3.066   0.288
 8126TIP3    H274847   4.531   3.048   0.207
 8127TIP3   OH274848   5.267   2.282  19.378
 8127TIP3    H174849   5.203   2.254  19.444
 8127TIP3    H274850   5.326   2.341  19.425
 8128TIP3   OH274851   4.284   3.210   0.323
 8128TIP3    H174852   4.257   3.224   0.232
 8128TIP3    H274853   4.203   3.219   0.373
 8129TIP3   OH274854   3.964   3.179  18.914
 8129TIP3    H174855   3.895   3.178  18.847
 8129TIP3    H274856   3.952   3.262  18.959
 8130TIP3   OH274857   5.314   2.135   0.247
 8130TIP3    H174858   5.240   2.172   0.199
 8130TIP3    H274859   5.391   2.177   0.209
 8131TIP3   OH274860   4.537   1.912   0.001
 8131TIP3    H174861   4.461   1.970   0.014
 8131TIP3    H274862   4.609   1.972  19.453
 8132TIP3   OH274863   5.420   3.176   0.423
 8132TIP3    H174864   5.409   3.098   0.369
 8132TIP3    H274865   5.361   3.241   0.383
 8133TIP3   OH274866   4.810   2.829  18.937
 8133TIP3    H174867   4.751   2.902  18.916
 8133TIP3    H274868   4.873   2.828  18.865
 8134TIP3   OH274869   4.826   2.657  18.609
 8134TIP3    H174870   4.884   2.716  18.657
 8134TIP3    H274871   4.884   2.586  18.580
 8135TIP3   OH274872   5.179   2.843  18.989
 8135TIP3    H174873   5.113   2.855  19.057
 8135TIP3    H274874   5.245   2.788  19.029
 8136TIP3   OH274875   5.144   2.650   0.490
 8136TIP3    H174876   5.161   2.717   0.556
 8136TIP3    H274877   5.088   2.694   0.425
 8137TIP3   OH274878   4.353   2.900  19.197
 8137TIP3    H174879   4.318   2.861  19.117
 8137TIP3    H274880   4.419   2.837  19.228
 8138TIP3   OH274881   4.494   3.269  19.469
 8138TIP3    H174882   4.530   3.296  19.385
 8138TIP3    H274883   4.562   3.214   0.035
 8139TIP3   OH274884   4.441   3.240   0.559
 8139TIP3    H174885   4.393   3.314   0.597
 8139TIP3    H274886   4.399   3.225   0.475
 8140TIP3   OH274887   5.021   2.818  18.756
 8140TIP3    H174888   5.082   2.820  18.830
 8140TIP3    H274889   5.038   2.899  18.708
 8141TIP3   OH274890   4.132   2.902   0.467
 8141TIP3    H174891   4.151   2.956   0.544
 8141TIP3    H274892   4.053   2.853   0.491
 8142TIP3   OH274893   4.283   3.462   0.651
 8142TIP3    H174894   4.268   3.516   0.573
 8142TIP3    H274895   4.196   3.444   0.685
 8143TIP3   OH274896   5.454   1.939  18.766
 8143TIP3    H174897   5.364   1.964  18.786
 8143TIP3    H274898   5.493   2.017  18.728
 8144TIP3   OH274899   4.230   2.783  18.961
 8144TIP3    H174900   4.212   2.872  18.929
 8144TIP3    H274901   4.186   2.726  18.899
 8145TIP3   OH274902   3.860   3.041   0.383
 8145TIP3    H174903   3.869   3.022   0.290
 8145TIP3    H274904   3.873   2.956   0.426
 8146TIP3   OH274905   5.590   3.423   0.626
 8146TIP3    H174906   5.548   3.338   0.614
 8146TIP3    H274907   5.520   3.479   0.660
 8147TIP3   OH274908   4.131   3.588  19.142
 8147TIP3    H174909   4.152   3.543  19.224
 8147TIP3    H274910   4.077   3.526  19.094
 8148TIP3   OH274911   5.389   2.522   0.626
 8148TIP3    H174912   5.305   2.559   0.599
 8148TIP3    H274913   5.387   2.432   0.592
 8149TIP3   OH274914   4.044   3.235   0.481
 8149TIP3    H174915   4.084   3.182   0.550
 8149TIP3    H274916   3.979   3.177   0.440
 8150TIP3   OH274917   5.133   2.378   0.477
 8150TIP3    H174918   5.067   2.356   0.542
 8150TIP3    H274919   5.133   2.474   0.473
 8151TIP3   OH274920   4.749   2.249  18.667
 8151TIP3    H174921   4.720   2.234  18.757
 8151TIP3    H274922   4.670   2.239  18.614
 8152TIP3   OH274923   4.305   2.577  19.129
 8152TIP3    H174924   4.263   2.651  19.085
 8152TIP3    H274925   4.350   2.529  19.060
 8153TIP3   OH274926   4.868   2.590  19.049
 8153TIP3    H174927   4.829   2.666  19.007
 8153TIP3    H274928   4.937   2.562  18.990
 8154TIP3   OH274929   4.820   2.546   0.715
 8154TIP3    H174930   4.750   2.589   0.763
 8154TIP3    H274931   4.899   2.561   0.768
 8155TIP3   OH274932   4.921   2.485  19.291
 8155TIP3    H174933   4.892   2.537  19.216
 8155TIP3    H274934   4.986   2.424  19.254
 8156TIP3   OH274935   4.935   2.682   0.240
 8156TIP3    H174936   4.982   2.616   0.188
 8156TIP3    H274937   4.893   2.632   0.310
 8157TIP3   OH274938   4.436   2.476  18.912
 8157TIP3    H174939   4.526   2.452  18.891
 8157TIP3    H274940   4.405   2.522  18.833
 8158TIP3   OH274941   5.083   2.214   0.103
 8158TIP3    H174942   5.028   2.203   0.181
 8158TIP3    H274943   5.060   2.140   0.047
 8159TIP3   OH274944   4.342   2.608  18.689
 8159TIP3    H174945   4.258   2.640  18.655
 8159TIP3    H274946   4.404   2.626  18.619
 8160TIP3   OH274947   4.130   3.071   0.687
 8160TIP3    H174948   4.199   3.070   0.753
 8160TIP3    H274949   4.049   3.063   0.737
 8161TIP3   OH274950   4.664   2.483  19.389
 8161TIP3    H174951   4.752   2.481  19.351
 8161TIP3    H274952   4.678   2.512   0.006
 8162TIP3   OH274953   4.647   3.046  18.868
 8162TIP3    H174954   4.590   2.985  18.821
 8162TIP3    H274955   4.595   3.074  18.943
 8163TIP3   OH274956   5.386   2.985   0.230
 8163TIP3    H174957   5.460   3.018   0.178
 8163TIP3    H274958   5.308   3.022   0.187
 8164TIP3   OH274959   5.024   2.289  18.680
 8164TIP3    H174960   4.932   2.267  18.665
 8164TIP3    H274961   5.038   2.370  18.630
 8165TIP3   OH274962   4.841   3.086   0.558
 8165TIP3    H174963   4.847   3.021   0.628
 8165TIP3    H274964   4.767   3.141   0.582
 8166TIP3   OH274965   5.077   2.543  18.877
 8166TIP3    H174966   5.165   2.507  18.889
 8166TIP3    H274967   5.085   2.601  18.801
 8167TIP3   OH274968   4.170   2.967  19.395
 8167TIP3    H174969   4.242   2.948  19.336
 8167TIP3    H274970   4.198   2.930   0.007
 8168TIP3   OH274971   4.855   3.206  18.774
 8168TIP3    H174972   4.828   3.282  18.826
 8168TIP3    H274973   4.784   3.143  18.785
 8169TIP3   OH274974   3.875   2.803   0.525
 8169TIP3    H174975   3.920   2.777   0.605
 8169TIP3    H274976   3.797   2.747   0.522
 8170TIP3   OH274977   4.612   2.846   0.684
 8170TIP3    H174978   4.600   2.828   0.590
 8170TIP3    H274979   4.707   2.854   0.694
 8171TIP3   OH274980   5.635   3.068   0.559
 8171TIP3    H174981   5.563   3.112   0.514
 8171TIP3    H274982   5.681   3.020   0.490
 8172TIP3   OH274983   4.389   3.358  19.180
 8172TIP3    H174984   4.398   3.438  19.128
 8172TIP3    H274985   4.321   3.378  19.244
 8173TIP3   OH274986   4.052   2.758  18.730
 8173TIP3    H174987   4.083   2.845  18.755
 8173TIP3    H274988   3.959   2.770  18.712
 8174TIP3   OH274989   4.486   3.117  19.077
 8174TIP3    H174990   4.450   3.199  19.109
 8174TIP3    H274991   4.438   3.049  19.125
 8175TIP3   OH274992   4.389   3.625  19.053
 8175TIP3    H174993   4.296   3.620  19.073
 8175TIP3    H274994   4.417   3.708  19.091
 8176TIP3   OH274995   4.903   3.089   0.282
 8176TIP3    H174996   4.872   3.095   0.373
 8176TIP3    H274997   4.936   3.000   0.274
 8177TIP3   OH274998   5.058   3.070  18.642
 8177TIP3    H174999   5.140   3.079  18.691
 8177TIP3    H275000   4.996   3.125  18.688
 8178TIP3   OH275001   5.272   3.042  18.820
 8178TIP3    H175002   5.242   2.980  18.886
 8178TIP3    H275003   5.367   3.043  18.828
 8179TIP3   OH275004   3.941   3.468   0.313
 8179TIP3    H175005   3.986   3.407   0.372
 8179TIP3    H275006   3.979   3.553   0.332
 8180TIP3   OH275007   4.407   3.263  18.769
 8180TIP3    H175008   4.469   3.207  18.817
 8180TIP3    H275009   4.440   3.352  18.782
 8181TIP3   OH275010   4.143   3.000  18.820
 8181TIP3    H175011   4.081   3.054  18.869
 8181TIP3    H275012   4.172   3.056  18.748
 8182TIP3   OH275013   4.958   2.205   0.346
 8182TIP3    H175014   5.025   2.263   0.383
 8182TIP3    H275015   4.910   2.172   0.422
 8183TIP3   OH275016   4.966   2.225  18.947
 8183TIP3    H175017   4.999   2.263  18.865
 8183TIP3    H275018   5.018   2.268  19.015
 8184TIP3   OH275019   4.827   2.524   0.436
 8184TIP3    H175020   4.819   2.551   0.527
 8184TIP3    H275021   4.821   2.429   0.438
 8185TIP3   OH275022   4.509   3.517  18.824
 8185TIP3    H175023   4.526   3.583  18.757
 8185TIP3    H275024   4.465   3.564  18.894
 8186TIP3   OH275025   5.385   2.269   0.494
 8186TIP3    H175026   5.295   2.301   0.491
 8186TIP3    H275027   5.386   2.193   0.436
 8187TIP3   OH275028   5.219   2.638  19.373
 8187TIP3    H175029   5.167   2.714  19.350
 8187TIP3    H275030   5.163   2.586  19.430
 8188TIP3   OH275031   4.187   3.187  18.621
 8188TIP3    H175032   4.251   3.216  18.687
 8188TIP3    H275033   4.224   3.215  18.538
 8189TIP3   OH275034   3.929   3.430  19.032
 8189TIP3    H175035   3.879   3.439  19.113
 8189TIP3    H275036   3.886   3.491  18.972
 8190TIP3   OH275037   3.940   3.681   0.811
 8190TIP3    H175038   3.997   3.679   0.888
 8190TIP3    H275039   3.947   3.594   0.773
 8191TIP3   OH275040   4.434   3.575   0.862
 8191TIP3    H175041   4.488   3.502   0.892
 8191TIP3    H275042   4.384   3.539   0.789
 8192TIP3   OH275043   3.888   3.041   0.811
 8192TIP3    H175044   3.872   2.963   0.864
 8192TIP3    H275045   3.812   3.046   0.752
 8193TIP3   OH275046   4.555   3.108   0.769
 8193TIP3    H175047   4.518   3.148   0.691
 8193TIP3    H275048   4.573   3.017   0.743
 8194TIP3   OH275049   5.115   3.053   0.521
 8194TIP3    H175050   5.145   3.113   0.453
 8194TIP3    H275051   5.023   3.074   0.532
 8195TIP3   OH275052   4.006   2.724   0.749
 8195TIP3    H175053   4.100   2.735   0.763
 8195TIP3    H275054   3.967   2.750   0.832
 8196TIP3   OH275055   4.494   2.854  18.752
 8196TIP3    H175056   4.423   2.804  18.792
 8196TIP3    H275057   4.519   2.803  18.675
 8197TIP3   OH275058   4.562   2.664  18.522
 8197TIP3    H175059   4.570   2.699  18.433
 8197TIP3    H275060   4.652   2.662  18.555
 8198TIP3   OH275061   4.873   2.902   0.767
 8198TIP3    H175062   4.963   2.922   0.793
 8198TIP3    H275063   4.838   2.851   0.840
 8199TIP3   OH275064   5.502   2.915  18.440
 8199TIP3    H175065   5.527   2.896  18.350
 8199TIP3    H275066   5.420   2.964  18.433
 8200TIP3   OH275067   4.601   2.814   0.413
 8200TIP3    H175068   4.650   2.769   0.344
 8200TIP3    H275069   4.545   2.875   0.366
 8201TIP3   OH275070   5.022   2.572   0.900
 8201TIP3    H175071   5.032   2.494   0.955
 8201TIP3    H275072   5.095   2.629   0.925
 8202TIP3   OH275073   5.219   2.849   0.669
 8202TIP3    H175074   5.186   2.924   0.620
 8202TIP3    H275075   5.313   2.862   0.673
 8203TIP3   OH275076   4.924   2.301   0.634
 8203TIP3    H175077   4.877   2.375   0.673
 8203TIP3    H275078   4.974   2.264   0.706
 8204TIP3   OH275079   5.091   2.214   0.838
 8204TIP3    H175080   5.091   2.119   0.846
 8204TIP3    H275081   5.049   2.246   0.917
 8205TIP3   OH275082   4.599   3.682  18.611
 8205TIP3    H175083   4.680   3.632  18.606
 8205TIP3    H275084   4.618   3.764  18.566
 8206TIP3   OH275085   3.873   3.157  18.634
 8206TIP3    H175086   3.964   3.183  18.624
 8206TIP3    H275087   3.825   3.210  18.570
 8207TIP3   OH275088   3.779   3.719  19.137
 8207TIP3    H175089   3.788   3.694  19.045
 8207TIP3    H275090   3.797   3.639  19.186
 8208TIP3   OH275091   3.857   3.503  19.297
 8208TIP3    H175092   3.938   3.462  19.327
 8208TIP3    H275093   3.817   3.538  19.376
 8209TIP3   OH275094   5.580   3.608   0.131
 8209TIP3    H175095   5.566   3.618   0.225
 8209TIP3    H275096   5.660   3.659   0.113
 8210TIP3   OH275097   5.525   3.604   0.404
 8210TIP3    H175098   5.434   3.581   0.424
 8210TIP3    H275099   5.576   3.551   0.465
 8211TIP3   OH275100   5.367   3.183   1.011
 8211TIP3    H175101   5.275   3.197   1.034
 8211TIP3    H275102   5.415   3.239   1.071
 8212TIP3   OH275103   5.550   3.002  18.881
 8212TIP3    H175104   5.618   3.068  18.890
 8212TIP3    H275105   5.557   2.949  18.960
 8213TIP3   OH275106   5.568   2.842  19.110
 8213TIP3    H175107   5.492   2.784  19.116
 8213TIP3    H275108   5.618   2.824  19.190
 8214TIP3   OH275109   5.601   3.102   0.106
 8214TIP3    H175110   5.681   3.050   0.101
 8214TIP3    H275111   5.630   3.193   0.093
 8215TIP3   OH275112   5.643   2.833  18.668
 8215TIP3    H175113   5.596   2.858  18.588
 8215TIP3    H275114   5.603   2.886  18.736
 8216TIP3   OH275115   5.341   2.504  18.508
 8216TIP3    H175116   5.402   2.575  18.529
 8216TIP3    H275117   5.365   2.479  18.418
 8217TIP3   OH275118   5.349   2.666  19.129
 8217TIP3    H175119   5.336   2.586  19.078
 8217TIP3    H275120   5.313   2.647  19.215
 8218TIP3   OH275121   3.886   2.869   0.111
 8218TIP3    H175122   3.888   2.881   0.016
 8218TIP3    H275123   3.977   2.874   0.138
 8219TIP3   OH275124   5.493   2.880   0.703
 8219TIP3    H175125   5.543   2.799   0.699
 8219TIP3    H275126   5.540   2.940   0.646
 8220TIP3   OH275127   5.626   2.637   0.688
 8220TIP3    H175128   5.542   2.592   0.679
 8220TIP3    H275129   5.681   2.599   0.619
 8221TIP3   OH275130   5.347   2.187  18.493
 8221TIP3    H175131   5.424   2.193  18.550
 8221TIP3    H275132   5.283   2.244  18.534
 8222TIP3   OH275133   5.319   2.436  18.968
 8222TIP3    H175134   5.315   2.341  18.984
 8222TIP3    H275135   5.408   2.451  18.935
 8223TIP3   OH275136   5.385   2.474   0.077
 8223TIP3    H175137   5.375   2.539   0.007
 8223TIP3    H275138   5.334   2.510   0.150
 8224TIP3   OH275139   3.850   2.406   0.641
 8224TIP3    H175140   3.944   2.414   0.626
 8224TIP3    H275141   3.842   2.349   0.718
 8225TIP3   OH275142   5.638   1.997   0.852
 8225TIP3    H175143   5.695   1.931   0.813
 8225TIP3    H275144   5.638   2.069   0.790
 8226TIP3   OH275145   5.325   2.175  19.029
 8226TIP3    H175146   5.379   2.129  19.094
 8226TIP3    H275147   5.288   2.104  18.975
 8227TIP3   OH275148   3.763   2.483   0.040
 8227TIP3    H175149   3.833   2.500  19.450
 8227TIP3    H275150   3.757   2.565   0.090
 8228TIP3   OH275151   5.582   2.239   0.716
 8228TIP3    H175152   5.511   2.255   0.778
 8228TIP3    H275153   5.539   2.241   0.630
 8229TIP3   OH275154   5.585   2.166  18.648
 8229TIP3    H175155   5.635   2.168  18.566
 8229TIP3    H275156   5.610   2.247  18.693
 8230TIP3   OH275157   3.710   2.046   0.425
 8230TIP3    H175158   3.738   1.994   0.500
 8230TIP3    H275159   3.730   2.136   0.450
 8231TIP3   OH275160   4.013   3.426   0.710
 8231TIP3    H175161   3.995   3.363   0.641
 8231TIP3    H275162   4.001   3.377   0.791
 8232TIP3   OH275163   5.514   1.937   0.480
 8232TIP3    H175164   5.432   1.919   0.434
 8232TIP3    H275165   5.560   1.853   0.482
 8233TIP3   OH275166   4.032   3.756   0.343
 8233TIP3    H175167   3.957   3.812   0.327
 8233TIP3    H275168   4.058   3.775   0.433
 8234TIP3   OH275169   4.259   3.674   0.199
 8234TIP3    H175170   4.179   3.691   0.249
 8234TIP3    H275171   4.293   3.761   0.178
 8235TIP3   OH275172   4.201   3.456  19.371
 8235TIP3    H175173   4.187   3.380  19.427
 8235TIP3    H275174   4.267   3.508  19.416
 8236TIP3   OH275175   4.437   3.552   0.027
 8236TIP3    H175176   4.464   3.462   0.045
 8236TIP3    H275177   4.383   3.576   0.103
 8237TIP3   OH275178   5.323   1.923  19.365
 8237TIP3    H175179   5.381   1.987  19.323
 8237TIP3    H275180   5.240   1.970  19.376
 8238TIP3   OH275181   5.502   2.078  19.221
 8238TIP3    H175182   5.568   2.016  19.191
 8238TIP3    H275183   5.551   2.158  19.240
 8239TIP3   OH275184   5.053   2.012  19.390
 8239TIP3    H175185   5.019   2.036  19.304
 8239TIP3    H275186   5.028   1.921  19.402
 8240TIP3   OH275187   5.196   2.003  18.856
 8240TIP3    H175188   5.129   2.064  18.826
 8240TIP3    H275189   5.147   1.924  18.881
 8241TIP3   OH275190   3.849   3.649  18.877
 8241TIP3    H175191   3.797   3.667  18.799
 8241TIP3    H275192   3.937   3.680  18.855
 8242TIP3   OH275193   4.150   3.602  18.464
 8242TIP3    H175194   4.128   3.580  18.555
 8242TIP3    H275195   4.243   3.584  18.457
 8243TIP3   OH275196   5.125   1.940   0.850
 8243TIP3    H175197   5.116   1.886   0.929
 8243TIP3    H275198   5.216   1.928   0.823
 8244TIP3   OH275199   5.376   3.601   0.672
 8244TIP3    H175200   5.280   3.606   0.678
 8244TIP3    H275201   5.405   3.692   0.686
 8245TIP3   OH275202   6.924   2.843  19.177
 8245TIP3    H175203   6.891   2.929  19.202
 8245TIP3    H275204   6.893   2.831  19.087
 8246TIP3   OH275205   6.762   2.792   0.101
 8246TIP3    H175206   6.821   2.730   0.143
 8246TIP3    H275207   6.699   2.738   0.054
 8247TIP3   OH275208   7.127   3.146  19.403
 8247TIP3    H175209   7.087   3.075  19.454
 8247TIP3    H275210   7.140   3.216  19.467
 8248TIP3   OH275211   5.798   2.810  19.289
 8248TIP3    H175212   5.882   2.800  19.332
 8248TIP3    H275213   5.819   2.846  19.203
 8249TIP3   OH275214   6.606   3.027   0.149
 8249TIP3    H175215   6.644   2.945   0.117
 8249TIP3    H275216   6.679   3.071   0.193
 8250TIP3   OH275217   6.936   2.567   0.116
 8250TIP3    H175218   6.939   2.472   0.128
 8250TIP3    H275219   6.914   2.579   0.024
 8251TIP3   OH275220   6.811   3.188  19.068
 8251TIP3    H175221   6.837   3.142  18.987
 8251TIP3    H275222   6.894   3.214  19.108
 8252TIP3   OH275223   6.411   2.958   0.340
 8252TIP3    H175224   6.335   3.015   0.331
 8252TIP3    H275225   6.468   2.983   0.268
 8253TIP3   OH275226   6.210   3.164   0.348
 8253TIP3    H175227   6.224   3.206   0.264
 8253TIP3    H275228   6.124   3.194   0.376
 8254TIP3   OH275229   5.755   3.205  18.880
 8254TIP3    H175230   5.729   3.267  18.812
 8254TIP3    H275231   5.791   3.260  18.950
 8255TIP3   OH275232   7.149   3.360   0.111
 8255TIP3    H175233   7.059   3.362   0.144
 8255TIP3    H275234   7.169   3.452   0.092
 8256TIP3   OH275235   7.234   2.121   0.276
 8256TIP3    H175236   7.177   2.195   0.256
 8256TIP3    H275237   7.319   2.145   0.238
 8257TIP3   OH275238   6.506   1.933  19.452
 8257TIP3    H175239   6.458   1.851  19.459
 8257TIP3    H275240   6.456   1.985  19.390
 8258TIP3   OH275241   7.063   3.236  19.152
 8258TIP3    H175242   7.138   3.214  19.097
 8258TIP3    H275243   7.089   3.209  19.240
 8259TIP3   OH275244   7.147   2.887  18.994
 8259TIP3    H175245   7.103   2.876  19.078
 8259TIP3    H275246   7.238   2.864  19.011
 8260TIP3   OH275247   6.899   3.361   0.224
 8260TIP3    H175248   6.893   3.396   0.312
 8260TIP3    H275249   6.869   3.270   0.232
 8261TIP3   OH275250   6.410   3.217   0.533
 8261TIP3    H175251   6.387   3.310   0.541
 8261TIP3    H275252   6.346   3.181   0.472
 8262TIP3   OH275253   6.896   2.798  18.905
 8262TIP3    H175254   6.988   2.824  18.904
 8262TIP3    H275255   6.877   2.773  18.814
 8263TIP3   OH275256   7.308   1.908  18.740
 8263TIP3    H175257   7.213   1.909  18.752
 8263TIP3    H275258   7.338   1.989  18.783
 8264TIP3   OH275259   7.519   3.383  18.648
 8264TIP3    H175260   7.523   3.477  18.666
 8264TIP3    H275261   7.504   3.377  18.554
 8265TIP3   OH275262   5.693   3.363   0.082
 8265TIP3    H175263   5.766   3.382   0.141
 8265TIP3    H275264   5.636   3.440   0.090
 8266TIP3   OH275265   7.549   3.404   0.643
 8266TIP3    H175266   7.549   3.324   0.591
 8266TIP3    H275267   7.457   3.418   0.666
 8267TIP3   OH275268   5.952   3.250   0.442
 8267TIP3    H175269   5.937   3.298   0.524
 8267TIP3    H275270   5.881   3.186   0.439
 8268TIP3   OH275271   6.678   1.999   0.427
 8268TIP3    H175272   6.722   1.954   0.498
 8268TIP3    H275273   6.585   1.984   0.442
 8269TIP3   OH275274   6.991   2.356   0.499
 8269TIP3    H175275   6.932   2.389   0.567
 8269TIP3    H275276   7.058   2.424   0.489
 8270TIP3   OH275277   6.594   2.277  18.565
 8270TIP3    H175278   6.502   2.279  18.591
 8270TIP3    H275279   6.593   2.249  18.473
 8271TIP3   OH275280   6.886   2.594  19.320
 8271TIP3    H175281   6.902   2.673  19.269
 8271TIP3    H275282   6.966   2.543  19.313
 8272TIP3   OH275283   6.907   2.288   0.108
 8272TIP3    H175284   6.865   2.275   0.194
 8272TIP3    H275285   6.859   2.230   0.050
 8273TIP3   OH275286   6.648   2.564  19.463
 8273TIP3    H175287   6.720   2.565  19.399
 8273TIP3    H275288   6.645   2.473   0.021
 8274TIP3   OH275289   6.416   2.490   0.255
 8274TIP3    H175290   6.443   2.565   0.201
 8274TIP3    H275291   6.485   2.481   0.320
 8275TIP3   OH275292   6.841   2.326  18.671
 8275TIP3    H175293   6.754   2.310  18.632
 8275TIP3    H275294   6.884   2.384  18.608
 8276TIP3   OH275295   6.648   3.065   0.505
 8276TIP3    H175296   6.611   2.978   0.517
 8276TIP3    H275297   6.573   3.124   0.513
 8277TIP3   OH275298   6.041   2.810  19.430
 8277TIP3    H175299   6.113   2.871  19.416
 8277TIP3    H275300   6.082   2.723  19.430
 8278TIP3   OH275301   6.875   3.438   0.495
 8278TIP3    H175302   6.786   3.468   0.482
 8278TIP3    H275303   6.880   3.416   0.588
 8279TIP3   OH275304   7.362   3.271  18.842
 8279TIP3    H175305   7.303   3.344  18.858
 8279TIP3    H275306   7.414   3.298  18.766
 8280TIP3   OH275307   7.014   2.926   0.070
 8280TIP3    H175308   6.920   2.914   0.079
 8280TIP3    H275309   7.047   2.839   0.047
 8281TIP3   OH275310   6.185   3.402  19.157
 8281TIP3    H175311   6.246   3.354  19.101
 8281TIP3    H275312   6.101   3.394  19.113
 8282TIP3   OH275313   5.917   2.790  18.630
 8282TIP3    H175314   5.935   2.877  18.668
 8282TIP3    H275315   5.822   2.780  18.638
 8283TIP3   OH275316   6.826   3.106   0.299
 8283TIP3    H175317   6.772   3.094   0.377
 8283TIP3    H275318   6.904   3.054   0.316
 8284TIP3   OH275319   7.071   3.220  18.584
 8284TIP3    H175320   7.077   3.183  18.672
 8284TIP3    H275321   6.979   3.210  18.560
 8285TIP3   OH275322   7.131   3.546   0.485
 8285TIP3    H175323   7.041   3.513   0.483
 8285TIP3    H275324   7.128   3.627   0.433
 8286TIP3   OH275325   7.508   3.672  18.672
 8286TIP3    H175326   7.566   3.719  18.613
 8286TIP3    H275327   7.421   3.681  18.634
 8287TIP3   OH275328   7.124   3.119  18.842
 8287TIP3    H175329   7.132   3.036  18.888
 8287TIP3    H275330   7.213   3.154  18.840
 8288TIP3   OH275331   5.876   3.474   0.276
 8288TIP3    H175332   5.912   3.402   0.328
 8288TIP3    H275333   5.883   3.551   0.333
 8289TIP3   OH275334   6.566   3.232  18.496
 8289TIP3    H175335   6.526   3.281  18.424
 8289TIP3    H275336   6.493   3.183  18.534
 8290TIP3   OH275337   5.943   3.041  18.749
 8290TIP3    H175338   5.876   3.079  18.806
 8290TIP3    H275339   5.984   3.116  18.706
 8291TIP3   OH275340   6.786   2.245   0.349
 8291TIP3    H175341   6.860   2.265   0.407
 8291TIP3    H275342   6.755   2.159   0.379
 8292TIP3   OH275343   6.899   2.201  18.902
 8292TIP3    H175344   6.870   2.231  18.816
 8292TIP3    H275345   6.957   2.270  18.933
 8293TIP3   OH275346   6.574   2.400  19.021
 8293TIP3    H175347   6.617   2.428  18.940
 8293TIP3    H275348   6.502   2.461  19.032
 8294TIP3   OH275349   6.620   2.447   0.438
 8294TIP3    H175350   6.671   2.458   0.518
 8294TIP3    H275351   6.667   2.380   0.388
 8295TIP3   OH275352   6.675   2.148  19.054
 8295TIP3    H175353   6.635   2.235  19.058
 8295TIP3    H275354   6.757   2.161  19.007
 8296TIP3   OH275355   6.233   3.551  18.791
 8296TIP3    H175356   6.281   3.604  18.728
 8296TIP3    H275357   6.198   3.615  18.854
 8297TIP3   OH275358   6.041   3.271  18.618
 8297TIP3    H175359   6.108   3.323  18.663
 8297TIP3    H275360   6.077   3.256  18.530
 8298TIP3   OH275361   7.220   3.629   0.081
 8298TIP3    H175362   7.199   3.700   0.021
 8298TIP3    H275363   7.316   3.621   0.077
 8299TIP3   OH275364   5.856   3.407  19.052
 8299TIP3    H175365   5.820   3.430  19.138
 8299TIP3    H275366   5.845   3.486  18.999
 8300TIP3   OH275367   5.808   3.672   0.750
 8300TIP3    H175368   5.851   3.654   0.833
 8300TIP3    H275369   5.814   3.590   0.701
 8301TIP3   OH275370   6.920   3.369   0.764
 8301TIP3    H175371   6.871   3.292   0.792
 8301TIP3    H275372   7.011   3.347   0.779
 8302TIP3   OH275373   7.173   3.475  18.517
 8302TIP3    H175374   7.139   3.388  18.542
 8302TIP3    H275375   7.201   3.465  18.426
 8303TIP3   OH275376   5.739   3.053   0.829
 8303TIP3    H175377   5.677   2.992   0.869
 8303TIP3    H275378   5.709   3.062   0.738
 8304TIP3   OH275379   6.411   3.074   0.771
 8304TIP3    H175380   6.410   3.130   0.693
 8304TIP3    H275381   6.450   2.992   0.741
 8305TIP3   OH275382   7.046   2.476   0.857
 8305TIP3    H175383   6.990   2.400   0.845
 8305TIP3    H275384   7.022   2.511   0.943
 8306TIP3   OH275385   7.019   2.903   0.718
 8306TIP3    H175386   7.028   2.941   0.630
 8306TIP3    H275387   7.002   2.810   0.702
 8307TIP3   OH275388   6.397   1.961   0.423
 8307TIP3    H175389   6.366   2.050   0.407
 8307TIP3    H275390   6.336   1.905   0.375
 8308TIP3   OH275391   6.490   2.416   0.740
 8308TIP3    H175392   6.434   2.492   0.759
 8308TIP3    H275393   6.459   2.384   0.655
 8309TIP3   OH275394   6.764   2.400   0.676
 8309TIP3    H175395   6.676   2.403   0.713
 8309TIP3    H275396   6.812   2.340   0.733
 8310TIP3   OH275397   6.901   2.237   0.849
 8310TIP3    H175398   6.930   2.147   0.834
 8310TIP3    H275399   6.884   2.242   0.943
 8311TIP3   OH275400   6.403   1.864   0.687
 8311TIP3    H175401   6.476   1.803   0.682
 8311TIP3    H275402   6.393   1.897   0.598
 8312TIP3   OH275403   5.771   3.327  18.571
 8312TIP3    H175404   5.864   3.320  18.593
 8312TIP3    H275405   5.743   3.238  18.554
 8313TIP3   OH275406   5.578   3.611  19.093
 8313TIP3    H175407   5.646   3.631  19.028
 8313TIP3    H275408   5.627   3.578  19.168
 8314TIP3   OH275409   5.741   3.498  19.294
 8314TIP3    H175410   5.711   3.428  19.352
 8314TIP3    H275411   5.788   3.558  19.353
 8315TIP3   OH275412   7.502   3.600   0.093
 8315TIP3    H175413   7.521   3.599   0.187
 8315TIP3    H275414   7.568   3.659   0.056
 8316TIP3   OH275415   7.543   3.547   0.364
 8316TIP3    H175416   7.467   3.491   0.353
 8316TIP3    H275417   7.547   3.564   0.458
 8317TIP3   OH275418   7.311   3.114   0.874
 8317TIP3    H175419   7.263   3.156   0.804
 8317TIP3    H275420   7.345   3.186   0.927
 8318TIP3   OH275421   7.408   2.827  19.053
 8318TIP3    H175422   7.443   2.741  19.030
 8318TIP3    H275423   7.474   2.864  19.113
 8319TIP3   OH275424   7.469   3.096   0.219
 8319TIP3    H175425   7.445   3.066   0.131
 8319TIP3    H275426   7.510   3.181   0.206
 8320TIP3   OH275427   7.318   3.399   0.338
 8320TIP3    H175428   7.249   3.441   0.391
 8320TIP3    H275429   7.271   3.363   0.262
 8321TIP3   OH275430   5.807   2.903   0.089
 8321TIP3    H175431   5.755   2.873   0.015
 8321TIP3    H275432   5.898   2.884   0.065
 8322TIP3   OH275433   7.488   1.962   0.859
 8322TIP3    H175434   7.551   1.915   0.804
 8322TIP3    H275435   7.521   2.052   0.862
 8323TIP3   OH275436   7.288   2.122  18.916
 8323TIP3    H175437   7.307   2.118  19.009
 8323TIP3    H275438   7.201   2.083  18.908
 8324TIP3   OH275439   7.533   2.091  18.648
 8324TIP3    H175440   7.467   2.059  18.587
 8324TIP3    H275441   7.515   2.185  18.656
 8325TIP3   OH275442   5.673   2.020   0.233
 8325TIP3    H175443   5.638   2.011   0.321
 8325TIP3    H275444   5.642   2.106   0.204
 8326TIP3   OH275445   5.865   3.386   0.671
 8326TIP3    H175446   5.769   3.387   0.665
 8326TIP3    H275447   5.883   3.344   0.755
 8327TIP3   OH275448   7.320   1.956   0.488
 8327TIP3    H175449   7.296   2.023   0.423
 8327TIP3    H275450   7.369   1.891   0.438
 8328TIP3   OH275451   5.901   3.744   0.406
 8328TIP3    H175452   5.831   3.800   0.373
 8328TIP3    H275453   5.929   3.786   0.488
 8329TIP3   OH275454   6.113   3.697   0.233
 8329TIP3    H175455   6.047   3.708   0.301
 8329TIP3    H275456   6.092   3.764   0.168
 8330TIP3   OH275457   7.132   3.762   0.314
 8330TIP3    H175458   7.139   3.856   0.297
 8330TIP3    H275459   7.157   3.720   0.232
 8331TIP3   OH275460   5.883   3.614   0.033
 8331TIP3    H175461   5.891   3.570   0.117
 8331TIP3    H275462   5.968   3.602  19.463
 8332TIP3   OH275463   6.126   3.555  19.381
 8332TIP3    H175464   6.140   3.493  19.309
 8332TIP3    H275465   6.193   3.532  19.446
 8333TIP3   OH275466   6.749   2.107  19.441
 8333TIP3    H175467   6.672   2.049  19.439
 8333TIP3    H275468   6.810   2.066  19.380
 8334TIP3   OH275469   7.211   1.963  19.349
 8334TIP3    H175470   7.256   2.026  19.293
 8334TIP3    H275471   7.118   1.981  19.335
 8335TIP3   OH275472   7.390   2.111  19.175
 8335TIP3    H175473   7.423   2.021  19.174
 8335TIP3    H275474   7.463   2.164  19.141
 8336TIP3   OH275475   5.890   2.054  19.137
 8336TIP3    H175476   5.818   1.992  19.141
 8336TIP3    H275477   5.930   2.040  19.051
 8337TIP3   OH275478   5.841   1.996  18.765
 8337TIP3    H175479   5.892   1.954  18.695
 8337TIP3    H275480   5.763   2.029  18.721
 8338TIP3   OH275481   6.429   2.063  19.159
 8338TIP3    H175482   6.517   2.092  19.132
 8338TIP3    H275483   6.425   1.972  19.130
 8339TIP3   OH275484   6.938   1.973  19.278
 8339TIP3    H175485   6.909   1.961  19.187
 8339TIP3    H275486   6.909   1.893  19.323
 8340TIP3   OH275487   7.054   1.974  18.875
 8340TIP3    H175488   6.996   2.051  18.875
 8340TIP3    H275489   6.997   1.902  18.901
 8341TIP3   OH275490   5.792   3.629  18.896
 8341TIP3    H175491   5.770   3.602  18.807
 8341TIP3    H275492   5.836   3.714  18.886
 8342TIP3   OH275493   6.268   1.914   0.923
 8342TIP3    H175494   6.307   1.901   0.837
 8342TIP3    H275495   6.176   1.891   0.912
 8343TIP3   OH275496   6.997   1.964   0.829
 8343TIP3    H175497   7.008   1.961   0.924
 8343TIP3    H275498   7.085   1.948   0.794
 8344TIP3   OH275499   7.291   3.476   0.698
 8344TIP3    H175500   7.235   3.501   0.624
 8344TIP3    H275501   7.275   3.543   0.764
 8345TIP3   OH275502   7.872   2.780   0.306
 8345TIP3    H175503   7.867   2.812   0.396
 8345TIP3    H275504   7.866   2.859   0.253
 8346TIP3   OH275505   7.986   3.165   0.093
 8346TIP3    H175506   7.946   3.099   0.037
 8346TIP3    H275507   8.068   3.187   0.048
 8347TIP3   OH275508   7.963   2.313  19.381
 8347TIP3    H175509   8.038   2.371  19.376
 8347TIP3    H275510   7.950   2.282  19.292
 8348TIP3   OH275511   7.976   2.337   0.242
 8348TIP3    H175512   8.002   2.420   0.202
 8348TIP3    H275513   7.968   2.357   0.335
 8349TIP3   OH275514   8.041   3.185   0.366
 8349TIP3    H175515   8.021   3.191   0.272
 8349TIP3    H275516   7.956   3.175   0.408
 8350TIP3   OH275517   8.105   3.320   0.619
 8350TIP3    H175518   8.087   3.300   0.527
 8350TIP3    H275519   8.021   3.345   0.656
 8351TIP3   OH275520   7.594   3.327   0.100
 8351TIP3    H175521   7.628   3.314   0.011
 8351TIP3    H275522   7.544   3.409   0.094
 8352TIP3   OH275523   7.809   3.185   0.516
 8352TIP3    H175524   7.819   3.238   0.595
 8352TIP3    H275525   7.783   3.248   0.449
 8353TIP3   OH275526   8.042   2.098   0.121
 8353TIP3    H175527   7.993   2.078   0.042
 8353TIP3    H275528   8.014   2.187   0.145
 8354TIP3   OH275529   8.038   2.598   0.177
 8354TIP3    H175530   7.977   2.655   0.224
 8354TIP3    H275531   8.085   2.656   0.118
 8355TIP3   OH275532   8.097   2.576  19.117
 8355TIP3    H175533   8.009   2.586  19.082
 8355TIP3    H275534   0.002   2.533  19.047
 8356TIP3   OH275535   8.113   2.476  18.565
 8356TIP3    H175536   8.091   2.527  18.487
 8356TIP3    H275537   0.040   2.525  18.605
 8357TIP3   OH275538   7.910   2.225  19.121
 8357TIP3    H175539   7.852   2.151  19.140
 8357TIP3    H275540   7.975   2.189  19.061
 8358TIP3   OH275541   7.869   2.946  19.415
 8358TIP3    H175542   7.846   2.968  19.325
 8358TIP3    H275543   7.798   2.890  19.445
 8359TIP3   OH275544   7.760   3.376   0.323
 8359TIP3    H175545   7.726   3.344   0.239
 8359TIP3    H275546   7.706   3.452   0.343
 8360TIP3   OH275547   7.873   1.996  19.404
 8360TIP3    H175548   7.833   2.004  19.318
 8360TIP3    H275549   7.831   1.920  19.443
 8361TIP3   OH275550   7.738   3.434  19.108
 8361TIP3    H175551   7.750   3.351  19.061
 8361TIP3    H275552   7.712   3.496  19.039
 8362TIP3   OH275553   7.618   3.624   0.789
 8362TIP3    H175554   7.617   3.583   0.875
 8362TIP3    H275555   7.596   3.554   0.728
 8363TIP3   OH275556   7.582   3.064   0.773
 8363TIP3    H175557   7.596   3.025   0.687
 8363TIP3    H275558   7.487   3.067   0.783
 8364TIP3   OH275559   7.982   2.503   0.822
 8364TIP3    H175560   7.946   2.416   0.805
 8364TIP3    H275561   8.000   2.539   0.735
 8365TIP3   OH275562   7.886   2.249   0.770
 8365TIP3    H175563   7.828   2.218   0.700
 8365TIP3    H275564   7.922   2.170   0.810
 8366TIP3   OH275565   7.843   3.346   0.733
 8366TIP3    H175566   7.758   3.390   0.732
 8366TIP3    H275567   7.870   3.348   0.825
 8367TIP3   OH275568   7.755   2.000  19.152
 8367TIP3    H175569   7.667   1.969  19.133
 8367TIP3    H275570   7.811   1.922  19.141
 8368TIP3   OH275571   7.751   1.984  18.782
 8368TIP3    H175572   7.801   1.944  18.710
 8368TIP3    H275573   7.677   2.027  18.739
 8369TIP3   OH275574   7.760   2.043   0.598
 8369TIP3    H175575   7.693   1.978   0.619
 8369TIP3    H275576   7.833   2.024   0.657
 8370TIP3   OH275577   7.919   1.961   0.806
 8370TIP3    H175578   7.933   1.871   0.777
 8370TIP3    H275579   7.925   1.958   0.901
 8371TIP3   OH275580   1.086   4.707   0.043
 8371TIP3    H175581   1.089   4.659   0.126
 8371TIP3    H275582   1.036   4.649  19.457
 8372TIP3   OH275583   8.091   4.827  19.018
 8372TIP3    H175584   8.029   4.758  18.999
 8372TIP3    H275585   8.142   4.837  18.937
 8373TIP3   OH275586   0.087   4.649  19.323
 8373TIP3    H175587   0.150   4.579  19.340
 8373TIP3    H275588   0.032   4.614  19.253
 8374TIP3   OH275589   0.979   4.957   0.095
 8374TIP3    H175590   1.013   4.878   0.054
 8374TIP3    H275591   1.051   4.989   0.150
 8375TIP3   OH275592   1.265   4.384   0.088
 8375TIP3    H175593   1.339   4.327   0.106
 8375TIP3    H275594   1.217   4.340   0.018
 8376TIP3   OH275595   0.605   4.221  19.313
 8376TIP3    H175596   0.603   4.303  19.263
 8376TIP3    H275597   0.564   4.157  19.254
 8377TIP3   OH275598   0.254   4.439  19.387
 8377TIP3    H175599   0.306   4.400  19.457
 8377TIP3    H275600   0.291   4.403  19.306
 8378TIP3   OH275601   0.713   4.656  19.321
 8378TIP3    H175602   0.791   4.609  19.349
 8378TIP3    H275603   0.666   4.593  19.265
 8379TIP3   OH275604   0.499   4.063   0.314
 8379TIP3    H175605   0.489   4.070   0.219
 8379TIP3    H275606   0.416   4.095   0.350
 8380TIP3   OH275607   0.760   4.896   0.243
 8380TIP3    H175608   0.754   4.968   0.306
 8380TIP3    H275609   0.830   4.922   0.183
 8381TIP3   OH275610   1.545   4.155  19.406
 8381TIP3    H175611   1.620   4.113  19.363
 8381TIP3    H275612   1.584   4.228  19.454
 8382TIP3   OH275613   0.429   4.258   0.057
 8382TIP3    H175614   0.486   4.309   0.115
 8382TIP3    H275615   0.487   4.228  19.459
 8383TIP3   OH275616   0.974   4.770  18.932
 8383TIP3    H175617   0.956   4.836  18.864
 8383TIP3    H275618   1.047   4.719  18.896
 8384TIP3   OH275619   1.073   4.523  18.569
 8384TIP3    H175620   1.107   4.576  18.641
 8384TIP3    H275621   1.150   4.482  18.529
 8385TIP3   OH275622   1.843   4.646   0.194
 8385TIP3    H175623   1.762   4.695   0.211
 8385TIP3    H275624   1.901   4.710   0.153
 8386TIP3   OH275625   1.414   4.665  18.940
 8386TIP3    H175626   1.478   4.735  18.925
 8386TIP3    H275627   1.446   4.619  19.017
 8387TIP3   OH275628   0.641   4.671   0.124
 8387TIP3    H175629   0.664   4.678   0.032
 8387TIP3    H275630   0.682   4.748   0.165
 8388TIP3   OH275631   1.155   5.278   0.269
 8388TIP3    H175632   1.119   5.282   0.181
 8388TIP3    H275633   1.182   5.187   0.280
 8389TIP3   OH275634   1.196   4.678  18.771
 8389TIP3    H175635   1.271   4.667  18.831
 8389TIP3    H275636   1.218   4.755  18.719
 8390TIP3   OH275637   1.792   5.322  18.620
 8390TIP3    H175638   1.830   5.406  18.645
 8390TIP3    H275639   1.864   5.260  18.627
 8391TIP3   OH275640   0.926   5.254   0.435
 8391TIP3    H175641   1.005   5.284   0.390
 8391TIP3    H275642   0.894   5.331   0.482
 8392TIP3   OH275643   0.395   5.581  19.146
 8392TIP3    H175644   0.487   5.590  19.169
 8392TIP3    H275645   0.391   5.500  19.096
 8393TIP3   OH275646   1.531   4.458   0.704
 8393TIP3    H175647   1.491   4.541   0.677
 8393TIP3    H275648   1.547   4.412   0.621
 8394TIP3   OH275649   0.592   4.416   0.215
 8394TIP3    H175650   0.529   4.422   0.286
 8394TIP3    H275651   0.605   4.506   0.187
 8395TIP3   OH275652   0.594   4.454  19.158
 8395TIP3    H175653   0.502   4.430  19.148
 8395TIP3    H275654   0.631   4.446  19.070
 8396TIP3   OH275655   1.090   4.557   0.770
 8396TIP3    H175656   1.047   4.472   0.779
 8396TIP3    H275657   1.123   4.558   0.681
 8397TIP3   OH275658   0.400   4.416   0.412
 8397TIP3    H175659   0.323   4.469   0.434
 8397TIP3    H275660   0.370   4.325   0.423
 8398TIP3   OH275661   7.899   4.369  19.207
 8398TIP3    H175662   7.950   4.297  19.244
 8398TIP3    H275663   7.965   4.426  19.167
 8399TIP3   OH275664   0.220   4.280  18.779
 8399TIP3    H175665   0.304   4.290  18.734
 8399TIP3    H275666   0.163   4.238  18.714
 8400TIP3   OH275667   1.091   4.533   0.256
 8400TIP3    H175668   1.159   4.491   0.204
 8400TIP3    H275669   1.055   4.462   0.310
 8401TIP3   OH275670   0.874   4.226  19.358
 8401TIP3    H175671   0.783   4.213  19.332
 8401TIP3    H275672   0.870   4.233  19.454
 8402TIP3   OH275673   0.356   4.309  19.159
 8402TIP3    H175674   0.272   4.292  19.116
 8402TIP3    H275675   0.401   4.224  19.156
 8403TIP3   OH275676   0.675   4.408  18.896
 8403TIP3    H175677   0.758   4.446  18.867
 8403TIP3    H275678   0.615   4.422  18.823
 8404TIP3   OH275679   0.532   4.423  18.665
 8404TIP3    H175680   0.495   4.369  18.595
 8404TIP3    H275681   0.613   4.459  18.628
 8405TIP3   OH275682   0.919   4.499  19.420
 8405TIP3    H175683   0.927   4.427  19.358
 8405TIP3    H275684   0.897   4.457   0.031
 8406TIP3   OH275685   0.479   4.057  19.129
 8406TIP3    H175686   0.423   3.979  19.130
 8406TIP3    H275687   0.504   4.069  19.037
 8407TIP3   OH275688   0.839   4.309   0.147
 8407TIP3    H175689   0.752   4.338   0.173
 8407TIP3    H275690   0.886   4.298   0.230
 8408TIP3   OH275691   1.614   4.800   0.218
 8408TIP3    H175692   1.642   4.889   0.199
 8408TIP3    H275693   1.526   4.794   0.179
 8409TIP3   OH275694   0.984   4.986   0.477
 8409TIP3    H175695   0.941   4.957   0.557
 8409TIP3    H275696   0.960   5.079   0.469
 8410TIP3   OH275697   1.149   5.086  18.774
 8410TIP3    H175698   1.206   5.160  18.751
 8410TIP3    H275699   1.099   5.069  18.695
 8411TIP3   OH275700   0.050   4.701   0.390
 8411TIP3    H175701   0.067   4.674   0.480
 8411TIP3    H275702   0.000   4.628   0.353
 8412TIP3   OH275703   0.795   4.645   0.751
 8412TIP3    H175704   0.733   4.615   0.684
 8412TIP3    H275705   0.879   4.608   0.724
 8413TIP3   OH275706   1.808   4.431  18.758
 8413TIP3    H175707   1.789   4.434  18.664
 8413TIP3    H275708   1.819   4.523  18.782
 8414TIP3   OH275709   1.367   4.755   0.086
 8414TIP3    H175710   1.274   4.756   0.063
 8414TIP3    H275711   1.408   4.702   0.018
 8415TIP3   OH275712   0.181   4.722  18.696
 8415TIP3    H175713   0.276   4.711  18.696
 8415TIP3    H275714   0.150   4.667  18.624
 8416TIP3   OH275715   0.753   4.873  19.133
 8416TIP3    H175716   0.832   4.845  19.087
 8416TIP3    H275717   0.742   4.809  19.203
 8417TIP3   OH275718   0.700   5.311   0.283
 8417TIP3    H175719   0.728   5.399   0.256
 8417TIP3    H275720   0.773   5.278   0.335
 8418TIP3   OH275721   1.179   5.002   0.283
 8418TIP3    H175722   1.123   4.980   0.357
 8418TIP3    H275723   1.244   4.931   0.281
 8419TIP3   OH275724   0.273   4.167   0.449
 8419TIP3    H175725   0.196   4.220   0.470
 8419TIP3    H275726   0.247   4.077   0.470
 8420TIP3   OH275727   0.990   4.321   0.396
 8420TIP3    H175728   0.914   4.324   0.454
 8420TIP3    H275729   1.036   4.241   0.422
 8421TIP3   OH275730   0.602   4.127  18.896
 8421TIP3    H175731   0.606   4.222  18.883
 8421TIP3    H275732   0.692   4.098  18.892
 8422TIP3   OH275733   1.451   4.524  19.402
 8422TIP3    H175734   1.370   4.493  19.443
 8422TIP3    H275735   1.520   4.476  19.446
 8423TIP3   OH275736   0.305   3.882  19.446
 8423TIP3    H175737   0.330   3.870  19.354
 8423TIP3    H275738   0.328   3.799   0.016
 8424TIP3   OH275739   0.830   4.917   0.699
 8424TIP3    H175740   0.739   4.944   0.686
 8424TIP3    H275741   0.824   4.826   0.726
 8425TIP3   OH275742   0.354   4.705   0.705
 8425TIP3    H175743   0.402   4.656   0.772
 8425TIP3    H275744   0.318   4.781   0.752
 8426TIP3   OH275745   0.647   4.567   0.522
 8426TIP3    H175746   0.562   4.577   0.480
 8426TIP3    H275747   0.709   4.607   0.462
 8427TIP3   OH275748   0.789   4.519  18.608
 8427TIP3    H175749   0.757   4.591  18.553
 8427TIP3    H275750   0.883   4.515  18.590
 8428TIP3   OH275751   0.760   4.322   0.557
 8428TIP3    H175752   0.738   4.249   0.499
 8428TIP3    H275753   0.711   4.396   0.521
 8429TIP3   OH275754   0.758   4.113   0.384
 8429TIP3    H175755   0.804   4.034   0.358
 8429TIP3    H275756   0.666   4.097   0.361
 8430TIP3   OH275757   0.857   4.664   0.376
 8430TIP3    H175758   0.938   4.635   0.335
 8430TIP3    H275759   0.838   4.749   0.335
 8431TIP3   OH275760   1.332   4.422   0.907
 8431TIP3    H175761   1.315   4.330   0.927
 8431TIP3    H275762   1.410   4.420   0.851
 8432TIP3   OH275763   1.435   4.716   0.650
 8432TIP3    H175764   1.382   4.794   0.631
 8432TIP3    H275765   1.522   4.739   0.617
 8433TIP3   OH275766   0.531   4.379   0.755
 8433TIP3    H175767   0.456   4.334   0.715
 8433TIP3    H275768   0.597   4.383   0.686
 8434TIP3   OH275769   0.936   4.326   0.762
 8434TIP3    H175770   0.878   4.306   0.836
 8434TIP3    H275771   0.880   4.323   0.685
 8435TIP3   OH275772   0.270   4.252   0.755
 8435TIP3    H175773   0.276   4.162   0.723
 8435TIP3    H275774   0.320   4.251   0.837
 8436TIP3   OH275775   0.016   5.615  19.049
 8436TIP3    H175776   8.070   5.599  19.079
 8436TIP3    H275777   0.052   5.677  19.113
 8437TIP3   OH275778   1.722   5.049   0.800
 8437TIP3    H175779   1.697   5.096   0.720
 8437TIP3    H275780   1.809   5.015   0.781
 8438TIP3   OH275781   1.819   4.647  19.080
 8438TIP3    H175782   1.725   4.639  19.097
 8438TIP3    H275783   1.850   4.711  19.144
 8439TIP3   OH275784   1.859   5.000   0.188
 8439TIP3    H175785   1.907   4.941   0.130
 8439TIP3    H275786   1.888   5.088   0.162
 8440TIP3   OH275787   1.561   4.564  19.148
 8440TIP3    H175788   1.587   4.478  19.117
 8440TIP3    H275789   1.525   4.549  19.236
 8441TIP3   OH275790   1.697   4.761   0.590
 8441TIP3    H175791   1.762   4.711   0.641
 8441TIP3    H275792   1.749   4.809   0.526
 8442TIP3   OH275793   1.774   4.561   0.795
 8442TIP3    H175794   1.695   4.522   0.757
 8442TIP3    H275795   1.843   4.497   0.777
 8443TIP3   OH275796   1.636   4.338  19.010
 8443TIP3    H175797   1.621   4.244  19.015
 8443TIP3    H275798   1.685   4.350  18.929
 8444TIP3   OH275799   1.619   4.377   0.095
 8444TIP3    H175800   1.713   4.374   0.075
 8444TIP3    H275801   1.612   4.438   0.168
 8445TIP3   OH275802   0.076   4.321   0.561
 8445TIP3    H175803   0.128   4.294   0.637
 8445TIP3    H275804   0.024   4.395   0.593
 8446TIP3   OH275805   1.809   3.813   0.830
 8446TIP3    H175806   1.881   3.775   0.780
 8446TIP3    H275807   1.799   3.901   0.795
 8447TIP3   OH275808   1.526   4.068  19.032
 8447TIP3    H175809   1.433   4.077  19.056
 8447TIP3    H275810   1.523   4.028  18.945
 8448TIP3   OH275811   0.247   4.069   0.161
 8448TIP3    H175812   0.268   4.000   0.098
 8448TIP3    H275813   0.297   4.145   0.132
 8449TIP3   OH275814   8.128   4.405   0.037
 8449TIP3    H175815   8.095   4.329  19.460
 8449TIP3    H275816   0.070   4.422  19.472
 8450TIP3   OH275817   1.763   4.077   0.728
 8450TIP3    H175818   1.690   4.096   0.786
 8450TIP3    H275819   1.723   4.054   0.644
 8451TIP3   OH275820   1.858   4.021  18.656
 8451TIP3    H175821   1.884   3.944  18.606
 8451TIP3    H275822   1.885   4.095  18.602
 8452TIP3   OH275823   0.132   4.223  19.035
 8452TIP3    H175824   0.043   4.190  19.023
 8452TIP3    H275825   0.161   4.246  18.948
 8453TIP3   OH275826   0.144   3.922   0.516
 8453TIP3    H175827   0.076   3.921   0.583
 8453TIP3    H275828   0.097   3.922   0.433
 8454TIP3   OH275829   0.846   5.557   0.243
 8454TIP3    H175830   0.833   5.606   0.162
 8454TIP3    H275831   0.922   5.597   0.284
 8455TIP3   OH275832   0.314   5.513   0.051
 8455TIP3    H175833   0.286   5.443   0.110
 8455TIP3    H275834   0.387   5.476   0.001
 8456TIP3   OH275835   1.709   3.978  19.224
 8456TIP3    H175836   1.678   3.889  19.240
 8456TIP3    H275837   1.647   4.015  19.161
 8457TIP3   OH275838   0.317   3.821  19.166
 8457TIP3    H175839   0.233   3.776  19.181
 8457TIP3    H275840   0.381   3.751  19.161
 8458TIP3   OH275841   0.237   3.590  18.834
 8458TIP3    H175842   0.266   3.593  18.743
 8458TIP3    H275843   0.214   3.681  18.855
 8459TIP3   OH275844   0.728   3.901  19.114
 8459TIP3    H175845   0.784   3.947  19.052
 8459TIP3    H275846   0.657   3.962  19.133
 8460TIP3   OH275847   0.181   5.515  18.857
 8460TIP3    H175848   0.173   5.420  18.868
 8460TIP3    H275849   0.126   5.552  18.927
 8461TIP3   OH275850   0.384   4.191  18.552
 8461TIP3    H175851   0.306   4.229  18.511
 8461TIP3    H275852   0.357   4.103  18.579
 8462TIP3   OH275853   0.876   4.072  18.920
 8462TIP3    H175854   0.924   4.029  18.849
 8462TIP3    H275855   0.925   4.153  18.936
 8463TIP3   OH275856   0.316   3.986   0.729
 8463TIP3    H175857   0.274   3.938   0.658
 8463TIP3    H275858   0.379   3.925   0.766
 8464TIP3   OH275859   0.488   3.823   0.868
 8464TIP3    H175860   0.553   3.759   0.839
 8464TIP3    H275861   0.435   3.775   0.933
 8465TIP3   OH275862   3.293   5.117  19.374
 8465TIP3    H175863   3.237   5.052  19.415
 8465TIP3    H275864   3.350   5.148  19.445
 8466TIP3   OH275865   2.318   5.097   0.070
 8466TIP3    H175866   2.302   5.006   0.047
 8466TIP3    H275867   2.412   5.109   0.059
 8467TIP3   OH275868   1.968   4.422  19.087
 8467TIP3    H175869   1.909   4.496  19.080
 8467TIP3    H275870   1.979   4.390  18.998
 8468TIP3   OH275871   2.043   4.677  19.276
 8468TIP3    H175872   2.030   4.590  19.239
 8468TIP3    H275873   2.122   4.710  19.233
 8469TIP3   OH275874   2.784   4.955   0.044
 8469TIP3    H175875   2.774   4.869   0.004
 8469TIP3    H275876   2.879   4.964   0.056
 8470TIP3   OH275877   3.137   4.368   0.025
 8470TIP3    H175878   3.145   4.333   0.114
 8470TIP3    H275879   3.176   4.301  19.442
 8471TIP3   OH275880   3.159   4.270  19.117
 8471TIP3    H175881   3.191   4.238  19.201
 8471TIP3    H275882   3.237   4.303  19.072
 8472TIP3   OH275883   2.261   4.147   0.208
 8472TIP3    H175884   2.322   4.214   0.239
 8472TIP3    H275885   2.210   4.124   0.286
 8473TIP3   OH275886   3.288   4.183  19.360
 8473TIP3    H175887   3.281   4.133  19.440
 8473TIP3    H275888   3.383   4.192  19.345
 8474TIP3   OH275889   2.002   5.003  18.856
 8474TIP3    H175890   1.991   5.060  18.780
 8474TIP3    H275891   1.997   5.062  18.931
 8475TIP3   OH275892   3.399   5.292   0.109
 8475TIP3    H175893   3.305   5.284   0.121
 8475TIP3    H275894   3.414   5.384   0.090
 8476TIP3   OH275895   3.473   4.054   0.225
 8476TIP3    H175896   3.381   4.067   0.203
 8476TIP3    H275897   3.519   4.129   0.186
 8477TIP3   OH275898   3.210   5.330  19.213
 8477TIP3    H175899   3.234   5.254  19.266
 8477TIP3    H275900   3.281   5.392  19.225
 8478TIP3   OH275901   3.532   5.012   0.482
 8478TIP3    H175902   3.522   4.951   0.409
 8478TIP3    H275903   3.519   5.098   0.443
 8479TIP3   OH275904   3.660   4.634   0.302
 8479TIP3    H175905   3.611   4.717   0.302
 8479TIP3    H275906   3.698   4.629   0.215
 8480TIP3   OH275907   3.271   4.532   0.374
 8480TIP3    H175908   3.285   4.592   0.447
 8480TIP3    H275909   3.266   4.588   0.297
 8481TIP3   OH275910   2.378   4.838  19.230
 8481TIP3    H175911   2.368   4.798  19.144
 8481TIP3    H275912   2.443   4.907  19.217
 8482TIP3   OH275913   2.582   5.133  19.468
 8482TIP3    H175914   2.572   5.126  19.373
 8482TIP3    H275915   2.657   5.077   0.016
 8483TIP3   OH275916   3.137   5.240   0.159
 8483TIP3    H175917   3.102   5.207   0.241
 8483TIP3    H275918   3.123   5.169   0.096
 8484TIP3   OH275919   3.164   4.752  18.799
 8484TIP3    H175920   3.214   4.671  18.787
 8484TIP3    H275921   3.088   4.742  18.743
 8485TIP3   OH275922   2.989   5.317  19.050
 8485TIP3    H175923   3.072   5.312  19.098
 8485TIP3    H275924   2.929   5.361  19.110
 8486TIP3   OH275925   2.348   4.723  18.983
 8486TIP3    H175926   2.316   4.763  18.902
 8486TIP3    H275927   2.398   4.647  18.955
 8487TIP3   OH275928   3.630   5.266  18.626
 8487TIP3    H175929   3.674   5.351  18.638
 8487TIP3    H275930   3.701   5.206  18.602
 8488TIP3   OH275931   1.917   4.925   0.448
 8488TIP3    H175932   1.877   4.943   0.363
 8488TIP3    H275933   2.011   4.930   0.431
 8489TIP3   OH275934   2.017   5.249   0.141
 8489TIP3    H175935   2.098   5.201   0.123
 8489TIP3    H275936   2.034   5.338   0.109
 8490TIP3   OH275937   3.713   5.336   0.680
 8490TIP3    H175938   3.730   5.242   0.674
 8490TIP3    H275939   3.621   5.342   0.707
 8491TIP3   OH275940   3.241   5.596  18.707
 8491TIP3    H175941   3.273   5.518  18.660
 8491TIP3    H275942   3.164   5.624  18.658
 8492TIP3   OH275943   3.501   4.456   0.664
 8492TIP3    H175944   3.425   4.491   0.617
 8492TIP3    H275945   3.513   4.368   0.627
 8493TIP3   OH275946   2.421   3.957   0.086
 8493TIP3    H175947   2.393   3.950  19.468
 8493TIP3    H275948   2.366   4.026   0.123
 8494TIP3   OH275949   2.955   3.868   0.449
 8494TIP3    H175950   3.009   3.824   0.515
 8494TIP3    H275951   2.866   3.862   0.483
 8495TIP3   OH275952   3.224   4.267   0.472
 8495TIP3    H175953   3.174   4.268   0.553
 8495TIP3    H275954   3.226   4.358   0.443
 8496TIP3   OH275955   2.776   4.060  18.612
 8496TIP3    H175956   2.761   4.086  18.703
 8496TIP3    H275957   2.793   3.966  18.616
 8497TIP3   OH275958   1.982   4.174  19.210
 8497TIP3    H175959   2.019   4.183  19.298
 8497TIP3    H275960   1.972   4.264  19.178
 8498TIP3   OH275961   2.024   4.275  18.825
 8498TIP3    H175962   2.059   4.230  18.748
 8498TIP3    H275963   1.950   4.326  18.793
 8499TIP3   OH275964   3.204   4.069   0.130
 8499TIP3    H175965   3.151   4.098   0.205
 8499TIP3    H275966   3.167   3.984   0.107
 8500TIP3   OH275967   3.543   5.665   0.742
 8500TIP3    H175968   3.582   5.693   0.659
 8500TIP3    H275969   3.580   5.725   0.807
 8501TIP3   OH275970   2.205   4.989   0.794
 8501TIP3    H175971   2.182   5.059   0.855
 8501TIP3    H275972   2.121   4.961   0.758
 8502TIP3   OH275973   2.342   4.059  19.133
 8502TIP3    H175974   2.277   3.991  19.116
 8502TIP3    H275975   2.340   4.114  19.055
 8503TIP3   OH275976   3.513   4.861   0.255
 8503TIP3    H175977   3.566   4.899   0.184
 8503TIP3    H275978   3.434   4.828   0.211
 8504TIP3   OH275979   2.301   4.822   0.018
 8504TIP3    H175980   2.317   4.832  19.396
 8504TIP3    H275981   2.364   4.756   0.046
 8505TIP3   OH275982   3.596   4.429  18.838
 8505TIP3    H175983   3.564   4.426  18.747
 8505TIP3    H275984   3.663   4.497  18.838
 8506TIP3   OH275985   3.762   5.058   0.620
 8506TIP3    H175986   3.674   5.036   0.590
 8506TIP3    H275987   3.818   5.047   0.543
 8507TIP3   OH275988   3.539   5.262  18.887
 8507TIP3    H175989   3.501   5.176  18.902
 8507TIP3    H275990   3.568   5.260  18.796
 8508TIP3   OH275991   3.292   4.706   0.156
 8508TIP3    H175992   3.229   4.776   0.140
 8508TIP3    H275993   3.311   4.670   0.070
 8509TIP3   OH275994   2.479   5.171  19.208
 8509TIP3    H175995   2.534   5.229  19.156
 8509TIP3    H275996   2.398   5.220  19.223
 8510TIP3   OH275997   1.967   4.771  18.673
 8510TIP3    H175998   2.062   4.764  18.677
 8510TIP3    H275999   1.944   4.827  18.748
 8511TIP3   OH276000   2.513   5.465  19.149
 8511TIP3    H176001   2.442   5.529  19.153
 8511TIP3    H276002   2.543   5.457  19.239
 8512TIP3   OH276003   3.020   5.077   0.363
 8512TIP3    H176004   3.039   5.017   0.434
 8512TIP3    H276005   3.035   5.026   0.283
 8513TIP3   OH276006   3.339   5.446   0.474
 8513TIP3    H176007   3.247   5.436   0.450
 8513TIP3    H276008   3.366   5.528   0.433
 8514TIP3   OH276009   3.734   5.518  18.656
 8514TIP3    H176010   3.742   5.530  18.562
 8514TIP3    H276011   3.658   5.572  18.680
 8515TIP3   OH276012   2.116   4.091   0.438
 8515TIP3    H176013   2.087   4.165   0.492
 8515TIP3    H276014   2.141   4.024   0.502
 8516TIP3   OH276015   3.438   4.999  18.900
 8516TIP3    H176016   3.397   4.975  18.983
 8516TIP3    H276017   3.389   4.949  18.834
 8517TIP3   OH276018   2.232   4.874  18.770
 8517TIP3    H176019   2.158   4.911  18.819
 8517TIP3    H276020   2.265   4.948  18.718
 8518TIP3   OH276021   3.036   4.109   0.343
 8518TIP3    H176022   3.096   4.155   0.402
 8518TIP3    H276023   3.016   4.027   0.389
 8519TIP3   OH276024   2.902   4.016  19.062
 8519TIP3    H176025   2.920   3.970  19.143
 8519TIP3    H276026   2.974   4.078  19.053
 8520TIP3   OH276027   2.604   5.411  18.882
 8520TIP3    H176028   2.669   5.341  18.888
 8520TIP3    H276029   2.583   5.432  18.973
 8521TIP3   OH276030   2.458   4.156  18.769
 8521TIP3    H176031   2.417   4.217  18.830
 8521TIP3    H276032   2.547   4.147  18.801
 8522TIP3   OH276033   3.498   4.211   0.524
 8522TIP3    H176034   3.404   4.199   0.510
 8522TIP3    H276035   3.527   4.263   0.450
 8523TIP3   OH276036   3.368   4.515  19.428
 8523TIP3    H176037   3.280   4.480  19.443
 8523TIP3    H276038   3.424   4.464   0.014
 8524TIP3   OH276039   2.282   5.120  18.630
 8524TIP3    H176040   2.348   5.176  18.670
 8524TIP3    H276041   2.286   5.141  18.536
 8525TIP3   OH276042   3.481   5.561   0.090
 8525TIP3    H176043   3.473   5.627   0.021
 8525TIP3    H276044   3.575   5.543   0.096
 8526TIP3   OH276045   2.095   3.880  19.367
 8526TIP3    H176046   2.149   3.841  19.298
 8526TIP3    H276047   2.081   3.809  19.429
 8527TIP3   OH276048   2.050   5.585   0.797
 8527TIP3    H176049   2.123   5.573   0.858
 8527TIP3    H276050   2.030   5.497   0.766
 8528TIP3   OH276051   2.515   5.410   0.821
 8528TIP3    H176052   2.607   5.390   0.839
 8528TIP3    H276053   2.512   5.428   0.727
 8529TIP3   OH276054   3.089   5.291   0.825
 8529TIP3    H176055   3.145   5.312   0.750
 8529TIP3    H276056   3.148   5.293   0.900
 8530TIP3   OH276057   3.388   5.408  18.556
 8530TIP3    H176058   3.455   5.344  18.580
 8530TIP3    H276059   3.430   5.461  18.488
 8531TIP3   OH276060   1.947   4.912   0.722
 8531TIP3    H176061   1.985   4.825   0.739
 8531TIP3    H276062   1.935   4.914   0.627
 8532TIP3   OH276063   2.079   4.682   0.784
 8532TIP3    H176064   2.156   4.641   0.743
 8532TIP3    H276065   2.091   4.667   0.878
 8533TIP3   OH276066   3.342   4.704   0.577
 8533TIP3    H176067   3.311   4.792   0.553
 8533TIP3    H276068   3.421   4.720   0.629
 8534TIP3   OH276069   2.670   3.916   0.451
 8534TIP3    H176070   2.680   3.988   0.389
 8534TIP3    H276071   2.591   3.869   0.421
 8535TIP3   OH276072   3.071   4.220   0.695
 8535TIP3    H176073   2.978   4.222   0.718
 8535TIP3    H276074   3.112   4.170   0.766
 8536TIP3   OH276075   3.202   4.089   0.904
 8536TIP3    H176076   3.280   4.064   0.855
 8536TIP3    H276077   3.233   4.102   0.994
 8537TIP3   OH276078   2.153   4.167   0.753
 8537TIP3    H176079   2.171   4.082   0.713
 8537TIP3    H276080   2.173   4.155   0.846
 8538TIP3   OH276081   2.633   3.947   0.786
 8538TIP3    H176082   2.668   3.963   0.699
 8538TIP3    H276083   2.690   3.997   0.845
 8539TIP3   OH276084   2.004   5.144  18.618
 8539TIP3    H176085   2.099   5.143  18.620
 8539TIP3    H276086   1.981   5.112  18.531
 8540TIP3   OH276087   1.958   5.460  19.294
 8540TIP3    H176088   1.901   5.391  19.328
 8540TIP3    H276089   2.012   5.485  19.369
 8541TIP3   OH276090   3.749   5.521   0.157
 8541TIP3    H176091   3.745   5.481   0.244
 8541TIP3    H276092   3.783   5.609   0.172
 8542TIP3   OH276093   3.702   5.444   0.425
 8542TIP3    H176094   3.641   5.378   0.392
 8542TIP3    H276095   3.728   5.411   0.511
 8543TIP3   OH276096   3.470   5.040   0.947
 8543TIP3    H176097   3.379   5.067   0.963
 8543TIP3    H276098   3.521   5.119   0.964
 8544TIP3   OH276099   3.711   4.946   0.077
 8544TIP3    H176100   3.761   4.904   0.008
 8544TIP3    H276101   3.754   5.030   0.091
 8545TIP3   OH276102   3.508   5.259   0.359
 8545TIP3    H176103   3.440   5.314   0.399
 8545TIP3    H276104   3.482   5.252   0.267
 8546TIP3   OH276105   3.518   4.435  18.571
 8546TIP3    H176106   3.569   4.482  18.505
 8546TIP3    H276107   3.519   4.344  18.541
 8547TIP3   OH276108   3.550   4.519  19.211
 8547TIP3    H176109   3.506   4.464  19.147
 8547TIP3    H276110   3.485   4.534  19.280
 8548TIP3   OH276111   2.016   4.812   0.047
 8548TIP3    H176112   2.005   4.768  19.436
 8548TIP3    H276113   2.111   4.823   0.055
 8549TIP3   OH276114   3.591   4.709   0.712
 8549TIP3    H176115   3.576   4.614   0.710
 8549TIP3    H276116   3.653   4.725   0.640
 8550TIP3   OH276117   3.509   4.170  18.508
 8550TIP3    H176118   3.566   4.117  18.565
 8550TIP3    H276119   3.440   4.110  18.482
 8551TIP3   OH276120   3.420   4.332  19.025
 8551TIP3    H176121   3.434   4.238  19.016
 8551TIP3    H276122   3.476   4.371  18.959
 8552TIP3   OH276123   3.514   4.406   0.334
 8552TIP3    H176124   3.428   4.447   0.340
 8552TIP3    H276125   3.575   4.479   0.331
 8553TIP3   OH276126   1.922   4.314   0.769
 8553TIP3    H176127   2.009   4.280   0.752
 8553TIP3    H276128   1.863   4.240   0.755
 8554TIP3   OH276129   3.741   3.869   0.894
 8554TIP3    H176130   3.801   3.803   0.860
 8554TIP3    H276131   3.718   3.922   0.817
 8555TIP3   OH276132   3.481   4.065  18.990
 8555TIP3    H176133   3.525   4.021  19.063
 8555TIP3    H276134   3.542   4.056  18.917
 8556TIP3   OH276135   2.094   4.145  19.458
 8556TIP3    H176136   2.097   4.052  19.434
 8556TIP3    H276137   2.151   4.152   0.062
 8557TIP3   OH276138   1.885   4.401   0.073
 8557TIP3    H176139   1.976   4.386   0.046
 8557TIP3    H276140   1.887   4.487   0.115
 8558TIP3   OH276141   3.629   4.049   0.713
 8558TIP3    H176142   3.582   4.085   0.789
 8558TIP3    H276143   3.594   4.097   0.638
 8559TIP3   OH276144   3.693   4.028  18.664
 8559TIP3    H176145   3.697   3.933  18.653
 8559TIP3    H276146   3.777   4.060  18.631
 8560TIP3   OH276147   1.901   4.041  18.929
 8560TIP3    H176148   1.861   4.035  18.842
 8560TIP3    H276149   1.951   4.122  18.927
 8561TIP3   OH276150   3.440   5.500  19.232
 8561TIP3    H176151   3.473   5.515  19.143
 8561TIP3    H276152   3.502   5.438  19.271
 8562TIP3   OH276153   1.894   3.895   0.356
 8562TIP3    H176154   1.868   3.864   0.270
 8562TIP3    H276155   1.941   3.977   0.338
 8563TIP3   OH276156   2.068   5.311   0.759
 8563TIP3    H176157   2.079   5.271   0.673
 8563TIP3    H276158   2.133   5.266   0.814
 8564TIP3   OH276159   3.524   3.877   0.436
 8564TIP3    H176160   3.503   3.950   0.377
 8564TIP3    H276161   3.569   3.814   0.381
 8565TIP3   OH276162   2.309   5.636   0.197
 8565TIP3    H176163   2.339   5.661   0.284
 8565TIP3    H276164   2.354   5.697   0.138
 8566TIP3   OH276165   3.407   5.669   0.331
 8566TIP3    H176166   3.390   5.761   0.311
 8566TIP3    H276167   3.422   5.628   0.246
 8567TIP3   OH276168   2.123   5.497   0.049
 8567TIP3    H176169   2.176   5.541   0.115
 8567TIP3    H276170   2.186   5.446  19.470
 8568TIP3   OH276171   2.305   5.337  19.402
 8568TIP3    H176172   2.308   5.252  19.447
 8568TIP3    H276173   2.395   5.370  19.405
 8569TIP3   OH276174   2.571   5.411  19.417
 8569TIP3    H176175   2.598   5.325  19.449
 8569TIP3    H276176   2.626   5.473  19.465
 8570TIP3   OH276177   3.626   3.944  19.188
 8570TIP3    H176178   3.670   3.860  19.174
 8570TIP3    H276179   3.698   4.005  19.207
 8571TIP3   OH276180   2.145   3.870  19.071
 8571TIP3    H176181   2.131   3.854  18.978
 8571TIP3    H276182   2.172   3.785  19.106
 8572TIP3   OH276183   2.070   3.840  18.811
 8572TIP3    H176184   2.129   3.897  18.762
 8572TIP3    H276185   1.995   3.896  18.832
 8573TIP3   OH276186   2.222   4.029  18.688
 8573TIP3    H176187   2.218   4.020  18.593
 8573TIP3    H276188   2.309   4.065  18.706
 8574TIP3   OH276189   2.728   4.138  18.881
 8574TIP3    H176190   2.765   4.070  18.938
 8574TIP3    H276191   2.778   4.217  18.902
 8575TIP3   OH276192   3.567   5.518  18.985
 8575TIP3    H176193   3.560   5.427  18.958
 8575TIP3    H276194   3.543   5.568  18.907
 8576TIP3   OH276195   2.176   3.901   0.643
 8576TIP3    H176196   2.116   3.839   0.685
 8576TIP3    H276197   2.258   3.891   0.690
 8577TIP3   OH276198   2.379   3.859   0.823
 8577TIP3    H176199   2.468   3.891   0.807
 8577TIP3    H276200   2.391   3.768   0.852
 8578TIP3   OH276201   3.448   5.412   0.724
 8578TIP3    H176202   3.410   5.415   0.636
 8578TIP3    H276203   3.477   5.502   0.741
 8579TIP3   OH276204   4.928   4.708  19.146
 8579TIP3    H176205   4.915   4.803  19.145
 8579TIP3    H276206   4.862   4.674  19.086
 8580TIP3   OH276207   4.856   4.726   0.098
 8580TIP3    H176208   4.815   4.640   0.085
 8580TIP3    H276209   4.908   4.740   0.019
 8581TIP3   OH276210   4.139   5.145   0.080
 8581TIP3    H176211   4.144   5.056   0.044
 8581TIP3    H276212   4.230   5.172   0.091
 8582TIP3   OH276213   4.671   4.941   0.118
 8582TIP3    H176214   4.720   4.858   0.115
 8582TIP3    H276215   4.736   5.008   0.100
 8583TIP3   OH276216   5.518   4.101   0.223
 8583TIP3    H176217   5.550   4.157   0.294
 8583TIP3    H276218   5.478   4.161   0.160
 8584TIP3   OH276219   5.129   4.348   0.055
 8584TIP3    H176220   5.104   4.258   0.078
 8584TIP3    H276221   5.068   4.372  19.458
 8585TIP3   OH276222   5.623   4.287   0.404
 8585TIP3    H176223   5.616   4.366   0.351
 8585TIP3    H276224   5.637   4.319   0.493
 8586TIP3   OH276225   4.936   5.000  19.146
 8586TIP3    H176226   5.024   5.004  19.182
 8586TIP3    H276227   4.905   5.091  19.147
 8587TIP3   OH276228   5.284   3.938   0.261
 8587TIP3    H176229   5.209   3.985   0.223
 8587TIP3    H276230   5.360   3.991   0.238
 8588TIP3   OH276231   4.554   3.795  19.425
 8588TIP3    H176232   4.530   3.704  19.442
 8588TIP3    H276233   4.495   3.846   0.007
 8589TIP3   OH276234   5.617   4.682   0.287
 8589TIP3    H176235   5.522   4.679   0.291
 8589TIP3    H276236   5.636   4.761   0.235
 8590TIP3   OH276237   4.318   4.810  19.208
 8590TIP3    H176238   4.307   4.743  19.141
 8590TIP3    H276239   4.356   4.764  19.283
 8591TIP3   OH276240   4.428   5.081   0.083
 8591TIP3    H176241   4.436   5.099  19.462
 8591TIP3    H276242   4.506   5.029   0.104
 8592TIP3   OH276243   4.391   4.690  19.451
 8592TIP3    H176244   4.350   4.604  19.452
 8592TIP3    H276245   4.483   4.672  19.468
 8593TIP3   OH276246   5.153   5.219   0.213
 8593TIP3    H176247   5.083   5.283   0.216
 8593TIP3    H276248   5.157   5.193   0.121
 8594TIP3   OH276249   5.083   4.584  18.767
 8594TIP3    H176250   5.063   4.600  18.859
 8594TIP3    H276251   5.152   4.647  18.746
 8595TIP3   OH276252   3.864   5.181   0.100
 8595TIP3    H176253   3.959   5.172   0.087
 8595TIP3    H276254   3.848   5.275   0.091
 8596TIP3   OH276255   5.612   5.280   0.620
 8596TIP3    H176256   5.567   5.203   0.586
 8596TIP3    H276257   5.548   5.319   0.680
 8597TIP3   OH276258   4.734   5.324   0.628
 8597TIP3    H176259   4.651   5.337   0.583
 8597TIP3    H276260   4.767   5.241   0.594
 8598TIP3   OH276261   4.761   5.721  18.859
 8598TIP3    H176262   4.819   5.794  18.833
 8598TIP3    H276263   4.766   5.719  18.954
 8599TIP3   OH276264   5.342   4.491   0.658
 8599TIP3    H176265   5.305   4.527   0.577
 8599TIP3    H276266   5.318   4.398   0.656
 8600TIP3   OH276267   4.357   3.923   0.102
 8600TIP3    H176268   4.273   3.924   0.058
 8600TIP3    H276269   4.358   4.003   0.154
 8601TIP3   OH276270   4.831   4.445   0.727
 8601TIP3    H176271   4.797   4.531   0.750
 8601TIP3    H276272   4.919   4.444   0.765
 8602TIP3   OH276273   4.968   4.396  19.297
 8602TIP3    H176274   4.952   4.476  19.247
 8602TIP3    H276275   5.014   4.338  19.236
 8603TIP3   OH276276   3.862   4.090  19.206
 8603TIP3    H176277   3.933   4.027  19.219
 8603TIP3    H276278   3.891   4.142  19.131
 8604TIP3   OH276279   5.065   4.064   0.103
 8604TIP3    H176280   4.971   4.055   0.112
 8604TIP3    H276281   5.090   4.003   0.034
 8605TIP3   OH276282   5.386   5.661   0.741
 8605TIP3    H176283   5.398   5.689   0.650
 8605TIP3    H276284   5.459   5.700   0.788
 8606TIP3   OH276285   4.147   4.961   0.756
 8606TIP3    H176286   4.166   4.986   0.847
 8606TIP3    H276287   4.054   4.935   0.758
 8607TIP3   OH276288   4.756   4.482   0.027
 8607TIP3    H176289   4.797   4.437  19.426
 8607TIP3    H276290   4.702   4.416   0.070
 8608TIP3   OH276291   4.209   4.005  19.120
 8608TIP3    H176292   4.150   3.938  19.154
 8608TIP3    H276293   4.297   3.968  19.134
 8609TIP3   OH276294   4.588   4.330   0.195
 8609TIP3    H176295   4.518   4.394   0.208
 8609TIP3    H276296   4.617   4.308   0.284
 8610TIP3   OH276297   4.645   4.905  18.924
 8610TIP3    H176298   4.569   4.891  18.867
 8610TIP3    H276299   4.608   4.937  19.006
 8611TIP3   OH276300   4.198   4.897  19.447
 8611TIP3    H176301   4.217   4.901  19.354
 8611TIP3    H276302   4.256   4.829   0.008
 8612TIP3   OH276303   4.499   5.006  19.131
 8612TIP3    H176304   4.454   5.085  19.100
 8612TIP3    H276305   4.429   4.950  19.163
 8613TIP3   OH276306   4.107   5.368   0.320
 8613TIP3    H176307   4.073   5.295   0.268
 8613TIP3    H276308   4.072   5.354   0.408
 8614TIP3   OH276309   4.141   4.856  18.797
 8614TIP3    H176310   4.082   4.782  18.780
 8614TIP3    H276311   4.085   4.922  18.838
 8615TIP3   OH276312   4.104   3.906  19.471
 8615TIP3    H176313   4.073   3.879  19.384
 8615TIP3    H276314   4.044   3.861   0.059
 8616TIP3   OH276315   3.849   5.561   0.794
 8616TIP3    H176316   3.931   5.563   0.745
 8616TIP3    H276317   3.798   5.491   0.753
 8617TIP3   OH276318   3.875   4.891   0.814
 8617TIP3    H176319   3.807   4.882   0.882
 8617TIP3    H276320   3.837   4.950   0.749
 8618TIP3   OH276321   4.461   4.896   0.788
 8618TIP3    H176322   4.402   4.905   0.714
 8618TIP3    H276323   4.542   4.859   0.751
 8619TIP3   OH276324   4.415   4.854  18.764
 8619TIP3    H176325   4.324   4.855  18.794
 8619TIP3    H276326   4.409   4.852  18.668
 8620TIP3   OH276327   4.815   4.807   0.823
 8620TIP3    H176328   4.874   4.803   0.748
 8620TIP3    H276329   4.849   4.741   0.884
 8621TIP3   OH276330   5.083   4.422   0.843
 8621TIP3    H176331   5.087   4.333   0.810
 8621TIP3    H276332   5.169   4.460   0.822
 8622TIP3   OH276333   4.969   4.173   0.655
 8622TIP3    H176334   4.910   4.248   0.648
 8622TIP3    H276335   4.927   4.105   0.603
 8623TIP3   OH276336   4.587   5.712  18.642
 8623TIP3    H176337   4.644   5.701  18.718
 8623TIP3    H276338   4.559   5.803  18.646
 8624TIP3   OH276339   3.864   5.124  18.573
 8624TIP3    H176340   3.953   5.159  18.561
 8624TIP3    H276341   3.869   5.036  18.536
 8625TIP3   OH276342   3.795   5.649  19.069
 8625TIP3    H176343   3.711   5.609  19.047
 8625TIP3    H276344   3.861   5.590  19.033
 8626TIP3   OH276345   5.583   5.488   0.116
 8626TIP3    H176346   5.552   5.512   0.203
 8626TIP3    H276347   5.678   5.500   0.120
 8627TIP3   OH276348   5.540   5.443   0.406
 8627TIP3    H176349   5.485   5.374   0.370
 8627TIP3    H276350   5.589   5.400   0.476
 8628TIP3   OH276351   5.601   4.569   0.707
 8628TIP3    H176352   5.508   4.549   0.692
 8628TIP3    H276353   5.643   4.483   0.712
 8629TIP3   OH276354   5.402   4.302   0.087
 8629TIP3    H176355   5.462   4.376   0.075
 8629TIP3    H276356   5.315   4.338   0.070
 8630TIP3   OH276357   5.598   3.824   0.864
 8630TIP3    H176358   5.654   3.772   0.806
 8630TIP3    H276359   5.656   3.851   0.936
 8631TIP3   OH276360   5.541   4.022  18.692
 8631TIP3    H176361   5.526   3.942  18.642
 8631TIP3    H276362   5.497   4.090  18.641
 8632TIP3   OH276363   3.815   3.941   0.339
 8632TIP3    H176364   3.782   3.935   0.429
 8632TIP3    H276365   3.771   4.017   0.302
 8633TIP3   OH276366   4.350   5.337   0.460
 8633TIP3    H176367   4.283   5.352   0.393
 8633TIP3    H276368   4.421   5.397   0.436
 8634TIP3   OH276369   5.467   3.868   0.469
 8634TIP3    H176370   5.397   3.895   0.410
 8634TIP3    H276371   5.485   3.777   0.444
 8635TIP3   OH276372   5.338   5.716   0.242
 8635TIP3    H176373   5.314   5.808   0.252
 8635TIP3    H276374   5.330   5.699   0.148
 8636TIP3   OH276375   4.823   3.918   0.027
 8636TIP3    H176376   4.745   3.875  19.464
 8636TIP3    H276377   4.896   3.872  19.460
 8637TIP3   OH276378   4.019   3.830  19.214
 8637TIP3    H176379   3.928   3.810  19.194
 8637TIP3    H276380   4.067   3.750  19.193
 8638TIP3   OH276381   4.460   3.870  19.173
 8638TIP3    H176382   4.535   3.918  19.137
 8638TIP3    H276383   4.488   3.844  19.261
 8639TIP3   OH276384   3.936   5.472  18.845
 8639TIP3    H176385   3.862   5.476  18.785
 8639TIP3    H276386   4.009   5.509  18.796
 8640TIP3   OH276387   5.459   5.573  18.975
 8640TIP3    H176388   5.370   5.550  18.952
 8640TIP3    H276389   5.484   5.639  18.910
 8641TIP3   OH276390   4.082   3.810   0.609
 8641TIP3    H176391   4.018   3.773   0.669
 8641TIP3    H276392   4.155   3.837   0.664
 8642TIP3   OH276393   4.269   3.823   0.822
 8642TIP3    H176394   4.345   3.765   0.817
 8642TIP3    H276395   4.214   3.785   0.890
 8643TIP3   OH276396   5.409   5.391   0.768
 8643TIP3    H176397   5.320   5.356   0.761
 8643TIP3    H276398   5.398   5.485   0.756
 8644TIP3   OH276399   5.987   4.662   0.211
 8644TIP3    H176400   5.962   4.583   0.258
 8644TIP3    H276401   6.020   4.721   0.280
 8645TIP3   OH276402   5.709   4.478  19.030
 8645TIP3    H176403   5.624   4.514  19.002
 8645TIP3    H276404   5.687   4.391  19.065
 8646TIP3   OH276405   5.737   4.701  19.338
 8646TIP3    H176406   5.768   4.612  19.351
 8646TIP3    H276407   5.816   4.755  19.339
 8647TIP3   OH276408   6.801   5.532  19.429
 8647TIP3    H176409   6.811   5.441  19.401
 8647TIP3    H276410   6.766   5.527   0.045
 8648TIP3   OH276411   6.812   4.350   0.068
 8648TIP3    H176412   6.823   4.259   0.095
 8648TIP3    H276413   6.900   4.378   0.042
 8649TIP3   OH276414   6.236   4.171  19.323
 8649TIP3    H176415   6.222   4.239  19.257
 8649TIP3    H276416   6.179   4.099  19.295
 8650TIP3   OH276417   5.850   4.455  19.384
 8650TIP3    H176418   5.919   4.412  19.435
 8650TIP3    H276419   5.866   4.427  19.294
 8651TIP3   OH276420   6.395   4.560  19.266
 8651TIP3    H176421   6.453   4.509  19.323
 8651TIP3    H276422   6.332   4.496  19.232
 8652TIP3   OH276423   7.107   4.176  19.421
 8652TIP3    H176424   7.160   4.114  19.371
 8652TIP3    H276425   7.169   4.218   0.008
 8653TIP3   OH276426   6.053   4.294   0.023
 8653TIP3    H176427   6.097   4.341   0.094
 8653TIP3    H276428   6.123   4.251  19.447
 8654TIP3   OH276429   6.206   5.104   0.362
 8654TIP3    H176430   6.208   5.198   0.345
 8654TIP3    H276431   6.113   5.085   0.379
 8655TIP3   OH276432   7.146   4.038   0.243
 8655TIP3    H176433   7.057   4.056   0.215
 8655TIP3    H276434   7.197   4.112   0.210
 8656TIP3   OH276435   7.441   4.691   0.309
 8656TIP3    H176436   7.402   4.770   0.345
 8656TIP3    H276437   7.492   4.722   0.234
 8657TIP3   OH276438   6.300   4.795  19.146
 8657TIP3    H176439   6.239   4.759  19.081
 8657TIP3    H276440   6.331   4.718  19.194
 8658TIP3   OH276441   6.399   5.152  19.432
 8658TIP3    H176442   6.411   5.109  19.347
 8658TIP3    H276443   6.403   5.080   0.023
 8659TIP3   OH276444   6.358   5.122   0.588
 8659TIP3    H176445   6.294   5.184   0.622
 8659TIP3    H276446   6.321   5.094   0.503
 8660TIP3   OH276447   6.040   4.722   0.487
 8660TIP3    H176448   6.035   4.799   0.543
 8660TIP3    H276449   5.954   4.680   0.497
 8661TIP3   OH276450   6.157   5.315   0.633
 8661TIP3    H176451   6.173   5.344   0.543
 8661TIP3    H276452   6.062   5.319   0.643
 8662TIP3   OH276453   6.121   4.710  18.944
 8662TIP3    H176454   6.081   4.783  18.897
 8662TIP3    H276455   6.048   4.650  18.962
 8663TIP3   OH276456   7.484   5.276  18.703
 8663TIP3    H176457   7.485   5.349  18.642
 8663TIP3    H276458   7.560   5.223  18.680
 8664TIP3   OH276459   7.529   5.299   0.608
 8664TIP3    H176460   7.497   5.270   0.522
 8664TIP3    H276461   7.450   5.326   0.655
 8665TIP3   OH276462   6.564   5.290   0.501
 8665TIP3    H176463   6.587   5.344   0.578
 8665TIP3    H276464   6.505   5.224   0.536
 8666TIP3   OH276465   6.626   5.665  18.952
 8666TIP3    H176466   6.627   5.634  18.861
 8666TIP3    H276467   6.718   5.684  18.971
 8667TIP3   OH276468   6.025   5.520  19.196
 8667TIP3    H176469   6.050   5.482  19.281
 8667TIP3    H276470   5.968   5.454  19.156
 8668TIP3   OH276471   5.944   5.081   0.449
 8668TIP3    H176472   5.944   5.029   0.530
 8668TIP3    H276473   5.884   5.034   0.391
 8669TIP3   OH276474   6.980   4.226   0.506
 8669TIP3    H176475   6.900   4.172   0.503
 8669TIP3    H276476   6.965   4.294   0.440
 8670TIP3   OH276477   6.570   4.052  18.632
 8670TIP3    H176478   6.546   4.046  18.724
 8670TIP3    H276479   6.487   4.055  18.585
 8671TIP3   OH276480   6.190   4.450   0.214
 8671TIP3    H176481   6.122   4.432   0.280
 8671TIP3    H276482   6.169   4.538   0.181
 8672TIP3   OH276483   6.218   4.379  19.147
 8672TIP3    H176484   6.123   4.392  19.139
 8672TIP3    H276485   6.249   4.375  19.056
 8673TIP3   OH276486   6.662   4.520   0.743
 8673TIP3    H176487   6.629   4.430   0.734
 8673TIP3    H276488   6.743   4.521   0.693
 8674TIP3   OH276489   5.973   4.425   0.377
 8674TIP3    H176490   5.910   4.475   0.430
 8674TIP3    H276491   5.950   4.333   0.392
 8675TIP3   OH276492   5.730   4.214  19.143
 8675TIP3    H176493   5.750   4.169  19.225
 8675TIP3    H276494   5.719   4.143  19.079
 8676TIP3   OH276495   5.784   4.268  18.706
 8676TIP3    H176496   5.794   4.234  18.617
 8676TIP3    H276497   5.713   4.332  18.699
 8677TIP3   OH276498   6.508   4.200  19.278
 8677TIP3    H176499   6.418   4.177  19.301
 8677TIP3    H276500   6.531   4.270  19.339
 8678TIP3   OH276501   5.946   4.384  19.121
 8678TIP3    H176502   5.884   4.441  19.076
 8678TIP3    H276503   5.901   4.300  19.127
 8679TIP3   OH276504   6.317   4.355  18.893
 8679TIP3    H176505   6.412   4.345  18.901
 8679TIP3    H276506   6.304   4.392  18.806
 8680TIP3   OH276507   6.899   4.086   0.101
 8680TIP3    H176508   6.862   4.003   0.070
 8680TIP3    H276509   6.965   4.108   0.035
 8681TIP3   OH276510   6.267   4.441  18.637
 8681TIP3    H176511   6.218   4.390  18.573
 8681TIP3    H276512   6.328   4.493  18.585
 8682TIP3   OH276513   7.300   5.664   0.707
 8682TIP3    H176514   7.295   5.694   0.616
 8682TIP3    H276515   7.393   5.657   0.725
 8683TIP3   OH276516   5.965   4.912   0.676
 8683TIP3    H176517   6.029   4.940   0.741
 8683TIP3    H276518   5.916   4.842   0.719
 8684TIP3   OH276519   6.559   4.412  19.450
 8684TIP3    H176520   6.649   4.395   0.005
 8684TIP3    H276521   6.512   4.430   0.059
 8685TIP3   OH276522   6.487   4.911  18.906
 8685TIP3    H176523   6.545   4.835  18.914
 8685TIP3    H276524   6.489   4.951  18.993
 8686TIP3   OH276525   5.787   4.599   0.487
 8686TIP3    H176526   5.734   4.606   0.567
 8686TIP3    H276527   5.730   4.632   0.418
 8687TIP3   OH276528   6.435   4.678   0.717
 8687TIP3    H176529   6.379   4.640   0.649
 8687TIP3    H276530   6.516   4.628   0.713
 8688TIP3   OH276531   7.259   5.304  18.863
 8688TIP3    H176532   7.233   5.214  18.884
 8688TIP3    H276533   7.337   5.295  18.809
 8689TIP3   OH276534   6.273   5.240  19.120
 8689TIP3    H176535   6.291   5.330  19.094
 8689TIP3    H276536   6.186   5.243  19.159
 8690TIP3   OH276537   5.858   4.709  18.626
 8690TIP3    H176538   5.933   4.738  18.575
 8690TIP3    H276539   5.885   4.625  18.663
 8691TIP3   OH276540   6.444   5.026  19.160
 8691TIP3    H176541   6.386   5.100  19.140
 8691TIP3    H276542   6.385   4.951  19.165
 8692TIP3   OH276543   6.487   5.415   0.273
 8692TIP3    H176544   6.556   5.479   0.254
 8692TIP3    H276545   6.522   5.363   0.346
 8693TIP3   OH276546   6.263   5.520  19.054
 8693TIP3    H176547   6.178   5.532  19.098
 8693TIP3    H276548   6.313   5.598  19.076
 8694TIP3   OH276549   7.514   5.513  18.560
 8694TIP3    H176550   7.593   5.558  18.530
 8694TIP3    H276551   7.444   5.544  18.502
 8695TIP3   OH276552   5.874   4.171   0.420
 8695TIP3    H176553   5.783   4.199   0.407
 8695TIP3    H276554   5.870   4.075   0.419
 8696TIP3   OH276555   5.869   5.331   0.321
 8696TIP3    H176556   5.917   5.272   0.378
 8696TIP3    H276557   5.878   5.417   0.361
 8697TIP3   OH276558   6.406   5.179  18.793
 8697TIP3    H176559   6.493   5.191  18.830
 8697TIP3    H276560   6.365   5.265  18.797
 8698TIP3   OH276561   6.024   4.920  18.786
 8698TIP3    H176562   5.936   4.893  18.760
 8698TIP3    H276563   6.046   4.991  18.726
 8699TIP3   OH276564   6.572   4.278  19.015
 8699TIP3    H176565   6.650   4.224  19.029
 8699TIP3    H276566   6.527   4.278  19.100
 8700TIP3   OH276567   6.709   4.065  19.135
 8700TIP3    H176568   6.646   4.098  19.199
 8700TIP3    H276569   6.753   3.992  19.178
 8701TIP3   OH276570   6.285   5.422  18.795
 8701TIP3    H176571   6.324   5.491  18.742
 8701TIP3    H276572   6.273   5.461  18.881
 8702TIP3   OH276573   6.240   4.108  18.786
 8702TIP3    H176574   6.242   4.196  18.825
 8702TIP3    H276575   6.318   4.064  18.820
 8703TIP3   OH276576   7.250   4.146   0.539
 8703TIP3    H176577   7.158   4.171   0.523
 8703TIP3    H276578   7.296   4.176   0.461
 8704TIP3   OH276579   6.164   5.111  18.631
 8704TIP3    H176580   6.194   5.200  18.651
 8704TIP3    H276581   6.142   5.113  18.538
 8705TIP3   OH276582   7.258   5.557   0.108
 8705TIP3    H176583   7.253   5.614   0.031
 8705TIP3    H276584   7.199   5.485   0.087
 8706TIP3   OH276585   5.886   5.322  19.058
 8706TIP3    H176586   5.805   5.271  19.058
 8706TIP3    H276587   5.907   5.332  18.965
 8707TIP3   OH276588   5.828   5.574   0.807
 8707TIP3    H176589   5.895   5.574   0.876
 8707TIP3    H276590   5.837   5.488   0.766
 8708TIP3   OH276591   6.244   5.385   0.889
 8708TIP3    H176592   6.318   5.326   0.902
 8708TIP3    H276593   6.216   5.369   0.799
 8709TIP3   OH276594   6.872   5.316   0.800
 8709TIP3    H176595   6.853   5.223   0.808
 8709TIP3    H276596   6.961   5.325   0.833
 8710TIP3   OH276597   6.406   4.946   0.792
 8710TIP3    H176598   6.400   4.997   0.711
 8710TIP3    H276599   6.426   4.857   0.762
 8711TIP3   OH276600   5.842   4.692   0.794
 8711TIP3    H176601   5.871   4.632   0.863
 8711TIP3    H276602   5.751   4.669   0.777
 8712TIP3   OH276603   6.296   4.752  18.714
 8712TIP3    H176604   6.253   4.691  18.773
 8712TIP3    H276605   6.344   4.697  18.653
 8713TIP3   OH276606   6.264   4.563   0.532
 8713TIP3    H176607   6.190   4.621   0.516
 8713TIP3    H276608   6.270   4.510   0.453
 8714TIP3   OH276609   6.433   4.620  18.508
 8714TIP3    H176610   6.377   4.663  18.444
 8714TIP3    H276611   6.509   4.590  18.459
 8715TIP3   OH276612   6.142   4.352   0.813
 8715TIP3    H176613   6.062   4.304   0.790
 8715TIP3    H276614   6.152   4.417   0.743
 8716TIP3   OH276615   6.553   4.274   0.698
 8716TIP3    H176616   6.493   4.242   0.766
 8716TIP3    H276617   6.499   4.279   0.620
 8717TIP3   OH276618   6.928   4.101   0.810
 8717TIP3    H176619   6.971   4.027   0.768
 8717TIP3    H276620   6.951   4.177   0.756
 8718TIP3   OH276621   5.927   4.173   0.767
 8718TIP3    H176622   5.929   4.097   0.708
 8718TIP3    H276623   5.946   4.137   0.854
 8719TIP3   OH276624   6.418   5.588  18.618
 8719TIP3    H176625   6.508   5.594  18.651
 8719TIP3    H276626   6.420   5.634  18.534
 8720TIP3   OH276627   5.836   5.071  18.565
 8720TIP3    H176628   5.868   5.162  18.563
 8720TIP3    H276629   5.746   5.077  18.533
 8721TIP3   OH276630   5.643   5.630  19.169
 8721TIP3    H176631   5.582   5.605  19.099
 8721TIP3    H276632   5.649   5.551  19.223
 8722TIP3   OH276633   5.658   5.410  19.336
 8722TIP3    H176634   5.600   5.437  19.407
 8722TIP3    H276635   5.745   5.405  19.375
 8723TIP3   OH276636   7.520   5.563   0.201
 8723TIP3    H176637   7.430   5.555   0.171
 8723TIP3    H276638   7.573   5.556   0.121
 8724TIP3   OH276639   7.518   5.030   0.212
 8724TIP3    H176640   7.551   4.948   0.175
 8724TIP3    H276641   7.556   5.098   0.155
 8725TIP3   OH276642   7.273   4.282   0.144
 8725TIP3    H176643   7.363   4.298   0.116
 8725TIP3    H276644   7.260   4.341   0.218
 8726TIP3   OH276645   7.284   4.465   0.358
 8726TIP3    H176646   7.306   4.450   0.450
 8726TIP3    H276647   7.334   4.544   0.335
 8727TIP3   OH276648   5.693   4.308   0.684
 8727TIP3    H176649   5.784   4.286   0.703
 8727TIP3    H276650   5.644   4.229   0.706
 8728TIP3   OH276651   7.511   3.853   0.893
 8728TIP3    H176652   7.544   3.777   0.846
 8728TIP3    H276653   7.479   3.911   0.824
 8729TIP3   OH276654   7.335   4.065  19.002
 8729TIP3    H176655   7.321   4.021  19.086
 8729TIP3    H276656   7.247   4.089  18.973
 8730TIP3   OH276657   5.840   4.134  19.392
 8730TIP3    H176658   5.784   4.104  19.464
 8730TIP3    H276659   5.908   4.187  19.434
 8731TIP3   OH276660   5.641   4.457   0.108
 8731TIP3    H176661   5.706   4.451   0.038
 8731TIP3    H276662   5.660   4.541   0.151
 8732TIP3   OH276663   7.431   4.020   0.697
 8732TIP3    H176664   7.358   4.072   0.662
 8732TIP3    H276665   7.495   4.017   0.626
 8733TIP3   OH276666   7.449   4.055  18.569
 8733TIP3    H176667   7.491   4.028  18.487
 8733TIP3    H276668   7.516   4.105  18.615
 8734TIP3   OH276669   5.720   4.076  18.894
 8734TIP3    H176670   5.649   4.045  18.838
 8734TIP3    H276671   5.757   4.150  18.847
 8735TIP3   OH276672   5.707   3.933   0.346
 8735TIP3    H176673   5.638   3.914   0.409
 8735TIP3    H276674   5.663   3.982   0.276
 8736TIP3   OH276675   5.876   5.315   0.698
 8736TIP3    H176676   5.790   5.304   0.658
 8736TIP3    H276677   5.882   5.245   0.763
 8737TIP3   OH276678   6.228   5.381   0.366
 8737TIP3    H176679   6.192   5.465   0.339
 8737TIP3    H276680   6.319   5.383   0.338
 8738TIP3   OH276681   6.642   5.459   0.713
 8738TIP3    H176682   6.612   5.450   0.803
 8738TIP3    H276683   6.732   5.425   0.715
 8739TIP3   OH276684   5.898   5.602   0.397
 8739TIP3    H176685   5.831   5.652   0.350
 8739TIP3    H276686   5.912   5.652   0.477
 8740TIP3   OH276687   6.154   5.636   0.300
 8740TIP3    H176688   6.070   5.624   0.345
 8740TIP3    H276689   6.133   5.694   0.226
 8741TIP3   OH276690   6.665   5.611   0.195
 8741TIP3    H176691   6.633   5.668   0.124
 8741TIP3    H276692   6.682   5.671   0.267
 8742TIP3   OH276693   7.183   5.707   0.335
 8742TIP3    H176694   7.164   5.794   0.301
 8742TIP3    H276695   7.200   5.654   0.257
 8743TIP3   OH276696   5.861   5.422   0.057
 8743TIP3    H176697   5.867   5.388   0.146
 8743TIP3    H276698   5.952   5.442   0.033
 8744TIP3   OH276699   6.126   5.392  19.424
 8744TIP3    H176700   6.127   5.302  19.455
 8744TIP3    H276701   6.214   5.424  19.442
 8745TIP3   OH276702   6.398   5.422   0.014
 8745TIP3    H176703   6.404   5.331  19.457
 8745TIP3    H276704   6.422   5.419   0.106
 8746TIP3   OH276705   7.166   3.842  19.387
 8746TIP3    H176706   7.243   3.881  19.346
 8746TIP3    H276707   7.095   3.856  19.324
 8747TIP3   OH276708   7.391   3.944  19.267
 8747TIP3    H176709   7.451   3.876  19.296
 8747TIP3    H276710   7.446   4.021  19.256
 8748TIP3   OH276711   5.903   3.875  18.832
 8748TIP3    H176712   5.945   3.908  18.753
 8748TIP3    H276713   5.842   3.944  18.857
 8749TIP3   OH276714   6.060   3.980  18.627
 8749TIP3    H176715   6.061   4.027  18.543
 8749TIP3    H276716   6.119   4.030  18.683
 8750TIP3   OH276717   6.482   4.023  18.891
 8750TIP3    H176718   6.481   3.942  18.943
 8750TIP3    H276719   6.519   4.089  18.950
 8751TIP3   OH276720   6.687   5.587  18.688
 8751TIP3    H176721   6.739   5.651  18.639
 8751TIP3    H276722   6.721   5.502  18.660
 8752TIP3   OH276723   5.936   3.902   0.659
 8752TIP3    H176724   5.874   3.834   0.684
 8752TIP3    H276725   6.011   3.888   0.717
 8753TIP3   OH276726   6.105   3.843   0.876
 8753TIP3    H176727   6.192   3.804   0.876
 8753TIP3    H276728   6.048   3.777   0.916
 8754TIP3   OH276729   6.014   5.524  18.521
 8754TIP3    H176730   5.951   5.573  18.573
 8754TIP3    H276731   6.095   5.528  18.572
 8755TIP3   OH276732   7.277   5.395   0.677
 8755TIP3    H176733   7.240   5.389   0.588
 8755TIP3    H276734   7.278   5.488   0.696
 8756TIP3   OH276735   7.881   4.718   0.214
 8756TIP3    H176736   7.927   4.637   0.237
 8756TIP3    H276737   7.882   4.770   0.295
 8757TIP3   OH276738   7.899   5.119   0.093
 8757TIP3    H176739   7.948   5.038   0.081
 8757TIP3    H276740   7.958   5.175   0.145
 8758TIP3   OH276741   7.631   4.683  19.342
 8758TIP3    H176742   7.663   4.593  19.347
 8758TIP3    H276743   7.574   4.684  19.265
 8759TIP3   OH276744   7.759   4.439  19.428
 8759TIP3    H176745   7.829   4.493  19.466
 8759TIP3    H276746   7.793   4.413  19.342
 8760TIP3   OH276747   8.102   5.013   0.362
 8760TIP3    H176748   8.074   5.101   0.338
 8760TIP3    H276749   8.024   4.971   0.397
 8761TIP3   OH276750   7.672   5.012  18.888
 8761TIP3    H176751   7.681   5.050  18.801
 8761TIP3    H276752   7.688   5.084  18.948
 8762TIP3   OH276753   8.128   4.903  19.282
 8762TIP3    H176754   8.098   4.895  19.192
 8762TIP3    H276755   0.032   4.822  19.299
 8763TIP3   OH276756   7.871   4.877   0.463
 8763TIP3    H176757   7.909   4.867   0.550
 8763TIP3    H276758   7.789   4.827   0.466
 8764TIP3   OH276759   8.051   5.282   0.714
 8764TIP3    H176760   8.068   5.302   0.622
 8764TIP3    H276761   7.956   5.267   0.717
 8765TIP3   OH276762   7.650   5.233   0.074
 8765TIP3    H176763   7.733   5.186   0.062
 8765TIP3    H276764   7.667   5.293   0.146
 8766TIP3   OH276765   7.913   5.529  19.147
 8766TIP3    H176766   7.931   5.490  19.232
 8766TIP3    H276767   7.868   5.460  19.098
 8767TIP3   OH276768   7.811   5.157   0.449
 8767TIP3    H176769   7.801   5.171   0.543
 8767TIP3    H276770   7.816   5.061   0.440
 8768TIP3   OH276771   8.043   4.499   0.278
 8768TIP3    H176772   8.032   4.421   0.332
 8768TIP3    H276773   8.076   4.467   0.195
 8769TIP3   OH276774   7.578   4.136  19.237
 8769TIP3    H176775   7.634   4.145  19.313
 8769TIP3    H276776   7.620   4.191  19.170
 8770TIP3   OH276777   7.645   4.250  18.667
 8770TIP3    H176778   7.576   4.311  18.638
 8770TIP3    H276779   7.621   4.228  18.757
 8771TIP3   OH276780   7.937   4.854   0.733
 8771TIP3    H176781   8.000   4.876   0.802
 8771TIP3    H276782   7.853   4.885   0.767
 8772TIP3   OH276783   8.061   4.886   0.082
 8772TIP3    H176784   8.072   4.885  19.459
 8772TIP3    H276785   7.992   4.822   0.098
 8773TIP3   OH276786   7.647   4.725   0.496
 8773TIP3    H176787   7.619   4.683   0.578
 8773TIP3    H276788   7.579   4.702   0.433
 8774TIP3   OH276789   7.783   5.380   0.292
 8774TIP3    H176790   7.782   5.300   0.344
 8774TIP3    H276791   7.748   5.447   0.351
 8775TIP3   OH276792   7.992   5.134  18.651
 8775TIP3    H176793   8.032   5.157  18.735
 8775TIP3    H276794   8.065   5.137  18.589
 8776TIP3   OH276795   7.765   5.329  19.006
 8776TIP3    H176796   7.691   5.340  19.066
 8776TIP3    H276797   7.743   5.384  18.931
 8777TIP3   OH276798   7.581   5.502   0.835
 8777TIP3    H176799   7.666   5.522   0.874
 8777TIP3    H276800   7.601   5.476   0.745
 8778TIP3   OH276801   7.660   4.906   0.792
 8778TIP3    H176802   7.643   4.812   0.782
 8778TIP3    H276803   7.601   4.948   0.729
 8779TIP3   OH276804   7.643   4.614   0.759
 8779TIP3    H176805   7.721   4.569   0.724
 8779TIP3    H276806   7.659   4.619   0.853
 8780TIP3   OH276807   7.714   5.123  18.635
 8780TIP3    H176808   7.809   5.134  18.639
 8780TIP3    H276809   7.697   5.091  18.546
 8781TIP3   OH276810   7.539   5.619  19.144
 8781TIP3    H176811   7.445   5.633  19.155
 8781TIP3    H276812   7.558   5.541  19.195
 8782TIP3   OH276813   7.618   5.409  19.309
 8782TIP3    H176814   7.602   5.328  19.356
 8782TIP3    H276815   7.667   5.464  19.370
 8783TIP3   OH276816   7.622   4.786   0.122
 8783TIP3    H176817   7.617   4.763   0.029
 8783TIP3    H276818   7.712   4.764   0.147
 8784TIP3   OH276819   7.751   4.138  19.447
 8784TIP3    H176820   7.820   4.072  19.458
 8784TIP3    H276821   7.794   4.221  19.465
 8785TIP3   OH276822   7.540   4.375   0.124
 8785TIP3    H176823   7.610   4.377   0.058
 8785TIP3    H276824   7.521   4.467   0.142
 8786TIP3   OH276825   7.581   4.145  18.914
 8786TIP3    H176826   7.493   4.126  18.944
 8786TIP3    H276827   7.627   4.061  18.918
 8787TIP3   OH276828   7.773   5.235   0.714
 8787TIP3    H176829   7.689   5.262   0.677
 8787TIP3    H276830   7.752   5.203   0.801
 8788TIP3   OH276831   8.051   5.270   0.272
 8788TIP3    H176832   7.970   5.320   0.279
 8788TIP3    H276833   8.118   5.327   0.311
 8789TIP3   OH276834   8.058   5.606   0.100
 8789TIP3    H176835   7.972   5.628   0.137
 8789TIP3    H276836   8.100   5.690   0.085
 8790TIP3   OH276837   7.766   5.528   0.050
 8790TIP3    H176838   7.773   5.483   0.135
 8790TIP3    H276839   7.838   5.491  19.471
 8791TIP3   OH276840   7.980   5.419  19.390
 8791TIP3    H176841   8.026   5.335  19.387
 8791TIP3    H276842   8.033   5.473  19.448
 8792TIP3   OH276843   7.705   5.501  18.795
 8792TIP3    H176844   7.627   5.472  18.748
 8792TIP3    H276845   7.693   5.596  18.805
 8793TIP3   OH276846   7.946   5.595  18.660
 8793TIP3    H176847   7.869   5.563  18.708
 8793TIP3    H276848   8.005   5.520  18.657
 8794TIP3   OH276849   1.195   6.699  19.124
 8794TIP3    H176850   1.183   6.793  19.111
 8794TIP3    H276851   1.134   6.659  19.062
 8795TIP3   OH276852   1.095   6.610   0.007
 8795TIP3    H176853   1.049   6.528   0.026
 8795TIP3    H276854   1.116   6.604  19.386
 8796TIP3   OH276855   1.450   6.896  19.369
 8796TIP3    H176856   1.427   6.817  19.418
 8796TIP3    H276857   1.475   6.960  19.435
 8797TIP3   OH276858   0.086   6.434  18.973
 8797TIP3    H176859   0.021   6.503  18.963
 8797TIP3    H276860   0.122   6.422  18.886
 8798TIP3   OH276861   1.187   7.364  19.370
 8798TIP3    H176862   1.232   7.316  19.301
 8798TIP3    H276863   1.183   7.303  19.443
 8799TIP3   OH276864   1.008   6.888   0.003
 8799TIP3    H176865   1.020   6.793   0.003
 8799TIP3    H276866   1.087   6.922   0.045
 8800TIP3   OH276867   1.797   6.010   0.183
 8800TIP3    H176868   1.838   6.057   0.255
 8800TIP3    H276869   1.866   6.000   0.118
 8801TIP3   OH276870   1.262   6.272   0.113
 8801TIP3    H176871   1.267   6.177   0.123
 8801TIP3    H276872   1.234   6.286   0.023
 8802TIP3   OH276873   0.608   6.066  19.312
 8802TIP3    H176874   0.600   6.141  19.255
 8802TIP3    H276875   0.584   5.991  19.257
 8803TIP3   OH276876   1.376   6.081  19.155
 8803TIP3    H176877   1.429   6.054  19.229
 8803TIP3    H276878   1.435   6.133  19.100
 8804TIP3   OH276879   1.880   6.155   0.414
 8804TIP3    H176880   1.809   6.215   0.389
 8804TIP3    H276881   1.895   6.172   0.507
 8805TIP3   OH276882   0.427   5.994   0.288
 8805TIP3    H176883   0.426   6.052   0.212
 8805TIP3    H276884   0.353   6.024   0.341
 8806TIP3   OH276885   1.183   6.964  19.034
 8806TIP3    H176886   1.160   6.951  18.942
 8806TIP3    H276887   1.135   7.044  19.059
 8807TIP3   OH276888   1.525   6.010  19.379
 8807TIP3    H176889   1.484   5.958  19.448
 8807TIP3    H276890   1.555   6.089  19.424
 8808TIP3   OH276891   0.450   6.146   0.057
 8808TIP3    H176892   0.492   6.228   0.086
 8808TIP3    H276893   0.508   6.113  19.460
 8809TIP3   OH276894   1.508   7.091   0.085
 8809TIP3    H176895   1.426   7.107   0.132
 8809TIP3    H276896   1.554   7.174   0.088
 8810TIP3   OH276897   0.784   5.705   0.013
 8810TIP3    H176898   0.761   5.678  19.397
 8810TIP3    H276899   0.703   5.744   0.048
 8811TIP3   OH276900   1.352   7.253  19.179
 8811TIP3    H176901   1.391   7.168  19.161
 8811TIP3    H276902   1.426   7.312  19.188
 8812TIP3   OH276903   1.440   6.996  19.118
 8812TIP3    H176904   1.349   6.976  19.096
 8812TIP3    H276905   1.452   6.957  19.204
 8813TIP3   OH276906   1.067   6.579  18.906
 8813TIP3    H176907   0.990   6.579  18.850
 8813TIP3    H276908   1.141   6.569  18.846
 8814TIP3   OH276909   1.011   6.472  18.629
 8814TIP3    H176910   1.106   6.475  18.643
 8814TIP3    H276911   0.999   6.403  18.563
 8815TIP3   OH276912   1.757   6.558   0.249
 8815TIP3    H176913   1.688   6.623   0.261
 8815TIP3    H276914   1.834   6.608   0.224
 8816TIP3   OH276915   1.423   6.645  18.970
 8816TIP3    H176916   1.351   6.662  19.030
 8816TIP3    H276917   1.481   6.586  19.017
 8817TIP3   OH276918   1.380   6.426   0.490
 8817TIP3    H176919   1.375   6.502   0.547
 8817TIP3    H276920   1.318   6.445   0.419
 8818TIP3   OH276921   1.285   7.150   0.231
 8818TIP3    H176922   1.278   7.245   0.247
 8818TIP3    H276923   1.272   7.110   0.317
 8819TIP3   OH276924   1.290   6.541  18.739
 8819TIP3    H176925   1.347   6.592  18.797
 8819TIP3    H276926   1.323   6.559  18.651
 8820TIP3   OH276927   0.044   6.845   0.527
 8820TIP3    H176928   0.011   6.883   0.446
 8820TIP3    H276929   0.066   6.755   0.504
 8821TIP3   OH276930   0.958   7.162   0.484
 8821TIP3    H176931   0.938   7.226   0.552
 8821TIP3    H276932   0.913   7.082   0.511
 8822TIP3   OH276933   1.030   7.452  18.946
 8822TIP3    H176934   1.005   7.434  18.855
 8822TIP3    H276935   0.991   7.537  18.965
 8823TIP3   OH276936   0.373   7.358  19.164
 8823TIP3    H176937   0.415   7.283  19.205
 8823TIP3    H276938   0.292   7.323  19.127
 8824TIP3   OH276939   1.284   7.417  18.670
 8824TIP3    H176940   1.347   7.361  18.626
 8824TIP3    H276941   1.303   7.407  18.763
 8825TIP3   OH276942   1.296   7.401  18.950
 8825TIP3    H176943   1.202   7.416  18.951
 8825TIP3    H276944   1.313   7.342  19.023
 8826TIP3   OH276945   1.548   6.312   0.687
 8826TIP3    H176946   1.490   6.342   0.617
 8826TIP3    H276947   1.564   6.220   0.666
 8827TIP3   OH276948   0.541   5.807   0.101
 8827TIP3    H176949   0.463   5.794   0.048
 8827TIP3    H276950   0.513   5.868   0.170
 8828TIP3   OH276951   1.032   5.706   0.429
 8828TIP3    H176952   1.074   5.704   0.515
 8828TIP3    H276953   0.941   5.731   0.448
 8829TIP3   OH276954   1.331   6.135   0.546
 8829TIP3    H176955   1.251   6.106   0.589
 8829TIP3    H276956   1.312   6.223   0.514
 8830TIP3   OH276957   0.562   6.378   0.159
 8830TIP3    H176958   0.501   6.404   0.228
 8830TIP3    H276959   0.561   6.451   0.097
 8831TIP3   OH276960   1.131   6.357  19.063
 8831TIP3    H176961   1.096   6.435  19.020
 8831TIP3    H276962   1.200   6.326  19.005
 8832TIP3   OH276963   1.009   6.407   0.759
 8832TIP3    H176964   0.959   6.328   0.779
 8832TIP3    H276965   1.101   6.382   0.772
 8833TIP3   OH276966   1.217   6.274  19.308
 8833TIP3    H176967   1.173   6.313  19.233
 8833TIP3    H276968   1.254   6.193  19.275
 8834TIP3   OH276969   0.378   6.391   0.376
 8834TIP3    H176970   0.407   6.343   0.453
 8834TIP3    H276971   0.284   6.370   0.368
 8835TIP3   OH276972   0.052   6.014  19.199
 8835TIP3    H176973   0.026   6.058  19.280
 8835TIP3    H276974   0.106   5.940  19.228
 8836TIP3   OH276975   0.154   6.152  18.744
 8836TIP3    H176976   0.205   6.132  18.665
 8836TIP3    H276977   0.101   6.228  18.720
 8837TIP3   OH276978   0.871   5.962  19.282
 8837TIP3    H176979   0.792   6.015  19.291
 8837TIP3    H276980   0.887   5.926  19.369
 8838TIP3   OH276981   1.587   7.537   0.724
 8838TIP3    H176982   1.587   7.574   0.636
 8838TIP3    H276983   1.678   7.545   0.754
 8839TIP3   OH276984   0.963   6.367   0.047
 8839TIP3    H176985   0.997   6.304  19.456
 8839TIP3    H276986   0.916   6.314   0.111
 8840TIP3   OH276987   0.784   6.241   0.256
 8840TIP3    H176988   0.710   6.287   0.216
 8840TIP3    H276989   0.811   6.298   0.328
 8841TIP3   OH276990   1.546   6.769   0.239
 8841TIP3    H176991   1.579   6.844   0.190
 8841TIP3    H276992   1.487   6.725   0.177
 8842TIP3   OH276993   1.242   6.098  18.733
 8842TIP3    H176994   1.254   6.132  18.644
 8842TIP3    H276995   1.271   6.169  18.790
 8843TIP3   OH276996   1.341   6.302  18.888
 8843TIP3    H176997   1.434   6.284  18.901
 8843TIP3    H276998   1.339   6.379  18.831
 8844TIP3   OH276999   1.086   6.966  18.777
 8844TIP3    H177000   1.013   7.013  18.817
 8844TIP3    H277001   1.046   6.910  18.711
 8845TIP3   OH277002   0.084   6.579   0.495
 8845TIP3    H177003   0.134   6.534   0.563
 8845TIP3    H277004   0.058   6.509   0.435
 8846TIP3   OH277005   1.236   7.095   0.496
 8846TIP3    H177006   1.145   7.119   0.480
 8846TIP3    H277007   1.247   7.104   0.591
 8847TIP3   OH277008   1.764   6.309  18.744
 8847TIP3    H177009   1.765   6.291  18.650
 8847TIP3    H277010   1.791   6.400  18.751
 8848TIP3   OH277011   1.827   6.877   0.608
 8848TIP3    H177012   1.803   6.964   0.578
 8848TIP3    H277013   1.875   6.839   0.535
 8849TIP3   OH277014   1.700   7.145  18.846
 8849TIP3    H177015   1.635   7.076  18.835
 8849TIP3    H277016   1.784   7.100  18.842
 8850TIP3   OH277017   1.380   6.661   0.041
 8850TIP3    H177018   1.287   6.644   0.052
 8850TIP3    H277019   1.414   6.586  19.466
 8851TIP3   OH277020   0.836   7.278   0.263
 8851TIP3    H177021   0.897   7.345   0.235
 8851TIP3    H277022   0.883   7.229   0.330
 8852TIP3   OH277023   0.637   7.366  19.078
 8852TIP3    H177024   0.544   7.384  19.094
 8852TIP3    H277025   0.682   7.445  19.107
 8853TIP3   OH277026   1.377   7.010  18.663
 8853TIP3    H177027   1.426   6.964  18.731
 8853TIP3    H277028   1.285   7.001  18.689
 8854TIP3   OH277029   1.853   7.440  18.585
 8854TIP3    H177030   1.860   7.503  18.514
 8854TIP3    H277031   1.778   7.470  18.637
 8855TIP3   OH277032   0.159   6.041   0.434
 8855TIP3    H177033   0.105   6.067   0.359
 8855TIP3    H277034   0.159   5.946   0.432
 8856TIP3   OH277035   1.524   6.891  18.881
 8856TIP3    H177036   1.494   6.802  18.898
 8856TIP3    H277037   1.502   6.939  18.961
 8857TIP3   OH277038   1.196   5.937  18.966
 8857TIP3    H177039   1.206   5.982  18.882
 8857TIP3    H277040   1.247   5.990  19.027
 8858TIP3   OH277041   0.942   5.838  19.036
 8858TIP3    H177042   0.919   5.882  19.118
 8858TIP3    H277043   1.027   5.875  19.012
 8859TIP3   OH277044   0.710   7.271  18.831
 8859TIP3    H177045   0.714   7.346  18.772
 8859TIP3    H277046   0.683   7.308  18.915
 8860TIP3   OH277047   1.595   6.063   0.545
 8860TIP3    H177048   1.499   6.068   0.541
 8860TIP3    H277049   1.624   6.089   0.458
 8861TIP3   OH277050   1.447   6.422  19.372
 8861TIP3    H177051   1.363   6.379  19.357
 8861TIP3    H277052   1.494   6.364  19.431
 8862TIP3   OH277053   1.623   7.360   0.119
 8862TIP3    H177054   1.575   7.434   0.084
 8862TIP3    H277055   1.714   7.374   0.091
 8863TIP3   OH277056   0.293   5.774  19.443
 8863TIP3    H177057   0.269   5.771  19.350
 8863TIP3    H277058   0.294   5.682  19.471
 8864TIP3   OH277059   0.135   7.240  19.091
 8864TIP3    H177060   0.046   7.212  19.113
 8864TIP3    H277061   0.133   7.257  18.997
 8865TIP3   OH277062   0.119   7.363   0.728
 8865TIP3    H177063   0.194   7.382   0.672
 8865TIP3    H277064   0.063   7.307   0.675
 8866TIP3   OH277065   0.566   7.303   0.932
 8866TIP3    H177066   0.628   7.315   1.004
 8866TIP3    H277067   0.606   7.237   0.876
 8867TIP3   OH277068   1.226   7.123   0.770
 8867TIP3    H177069   1.200   7.042   0.812
 8867TIP3    H277070   1.298   7.156   0.823
 8868TIP3   OH277071   1.450   7.246  18.534
 8868TIP3    H177072   1.424   7.162  18.574
 8868TIP3    H277073   1.543   7.236  18.516
 8869TIP3   OH277074   0.104   6.798   0.793
 8869TIP3    H177075   0.142   6.711   0.785
 8869TIP3    H277076   0.093   6.828   0.702
 8870TIP3   OH277077   1.388   6.841   0.485
 8870TIP3    H177078   1.438   6.829   0.405
 8870TIP3    H277079   1.344   6.925   0.473
 8871TIP3   OH277080   0.199   6.533   0.789
 8871TIP3    H177081   0.281   6.489   0.768
 8871TIP3    H277082   0.142   6.464   0.824
 8872TIP3   OH277083   1.123   6.671   0.792
 8872TIP3    H177084   1.209   6.656   0.750
 8872TIP3    H277085   1.076   6.588   0.780
 8873TIP3   OH277086   0.691   5.996   0.380
 8873TIP3    H177087   0.737   6.068   0.337
 8873TIP3    H277088   0.602   6.001   0.346
 8874TIP3   OH277089   1.271   6.326   0.812
 8874TIP3    H177090   1.279   6.234   0.837
 8874TIP3    H277091   1.360   6.353   0.791
 8875TIP3   OH277092   1.402   6.648   0.678
 8875TIP3    H177093   1.386   6.719   0.616
 8875TIP3    H277094   1.498   6.644   0.685
 8876TIP3   OH277095   0.765   5.748   0.472
 8876TIP3    H177096   0.739   5.836   0.443
 8876TIP3    H277097   0.730   5.690   0.405
 8877TIP3   OH277098   0.878   6.161   0.840
 8877TIP3    H177099   0.919   6.130   0.920
 8877TIP3    H277100   0.794   6.116   0.836
 8878TIP3   OH277101   1.117   6.061   0.711
 8878TIP3    H177102   1.032   6.098   0.736
 8878TIP3    H277103   1.153   6.026   0.792
 8879TIP3   OH277104   1.252   5.966   0.939
 8879TIP3    H177105   1.311   5.916   0.883
 8879TIP3    H277106   1.294   5.966   1.024
 8880TIP3   OH277107   0.795   5.790   0.768
 8880TIP3    H177108   0.824   5.824   0.684
 8880TIP3    H277109   0.779   5.868   0.822
 8881TIP3   OH277110   0.750   7.492  18.661
 8881TIP3    H177111   0.842   7.470  18.671
 8881TIP3    H277112   0.746   7.536  18.576
 8882TIP3   OH277113   0.102   7.032  18.556
 8882TIP3    H177114   0.181   7.085  18.547
 8882TIP3    H277115   0.100   6.978  18.477
 8883TIP3   OH277116   0.030   7.563  19.171
 8883TIP3    H177117   8.118   7.517  19.108
 8883TIP3    H277118   0.062   7.494  19.229
 8884TIP3   OH277119   0.097   7.355  19.343
 8884TIP3    H177120   0.113   7.302  19.264
 8884TIP3    H277121   0.035   7.303  19.394
 8885TIP3   OH277122   1.878   7.440   0.052
 8885TIP3    H177123   1.902   7.533   0.060
 8885TIP3    H277124   1.958   7.398   0.019
 8886TIP3   OH277125   1.694   6.973   0.966
 8886TIP3    H177126   1.621   6.985   1.027
 8886TIP3    H277127   1.766   7.022   1.005
 8887TIP3   OH277128   1.840   6.525  19.116
 8887TIP3    H177129   1.746   6.511  19.110
 8887TIP3    H277130   1.854   6.567  19.201
 8888TIP3   OH277131   1.841   6.573  18.719
 8888TIP3    H177132   1.818   6.601  18.630
 8888TIP3    H277133   1.829   6.651  18.773
 8889TIP3   OH277134   1.568   6.460  19.121
 8889TIP3    H177135   1.576   6.370  19.090
 8889TIP3    H277136   1.529   6.452  19.208
 8890TIP3   OH277137   0.073   6.628   0.033
 8890TIP3    H177138   0.040   6.624  19.416
 8890TIP3    H277139   0.079   6.536   0.061
 8891TIP3   OH277140   1.681   6.656   0.694
 8891TIP3    H177141   1.733   6.582   0.662
 8891TIP3    H277142   1.726   6.734   0.661
 8892TIP3   OH277143   1.801   6.414   0.625
 8892TIP3    H177144   1.711   6.384   0.636
 8892TIP3    H277145   1.855   6.341   0.655
 8893TIP3   OH277146   1.605   6.215  18.959
 8893TIP3    H177147   1.641   6.127  18.968
 8893TIP3    H277148   1.657   6.256  18.890
 8894TIP3   OH277149   1.590   6.236   0.050
 8894TIP3    H177150   1.680   6.269   0.045
 8894TIP3    H277151   1.576   6.217   0.142
 8895TIP3   OH277152   1.646   6.317   0.356
 8895TIP3    H177153   1.559   6.347   0.383
 8895TIP3    H277154   1.688   6.395   0.319
 8896TIP3   OH277155   0.025   6.168   0.658
 8896TIP3    H177156   0.075   6.136   0.583
 8896TIP3    H277157   0.012   6.090   0.712
 8897TIP3   OH277158   1.843   5.767   0.868
 8897TIP3    H177159   1.914   5.704   0.853
 8897TIP3    H277160   1.843   5.822   0.789
 8898TIP3   OH277161   0.201   6.030   0.022
 8898TIP3    H177162   0.226   5.939   0.009
 8898TIP3    H277163   0.284   6.077   0.026
 8899TIP3   OH277164   0.082   6.332   0.066
 8899TIP3    H177165   0.014   6.280   0.022
 8899TIP3    H277166   0.163   6.284   0.049
 8900TIP3   OH277167   1.810   5.920   0.641
 8900TIP3    H177168   1.730   5.967   0.618
 8900TIP3    H277169   1.833   5.871   0.562
 8901TIP3   OH277170   0.132   5.943  18.941
 8901TIP3    H177171   0.091   5.980  19.019
 8901TIP3    H277172   0.147   6.019  18.885
 8902TIP3   OH277173   1.561   7.428  19.178
 8902TIP3    H177174   1.601   7.422  19.091
 8902TIP3    H277175   1.636   7.432  19.238
 8903TIP3   OH277176   0.564   7.272   0.324
 8903TIP3    H177177   0.558   7.360   0.360
 8903TIP3    H277178   0.658   7.256   0.316
 8904TIP3   OH277179   0.931   7.364   0.676
 8904TIP3    H177180   0.956   7.325   0.759
 8904TIP3    H277181   1.012   7.406   0.644
 8905TIP3   OH277182   1.169   7.474   0.592
 8905TIP3    H177183   1.221   7.430   0.525
 8905TIP3    H277184   1.229   7.483   0.667
 8906TIP3   OH277185   0.313   7.522   0.474
 8906TIP3    H177186   0.249   7.532   0.403
 8906TIP3    H277187   0.276   7.573   0.546
 8907TIP3   OH277188   0.518   7.545   0.291
 8907TIP3    H177189   0.451   7.539   0.360
 8907TIP3    H277190   0.513   7.636   0.260
 8908TIP3   OH277191   1.003   7.479   0.179
 8908TIP3    H177192   0.968   7.522   0.101
 8908TIP3    H277193   1.014   7.549   0.243
 8909TIP3   OH277194   1.245   7.410   0.304
 8909TIP3    H177195   1.161   7.421   0.261
 8909TIP3    H277196   1.291   7.492   0.287
 8910TIP3   OH277197   0.677   7.303   0.034
 8910TIP3    H177198   0.688   7.226  19.451
 8910TIP3    H277199   0.729   7.284   0.112
 8911TIP3   OH277200   0.214   5.782  19.171
 8911TIP3    H177201   0.209   5.823  19.085
 8911TIP3    H277202   0.277   5.710  19.158
 8912TIP3   OH277203   0.074   5.753  18.743
 8912TIP3    H177204   0.117   5.671  18.766
 8912TIP3    H277205   0.096   5.813  18.814
 8913TIP3   OH277206   0.088   7.309  18.834
 8913TIP3    H177207   0.057   7.274  18.751
 8913TIP3    H277208   0.122   7.396  18.812
 8914TIP3   OH277209   1.010   7.410  18.671
 8914TIP3    H177210   1.104   7.423  18.660
 8914TIP3    H277211   0.990   7.332  18.619
 8915TIP3   OH277212   1.715   7.400  18.947
 8915TIP3    H177213   1.710   7.310  18.914
 8915TIP3    H277214   1.700   7.454  18.869
 8916TIP3   OH277215   0.526   5.723   0.770
 8916TIP3    H177216   0.621   5.733   0.761
 8916TIP3    H277217   0.495   5.704   0.681
 8917TIP3   OH277218   0.418   7.340  18.519
 8917TIP3    H177219   0.375   7.415  18.478
 8917TIP3    H277220   0.449   7.373  18.603
 8918TIP3   OH277221   1.546   7.264   0.714
 8918TIP3    H177222   1.537   7.242   0.621
 8918TIP3    H277223   1.560   7.358   0.716
 8919TIP3   OH277224   3.074   6.698  19.147
 8919TIP3    H177225   3.066   6.791  19.128
 8919TIP3    H277226   3.018   6.655  19.083
 8920TIP3   OH277227   2.988   6.657   0.082
 8920TIP3    H177228   3.009   6.580   0.134
 8920TIP3    H277229   3.031   6.642  19.471
 8921TIP3   OH277230   2.071   6.413  19.012
 8921TIP3    H177231   1.989   6.454  19.042
 8921TIP3    H277232   2.042   6.342  18.955
 8922TIP3   OH277233   2.025   6.625  19.323
 8922TIP3    H177234   2.036   6.533  19.349
 8922TIP3    H277235   2.077   6.633  19.243
 8923TIP3   OH277236   2.761   6.840   0.040
 8923TIP3    H177237   2.831   6.775   0.033
 8923TIP3    H277238   2.775   6.882   0.124
 8924TIP3   OH277239   3.678   6.012   0.181
 8924TIP3    H177240   3.704   6.065   0.256
 8924TIP3    H277241   3.647   6.075   0.116
 8925TIP3   OH277242   3.190   6.101  19.203
 8925TIP3    H177243   3.262   6.117  19.264
 8925TIP3    H277244   3.162   6.188  19.175
 8926TIP3   OH277245   2.063   6.358  19.381
 8926TIP3    H177246   2.132   6.310  19.426
 8926TIP3    H277247   2.027   6.295  19.318
 8927TIP3   OH277248   2.547   6.492  19.289
 8927TIP3    H177249   2.629   6.468  19.332
 8927TIP3    H277250   2.531   6.420  19.227
 8928TIP3   OH277251   3.711   6.179   0.389
 8928TIP3    H177252   3.637   6.241   0.385
 8928TIP3    H277253   3.742   6.185   0.479
 8929TIP3   OH277254   2.392   5.996   0.276
 8929TIP3    H177255   2.356   6.044   0.202
 8929TIP3    H277256   2.328   6.008   0.346
 8930TIP3   OH277257   3.063   6.965  19.054
 8930TIP3    H177258   3.037   6.946  18.964
 8930TIP3    H277259   3.073   7.061  19.056
 8931TIP3   OH277260   2.571   6.728   0.301
 8931TIP3    H177261   2.530   6.720   0.215
 8931TIP3    H277262   2.632   6.801   0.292
 8932TIP3   OH277263   3.336   6.030   0.014
 8932TIP3    H177264   3.366   5.948  19.447
 8932TIP3    H277265   3.413   6.086   0.015
 8933TIP3   OH277266   2.252   6.180   0.014
 8933TIP3    H177267   2.311   6.238   0.063
 8933TIP3    H277268   2.298   6.162  19.406
 8934TIP3   OH277269   3.424   5.940   0.271
 8934TIP3    H177270   3.368   5.969   0.199
 8934TIP3    H277271   3.513   5.953   0.239
 8935TIP3   OH277272   2.932   6.567  18.938
 8935TIP3    H177273   2.869   6.634  18.912
 8935TIP3    H277274   2.952   6.521  18.857
 8936TIP3   OH277275   3.013   6.445  18.700
 8936TIP3    H177276   3.099   6.483  18.716
 8936TIP3    H277277   3.029   6.375  18.636
 8937TIP3   OH277278   3.599   6.588   0.236
 8937TIP3    H177279   3.535   6.654   0.208
 8937TIP3    H277280   3.683   6.619   0.203
 8938TIP3   OH277281   3.316   6.630  19.032
 8938TIP3    H177282   3.239   6.652  19.084
 8938TIP3    H277283   3.364   6.567  19.086
 8939TIP3   OH277284   3.252   6.429   0.442
 8939TIP3    H177285   3.269   6.507   0.495
 8939TIP3    H277286   3.186   6.457   0.379
 8940TIP3   OH277287   2.445   6.708  19.157
 8940TIP3    H177288   2.399   6.654  19.092
 8940TIP3    H277289   2.484   6.645  19.217
 8941TIP3   OH277290   2.599   7.066  19.453
 8941TIP3    H177291   2.659   6.992  19.458
 8941TIP3    H277292   2.630   7.126   0.048
 8942TIP3   OH277293   3.108   7.108   0.090
 8942TIP3    H177294   3.052   7.163   0.145
 8942TIP3    H277295   3.113   7.025   0.137
 8943TIP3   OH277296   2.560   6.983   0.552
 8943TIP3    H177297   2.482   7.016   0.507
 8943TIP3    H277298   2.626   6.976   0.482
 8944TIP3   OH277299   3.254   6.560  18.773
 8944TIP3    H177300   3.252   6.585  18.865
 8944TIP3    H277301   3.316   6.621  18.732
 8945TIP3   OH277302   2.299   6.556   0.463
 8945TIP3    H177303   2.322   6.646   0.443
 8945TIP3    H277304   2.205   6.559   0.483
 8946TIP3   OH277305   3.509   5.662  18.753
 8946TIP3    H177306   3.420   5.631  18.733
 8946TIP3    H277307   3.502   5.757  18.755
 8947TIP3   OH277308   2.314   6.535  18.979
 8947TIP3    H177309   2.295   6.606  18.918
 8947TIP3    H277310   2.230   6.490  18.991
 8948TIP3   OH277311   1.953   6.771   0.391
 8948TIP3    H177312   1.965   6.752   0.298
 8948TIP3    H277313   1.986   6.694   0.436
 8949TIP3   OH277314   2.887   7.191   0.514
 8949TIP3    H177315   2.796   7.220   0.521
 8949TIP3    H277316   2.883   7.118   0.453
 8950TIP3   OH277317   2.920   7.479  18.923
 8950TIP3    H177318   2.903   7.471  18.829
 8950TIP3    H277319   2.886   7.566  18.946
 8951TIP3   OH277320   3.407   6.309   0.656
 8951TIP3    H177321   3.344   6.346   0.594
 8951TIP3    H277322   3.411   6.216   0.634
 8952TIP3   OH277323   3.166   6.162   0.459
 8952TIP3    H177324   3.100   6.146   0.391
 8952TIP3    H277325   3.189   6.254   0.447
 8953TIP3   OH277326   2.433   6.342   0.137
 8953TIP3    H177327   2.394   6.326   0.223
 8953TIP3    H277328   2.452   6.436   0.137
 8954TIP3   OH277329   2.472   6.315  19.084
 8954TIP3    H177330   2.394   6.264  19.106
 8954TIP3    H277331   2.438   6.391  19.037
 8955TIP3   OH277332   3.057   6.329  19.092
 8955TIP3    H177333   3.020   6.407  19.051
 8955TIP3    H277334   3.040   6.258  19.030
 8956TIP3   OH277335   2.921   6.424   0.745
 8956TIP3    H177336   2.889   6.350   0.694
 8956TIP3    H277337   2.990   6.387   0.800
 8957TIP3   OH277338   2.291   6.289   0.362
 8957TIP3    H177339   2.275   6.367   0.415
 8957TIP3    H277340   2.241   6.220   0.405
 8958TIP3   OH277341   1.982   6.123  19.248
 8958TIP3    H177342   1.983   6.074  19.330
 8958TIP3    H277343   1.902   6.093  19.204
 8959TIP3   OH277344   1.990   6.200  18.862
 8959TIP3    H177345   2.017   6.120  18.816
 8959TIP3    H277346   1.909   6.227  18.819
 8960TIP3   OH277347   3.036   6.428   0.250
 8960TIP3    H177348   3.073   6.360   0.193
 8960TIP3    H277349   2.957   6.388   0.287
 8961TIP3   OH277350   2.221   6.212  19.138
 8961TIP3    H177351   2.180   6.285  19.092
 8961TIP3    H277352   2.147   6.160  19.171
 8962TIP3   OH277353   2.745   6.768  18.855
 8962TIP3    H177354   2.669   6.747  18.801
 8962TIP3    H277355   2.708   6.816  18.930
 8963TIP3   OH277356   3.177   6.078  18.700
 8963TIP3    H177357   3.138   6.127  18.627
 8963TIP3    H277358   3.226   6.144  18.749
 8964TIP3   OH277359   2.924   6.839   0.578
 8964TIP3    H177360   2.854   6.814   0.637
 8964TIP3    H277361   2.880   6.875   0.501
 8965TIP3   OH277362   3.304   6.287  18.811
 8965TIP3    H177363   3.366   6.283  18.883
 8965TIP3    H277364   3.288   6.381  18.798
 8966TIP3   OH277365   2.969   6.923  18.800
 8966TIP3    H177366   2.962   6.957  18.711
 8966TIP3    H277367   2.893   6.865  18.810
 8967TIP3   OH277368   2.027   6.550   0.532
 8967TIP3    H177369   2.055   6.563   0.623
 8967TIP3    H277370   1.947   6.499   0.539
 8968TIP3   OH277371   2.710   6.608   0.698
 8968TIP3    H177372   2.652   6.555   0.643
 8968TIP3    H277373   2.784   6.551   0.716
 8969TIP3   OH277374   3.121   7.132   0.674
 8969TIP3    H177375   3.057   7.155   0.607
 8969TIP3    H277376   3.093   7.046   0.705
 8970TIP3   OH277377   3.677   6.277  18.746
 8970TIP3    H177378   3.661   6.260  18.654
 8970TIP3    H277379   3.676   6.373  18.754
 8971TIP3   OH277380   3.738   6.922   0.560
 8971TIP3    H177381   3.723   7.016   0.554
 8971TIP3    H277382   3.790   6.901   0.483
 8972TIP3   OH277383   2.109   6.604  18.627
 8972TIP3    H177384   2.163   6.641  18.697
 8972TIP3    H277385   2.034   6.566  18.671
 8973TIP3   OH277386   2.630   6.896  19.073
 8973TIP3    H177387   2.681   6.916  19.151
 8973TIP3    H277388   2.561   6.837  19.104
 8974TIP3   OH277389   2.662   7.234   0.211
 8974TIP3    H177390   2.721   7.308   0.226
 8974TIP3    H277391   2.705   7.160   0.254
 8975TIP3   OH277392   3.075   6.871   0.240
 8975TIP3    H177393   2.990   6.903   0.272
 8975TIP3    H277394   3.052   6.799   0.182
 8976TIP3   OH277395   2.163   6.049   0.449
 8976TIP3    H177396   2.071   6.067   0.428
 8976TIP3    H277397   2.160   5.976   0.511
 8977TIP3   OH277398   3.503   6.722  18.851
 8977TIP3    H177399   3.440   6.691  18.915
 8977TIP3    H277400   3.539   6.802  18.889
 8978TIP3   OH277401   2.262   6.748  18.810
 8978TIP3    H177402   2.236   6.840  18.809
 8978TIP3    H277403   2.350   6.748  18.773
 8979TIP3   OH277404   3.056   6.091  18.949
 8979TIP3    H177405   3.093   6.069  18.864
 8979TIP3    H277406   3.120   6.059  19.012
 8980TIP3   OH277407   3.408   6.049   0.530
 8980TIP3    H177408   3.316   6.073   0.524
 8980TIP3    H277409   3.428   6.009   0.446
 8981TIP3   OH277410   3.334   6.336  19.361
 8981TIP3    H177411   3.243   6.349  19.388
 8981TIP3    H277412   3.377   6.298  19.438
 8982TIP3   OH277413   2.170   5.765  19.420
 8982TIP3    H177414   2.218   5.731  19.345
 8982TIP3    H277415   2.132   5.688  19.462
 8983TIP3   OH277416   2.558   6.829   0.785
 8983TIP3    H177417   2.557   6.886   0.708
 8983TIP3    H277418   2.610   6.754   0.758
 8984TIP3   OH277419   3.181   6.786   0.497
 8984TIP3    H177420   3.178   6.823   0.408
 8984TIP3    H277421   3.095   6.806   0.534
 8985TIP3   OH277422   2.117   6.585   0.787
 8985TIP3    H177423   2.199   6.549   0.821
 8985TIP3    H277424   2.095   6.656   0.848
 8986TIP3   OH277425   2.514   6.676  18.716
 8986TIP3    H177426   2.515   6.590  18.757
 8986TIP3    H277427   2.525   6.659  18.622
 8987TIP3   OH277428   2.556   6.442   0.524
 8987TIP3    H177429   2.472   6.480   0.497
 8987TIP3    H277430   2.615   6.459   0.451
 8988TIP3   OH277431   3.051   6.668   0.872
 8988TIP3    H177432   3.022   6.627   0.791
 8988TIP3    H277433   2.991   6.635   0.939
 8989TIP3   OH277434   2.520   6.201   0.657
 8989TIP3    H177435   2.551   6.132   0.598
 8989TIP3    H277436   2.534   6.282   0.609
 8990TIP3   OH277437   2.750   6.525   0.340
 8990TIP3    H177438   2.835   6.569   0.333
 8990TIP3    H277439   2.686   6.594   0.326
 8991TIP3   OH277440   3.092   6.312   0.932
 8991TIP3    H177441   3.124   6.223   0.943
 8991TIP3    H277442   3.136   6.362   1.001
 8992TIP3   OH277443   3.347   6.619   0.633
 8992TIP3    H177444   3.284   6.682   0.598
 8992TIP3    H277445   3.432   6.659   0.616
 8993TIP3   OH277446   2.316   6.235   0.837
 8993TIP3    H177447   2.248   6.242   0.770
 8993TIP3    H277448   2.397   6.222   0.788
 8994TIP3   OH277449   2.713   7.622  18.629
 8994TIP3    H177450   2.775   7.550  18.640
 8994TIP3    H277451   2.666   7.601  18.548
 8995TIP3   OH277452   1.861   7.467  19.170
 8995TIP3    H177453   1.821   7.440  19.088
 8995TIP3    H277454   1.951   7.434  19.166
 8996TIP3   OH277455   3.724   6.586  19.110
 8996TIP3    H177456   3.636   6.553  19.132
 8996TIP3    H277457   3.763   6.608  19.194
 8997TIP3   OH277458   3.690   6.552  18.721
 8997TIP3    H177459   3.676   6.576  18.630
 8997TIP3    H277460   3.627   6.606  18.770
 8998TIP3   OH277461   3.484   6.443  19.156
 8998TIP3    H177462   3.497   6.368  19.099
 8998TIP3    H277463   3.432   6.409  19.229
 8999TIP3   OH277464   1.990   6.689   0.127
 8999TIP3    H177465   1.978   6.654   0.038
 8999TIP3    H277466   2.052   6.760   0.117
 9000TIP3   OH277467   3.607   6.696   0.647
 9000TIP3    H177468   3.665   6.630   0.609
 9000TIP3    H277469   3.638   6.779   0.611
 9001TIP3   OH277470   3.656   6.405   0.696
 9001TIP3    H177471   3.579   6.358   0.664
 9001TIP3    H277472   3.727   6.341   0.691
 9002TIP3   OH277473   3.354   6.060  18.480
 9002TIP3    H177474   3.450   6.056  18.479
 9002TIP3    H277475   3.331   6.050  18.572
 9003TIP3   OH277476   3.511   6.222  18.984
 9003TIP3    H177477   3.486   6.130  18.993
 9003TIP3    H277478   3.571   6.223  18.909
 9004TIP3   OH277479   3.526   6.233   0.077
 9004TIP3    H177480   3.581   6.300   0.037
 9004TIP3    H277481   3.514   6.264   0.167
 9005TIP3   OH277482   3.502   6.353   0.329
 9005TIP3    H177483   3.417   6.374   0.366
 9005TIP3    H277484   3.538   6.438   0.302
 9006TIP3   OH277485   1.923   6.176   0.691
 9006TIP3    H177486   1.963   6.193   0.776
 9006TIP3    H277487   1.892   6.086   0.697
 9007TIP3   OH277488   3.444   5.945  19.001
 9007TIP3    H177489   3.499   5.904  19.068
 9007TIP3    H277490   3.370   5.885  18.990
 9008TIP3   OH277491   2.033   6.000   0.016
 9008TIP3    H177492   2.074   5.915  19.472
 9008TIP3    H277493   2.107   6.058   0.036
 9009TIP3   OH277494   1.833   6.350   0.062
 9009TIP3    H177495   1.920   6.356   0.022
 9009TIP3    H277496   1.834   6.416   0.131
 9010TIP3   OH277497   3.651   5.948   0.633
 9010TIP3    H177498   3.564   5.981   0.610
 9010TIP3    H277499   3.663   5.871   0.578
 9011TIP3   OH277500   2.929   7.402   0.694
 9011TIP3    H177501   2.932   7.341   0.768
 9011TIP3    H277502   2.937   7.346   0.617
 9012TIP3   OH277503   3.638   5.710   0.477
 9012TIP3    H177504   3.553   5.706   0.433
 9012TIP3    H277505   3.674   5.622   0.467
 9013TIP3   OH277506   2.159   7.668   0.396
 9013TIP3    H177507   2.081   7.613   0.407
 9013TIP3    H277508   2.209   7.656   0.477
 9014TIP3   OH277509   2.400   7.518   0.299
 9014TIP3    H177510   2.315   7.559   0.314
 9014TIP3    H277511   2.427   7.550   0.213
 9015TIP3   OH277512   2.829   7.461   0.230
 9015TIP3    H177513   2.801   7.514   0.156
 9015TIP3    H277514   2.875   7.522   0.288
 9016TIP3   OH277515   3.429   5.785  19.383
 9016TIP3    H177516   3.496   5.798  19.316
 9016TIP3    H277517   3.365   5.727  19.342
 9017TIP3   OH277518   3.627   5.845  19.194
 9017TIP3    H177519   3.684   5.775  19.162
 9017TIP3    H277520   3.684   5.921  19.200
 9018TIP3   OH277521   2.914   7.432  18.649
 9018TIP3    H177522   3.003   7.452  18.619
 9018TIP3    H277523   2.891   7.352  18.603
 9019TIP3   OH277524   4.876   6.597   0.028
 9019TIP3    H177525   4.875   6.565   0.118
 9019TIP3    H277526   4.817   6.537  19.454
 9020TIP3   OH277527   4.089   6.559   0.195
 9020TIP3    H177528   4.084   6.469   0.163
 9020TIP3    H277529   4.176   6.589   0.168
 9021TIP3   OH277530   4.186   6.986   0.035
 9021TIP3    H177531   4.165   6.905  19.460
 9021TIP3    H277532   4.241   6.958   0.108
 9022TIP3   OH277533   3.834   6.328  19.087
 9022TIP3    H177534   3.794   6.415  19.088
 9022TIP3    H277535   3.848   6.308  18.995
 9023TIP3   OH277536   3.901   6.617  19.331
 9023TIP3    H177537   3.935   6.528  19.319
 9023TIP3    H277538   3.979   6.672  19.336
 9024TIP3   OH277539   5.592   6.004   0.186
 9024TIP3    H177540   5.604   6.073   0.251
 9024TIP3    H277541   5.647   6.030   0.113
 9025TIP3   OH277542   4.981   6.289   0.090
 9025TIP3    H177543   5.002   6.197   0.109
 9025TIP3    H277544   4.965   6.290  19.469
 9026TIP3   OH277545   5.140   6.118  19.137
 9026TIP3    H177546   5.173   6.088  19.222
 9026TIP3    H277547   5.217   6.155  19.094
 9027TIP3   OH277548   4.451   6.504  19.351
 9027TIP3    H177549   4.534   6.463  19.376
 9027TIP3    H277550   4.408   6.439  19.295
 9028TIP3   OH277551   5.600   6.209   0.365
 9028TIP3    H177552   5.531   6.275   0.365
 9028TIP3    H277553   5.639   6.214   0.452
 9029TIP3   OH277554   5.222   6.082  19.394
 9029TIP3    H177555   5.159   6.049  19.459
 9029TIP3    H277556   5.283   6.134  19.445
 9030TIP3   OH277557   4.304   7.005   0.299
 9030TIP3    H177558   4.310   7.100   0.284
 9030TIP3    H277559   4.221   6.993   0.346
 9031TIP3   OH277560   5.327   5.991   0.269
 9031TIP3    H177561   5.277   6.049   0.211
 9031TIP3    H277562   5.416   5.991   0.234
 9032TIP3   OH277563   4.579   5.737  19.469
 9032TIP3    H177564   4.537   5.654  19.446
 9032TIP3    H277565   4.506   5.796   0.014
 9033TIP3   OH277566   4.809   6.397  18.589
 9033TIP3    H177567   4.882   6.366  18.644
 9033TIP3    H277568   4.843   6.393  18.500
 9034TIP3   OH277569   5.090   6.637  19.085
 9034TIP3    H177570   5.093   6.655  19.179
 9034TIP3    H277571   5.163   6.577  19.069
 9035TIP3   OH277572   5.133   6.427   0.422
 9035TIP3    H177573   5.122   6.458   0.512
 9035TIP3    H277574   5.066   6.474   0.372
 9036TIP3   OH277575   4.341   6.693  19.175
 9036TIP3    H177576   4.318   6.640  19.098
 9036TIP3    H277577   4.387   6.632  19.233
 9037TIP3   OH277578   4.327   6.649   0.079
 9037TIP3    H177579   4.375   6.590   0.020
 9037TIP3    H277580   4.390   6.717   0.102
 9038TIP3   OH277581   4.470   6.950   0.517
 9038TIP3    H177582   4.416   7.011   0.568
 9038TIP3    H277583   4.430   6.948   0.430
 9039TIP3   OH277584   4.184   6.617   0.530
 9039TIP3    H177585   4.175   6.702   0.572
 9039TIP3    H277586   4.140   6.627   0.445
 9040TIP3   OH277587   5.477   5.775  18.786
 9040TIP3    H177588   5.382   5.786  18.791
 9040TIP3    H277589   5.506   5.841  18.723
 9041TIP3   OH277590   4.245   6.539  18.939
 9041TIP3    H177591   4.232   6.619  18.888
 9041TIP3    H277592   4.172   6.483  18.914
 9042TIP3   OH277593   3.885   6.800   0.363
 9042TIP3    H177594   3.872   6.774   0.272
 9042TIP3    H277595   3.866   6.721   0.414
 9043TIP3   OH277596   5.047   7.492  18.678
 9043TIP3    H177597   5.037   7.517  18.586
 9043TIP3    H277598   4.962   7.456  18.702
 9044TIP3   OH277599   5.367   6.319   0.724
 9044TIP3    H177600   5.284   6.367   0.719
 9044TIP3    H277601   5.352   6.242   0.668
 9045TIP3   OH277602   4.075   6.975   0.449
 9045TIP3    H177603   4.098   6.943   0.536
 9045TIP3    H277604   4.012   6.912   0.415
 9046TIP3   OH277605   5.058   6.164   0.490
 9046TIP3    H177606   5.018   6.166   0.577
 9046TIP3    H277607   5.081   6.255   0.473
 9047TIP3   OH277608   4.778   5.991  18.612
 9047TIP3    H177609   4.689   6.023  18.629
 9047TIP3    H277610   4.768   5.927  18.542
 9048TIP3   OH277611   4.302   6.370  19.161
 9048TIP3    H177612   4.231   6.308  19.147
 9048TIP3    H277613   4.304   6.423  19.081
 9049TIP3   OH277614   4.885   6.372  19.038
 9049TIP3    H177615   4.866   6.465  19.024
 9049TIP3    H277616   4.963   6.356  18.986
 9050TIP3   OH277617   4.802   6.354   0.714
 9050TIP3    H177618   4.846   6.270   0.727
 9050TIP3    H277619   4.873   6.419   0.716
 9051TIP3   OH277620   4.976   6.287  19.285
 9051TIP3    H177621   4.926   6.329  19.215
 9051TIP3    H277622   5.025   6.217  19.241
 9052TIP3   OH277623   3.813   6.056  19.179
 9052TIP3    H177624   3.799   6.148  19.160
 9052TIP3    H277625   3.887   6.031  19.123
 9053TIP3   OH277626   3.940   6.243  18.839
 9053TIP3    H177627   3.967   6.328  18.804
 9053TIP3    H277628   3.856   6.225  18.796
 9054TIP3   OH277629   4.881   6.468   0.270
 9054TIP3    H177630   4.921   6.406   0.209
 9054TIP3    H277631   4.842   6.413   0.337
 9055TIP3   OH277632   4.087   6.215  19.083
 9055TIP3    H177633   4.007   6.259  19.112
 9055TIP3    H277634   4.070   6.191  18.992
 9056TIP3   OH277635   5.039   6.018   0.122
 9056TIP3    H177636   5.046   5.987   0.212
 9056TIP3    H277637   4.964   5.971   0.086
 9057TIP3   OH277638   5.289   7.540   0.727
 9057TIP3    H177639   5.275   7.512   0.636
 9057TIP3    H277640   5.356   7.608   0.721
 9058TIP3   OH277641   4.133   6.851   0.694
 9058TIP3    H177642   4.197   6.850   0.764
 9058TIP3    H277643   4.048   6.848   0.739
 9059TIP3   OH277644   4.683   6.380  19.444
 9059TIP3    H177645   4.705   6.297  19.400
 9059TIP3    H277646   4.660   6.355   0.061
 9060TIP3   OH277647   4.605   6.296   0.223
 9060TIP3    H177648   4.530   6.339   0.263
 9060TIP3    H277649   4.664   6.277   0.296
 9061TIP3   OH277650   4.567   6.885  18.835
 9061TIP3    H177651   4.550   6.794  18.813
 9061TIP3    H277652   4.569   6.887  18.931
 9062TIP3   OH277653   5.386   6.658   0.234
 9062TIP3    H177654   5.440   6.727   0.197
 9062TIP3    H277655   5.304   6.663   0.185
 9063TIP3   OH277656   5.037   6.070  18.671
 9063TIP3    H177657   4.947   6.044  18.649
 9063TIP3    H277658   5.056   6.142  18.611
 9064TIP3   OH277659   5.122   6.354  18.893
 9064TIP3    H177660   5.199   6.300  18.912
 9064TIP3    H277661   5.157   6.428  18.843
 9065TIP3   OH277662   4.146   6.742  19.368
 9065TIP3    H177663   4.204   6.742  19.292
 9065TIP3    H277664   4.198   6.703  19.438
 9066TIP3   OH277665   3.831   6.579   0.512
 9066TIP3    H177666   3.883   6.560   0.590
 9066TIP3    H277667   3.818   6.494   0.471
 9067TIP3   OH277668   4.565   6.504   0.765
 9067TIP3    H177669   4.512   6.492   0.686
 9067TIP3    H277670   4.651   6.469   0.742
 9068TIP3   OH277671   5.155   6.633   0.068
 9068TIP3    H177672   5.060   6.634   0.060
 9068TIP3    H277673   5.184   6.562   0.011
 9069TIP3   OH277674   4.407   7.135  19.204
 9069TIP3    H177675   4.376   7.196  19.136
 9069TIP3    H277676   4.346   7.148  19.276
 9070TIP3   OH277677   3.976   6.510  18.776
 9070TIP3    H177678   4.024   6.591  18.758
 9070TIP3    H277679   3.884   6.533  18.759
 9071TIP3   OH277680   4.523   6.899  19.112
 9071TIP3    H177681   4.486   6.980  19.146
 9071TIP3    H277682   4.461   6.831  19.138
 9072TIP3   OH277683   4.577   7.288   0.396
 9072TIP3    H177684   4.654   7.345   0.404
 9072TIP3    H277685   4.610   7.200   0.416
 9073TIP3   OH277686   3.987   7.213   0.332
 9073TIP3    H177687   4.013   7.126   0.360
 9073TIP3    H277688   4.044   7.273   0.381
 9074TIP3   OH277689   4.464   7.087  18.681
 9074TIP3    H177690   4.506   7.012  18.723
 9074TIP3    H277691   4.458   7.153  18.750
 9075TIP3   OH277692   4.150   6.750  18.786
 9075TIP3    H177693   4.126   6.818  18.849
 9075TIP3    H277694   4.193   6.798  18.715
 9076TIP3   OH277695   5.015   5.976  18.934
 9076TIP3    H177696   5.018   6.023  18.851
 9076TIP3    H277697   5.053   6.036  18.998
 9077TIP3   OH277698   4.780   6.285   0.444
 9077TIP3    H177699   4.762   6.314   0.533
 9077TIP3    H277700   4.840   6.211   0.454
 9078TIP3   OH277701   4.871   5.827  19.114
 9078TIP3    H177702   4.819   5.892  19.162
 9078TIP3    H277703   4.921   5.879  19.051
 9079TIP3   OH277704   5.322   6.085   0.537
 9079TIP3    H177705   5.228   6.100   0.536
 9079TIP3    H277706   5.342   6.052   0.449
 9080TIP3   OH277707   5.212   6.415  19.375
 9080TIP3    H177708   5.128   6.373  19.360
 9080TIP3    H277709   5.257   6.358  19.438
 9081TIP3   OH277710   4.233   6.937  18.599
 9081TIP3    H177711   4.309   6.988  18.626
 9081TIP3    H277712   4.215   6.967  18.510
 9082TIP3   OH277713   5.368   7.498   0.168
 9082TIP3    H177714   5.335   7.544   0.091
 9082TIP3    H277715   5.451   7.460   0.140
 9083TIP3   OH277716   4.004   7.176  19.026
 9083TIP3    H177717   3.958   7.238  19.082
 9083TIP3    H277718   3.975   7.198  18.937
 9084TIP3   OH277719   3.872   6.812   0.782
 9084TIP3    H177720   3.894   6.723   0.755
 9084TIP3    H277721   3.823   6.848   0.708
 9085TIP3   OH277722   4.509   6.802   0.756
 9085TIP3    H177723   4.518   6.836   0.667
 9085TIP3    H277724   4.556   6.718   0.754
 9086TIP3   OH277725   5.159   6.801   0.461
 9086TIP3    H177726   5.224   6.731   0.466
 9086TIP3    H277727   5.132   6.815   0.551
 9087TIP3   OH277728   3.980   6.557   0.738
 9087TIP3    H177729   4.071   6.547   0.710
 9087TIP3    H277730   3.983   6.550   0.833
 9088TIP3   OH277731   4.493   6.622  18.776
 9088TIP3    H177732   4.432   6.562  18.818
 9088TIP3    H277733   4.514   6.581  18.692
 9089TIP3   OH277734   4.435   6.487   0.522
 9089TIP3    H177735   4.348   6.527   0.520
 9089TIP3    H277736   4.483   6.529   0.451
 9090TIP3   OH277737   4.556   6.492  18.534
 9090TIP3    H177738   4.559   6.474  18.440
 9090TIP3    H277739   4.640   6.459  18.567
 9091TIP3   OH277740   4.854   6.651   0.837
 9091TIP3    H177741   4.932   6.620   0.791
 9091TIP3    H277742   4.844   6.592   0.911
 9092TIP3   OH277743   4.600   6.598   0.325
 9092TIP3    H177744   4.686   6.561   0.302
 9092TIP3    H277745   4.608   6.691   0.302
 9093TIP3   OH277746   5.091   6.316   0.989
 9093TIP3    H177747   5.137   6.237   0.962
 9093TIP3    H277748   5.097   6.374   0.914
 9094TIP3   OH277749   5.261   6.738   0.783
 9094TIP3    H177750   5.205   6.662   0.773
 9094TIP3    H277751   5.336   6.720   0.725
 9095TIP3   OH277752   4.641   6.135   0.838
 9095TIP3    H177753   4.669   6.125   0.929
 9095TIP3    H277754   4.659   6.226   0.816
 9096TIP3   OH277755   4.916   6.104   0.726
 9096TIP3    H177756   4.833   6.065   0.750
 9096TIP3    H277757   4.982   6.047   0.766
 9097TIP3   OH277758   5.095   5.935   0.867
 9097TIP3    H177759   5.090   5.840   0.867
 9097TIP3    H277760   5.056   5.961   0.950
 9098TIP3   OH277761   4.554   7.626  18.567
 9098TIP3    H177762   4.615   7.568  18.611
 9098TIP3    H277763   4.545   7.589  18.479
 9099TIP3   OH277764   5.640   7.394   0.112
 9099TIP3    H177765   5.641   7.384   0.207
 9099TIP3    H277766   5.729   7.420   0.089
 9100TIP3   OH277767   5.631   7.339   0.388
 9100TIP3    H177768   5.562   7.274   0.372
 9100TIP3    H277769   5.600   7.387   0.465
 9101TIP3   OH277770   5.525   6.626  19.037
 9101TIP3    H177771   5.448   6.577  19.066
 9101TIP3    H277772   5.551   6.678  19.113
 9102TIP3   OH277773   5.554   6.848   0.118
 9102TIP3    H177774   5.630   6.798   0.087
 9102TIP3    H277775   5.580   6.940   0.107
 9103TIP3   OH277776   5.425   7.170   0.329
 9103TIP3    H177777   5.349   7.203   0.281
 9103TIP3    H277778   5.446   7.087   0.287
 9104TIP3   OH277779   5.613   6.509  18.800
 9104TIP3    H177780   5.598   6.563  18.722
 9104TIP3    H277781   5.585   6.565  18.873
 9105TIP3   OH277782   5.316   6.471  19.127
 9105TIP3    H177783   5.328   6.384  19.088
 9105TIP3    H277784   5.287   6.454  19.216
 9106TIP3   OH277785   3.846   6.667   0.125
 9106TIP3    H177786   3.847   6.657   0.030
 9106TIP3    H277787   3.927   6.627   0.155
 9107TIP3   OH277788   5.469   6.669   0.606
 9107TIP3    H177789   5.518   6.592   0.634
 9107TIP3    H277790   5.477   6.670   0.511
 9108TIP3   OH277791   5.607   6.442   0.682
 9108TIP3    H177792   5.522   6.402   0.702
 9108TIP3    H277793   5.664   6.368   0.663
 9109TIP3   OH277794   5.276   5.958  18.495
 9109TIP3    H177795   5.361   5.977  18.536
 9109TIP3    H277796   5.211   5.989  18.559
 9110TIP3   OH277797   5.366   6.229  18.991
 9110TIP3    H177798   5.376   6.133  18.993
 9110TIP3    H277799   5.452   6.260  18.963
 9111TIP3   OH277800   5.376   6.258   0.073
 9111TIP3    H177801   5.468   6.267   0.048
 9111TIP3    H277802   5.371   6.298   0.160
 9112TIP3   OH277803   5.387   6.394   0.314
 9112TIP3    H177804   5.303   6.392   0.359
 9112TIP3    H277805   5.400   6.485   0.289
 9113TIP3   OH277806   3.805   6.174   0.656
 9113TIP3    H177807   3.894   6.152   0.681
 9113TIP3    H277808   3.756   6.092   0.661
 9114TIP3   OH277809   5.625   5.764   0.837
 9114TIP3    H177810   5.695   5.700   0.825
 9114TIP3    H277811   5.635   5.824   0.763
 9115TIP3   OH277812   5.380   5.957  19.020
 9115TIP3    H177813   5.405   5.915  19.103
 9115TIP3    H277814   5.335   5.888  18.971
 9116TIP3   OH277815   5.553   5.942   0.623
 9116TIP3    H177816   5.474   5.995   0.612
 9116TIP3    H277817   5.540   5.867   0.565
 9117TIP3   OH277818   5.537   5.985  18.597
 9117TIP3    H177819   5.603   5.938  18.547
 9117TIP3    H277820   5.554   6.078  18.579
 9118TIP3   OH277821   5.403   7.437  19.176
 9118TIP3    H177822   5.446   7.357  19.146
 9118TIP3    H277823   5.327   7.407  19.225
 9119TIP3   OH277824   3.803   5.775   0.250
 9119TIP3    H177825   3.763   5.765   0.337
 9119TIP3    H277826   3.763   5.854   0.214
 9120TIP3   OH277827   4.329   7.282   0.277
 9120TIP3    H177828   4.300   7.373   0.280
 9120TIP3    H277829   4.416   7.283   0.317
 9121TIP3   OH277830   5.482   5.705   0.474
 9121TIP3    H177831   5.420   5.716   0.402
 9121TIP3    H277832   5.509   5.613   0.468
 9122TIP3   OH277833   4.006   7.602   0.363
 9122TIP3    H177834   3.970   7.547   0.292
 9122TIP3    H277835   3.991   7.550   0.442
 9123TIP3   OH277836   4.273   7.554   0.282
 9123TIP3    H177837   4.185   7.581   0.309
 9123TIP3    H277838   4.287   7.595   0.197
 9124TIP3   OH277839   4.035   7.399   0.124
 9124TIP3    H177840   4.001   7.327   0.178
 9124TIP3    H277841   4.104   7.359   0.072
 9125TIP3   OH277842   4.243   7.250   0.007
 9125TIP3    H177843   4.216   7.158   0.008
 9125TIP3    H277844   4.292   7.262   0.088
 9126TIP3   OH277845   4.832   5.864   0.022
 9126TIP3    H177846   4.747   5.823   0.008
 9126TIP3    H277847   4.892   5.814  19.438
 9127TIP3   OH277848   5.293   5.743  19.438
 9127TIP3    H177849   5.356   5.782  19.377
 9127TIP3    H277850   5.208   5.771  19.404
 9128TIP3   OH277851   5.487   5.843  19.253
 9128TIP3    H177852   5.539   5.767  19.227
 9128TIP3    H277853   5.552   5.905  19.288
 9129TIP3   OH277854   5.024   5.744  19.331
 9129TIP3    H177855   4.982   5.766  19.248
 9129TIP3    H277856   5.038   5.649  19.326
 9130TIP3   OH277857   5.205   5.792  18.846
 9130TIP3    H177858   5.139   5.852  18.881
 9130TIP3    H277859   5.162   5.749  18.773
 9131TIP3   OH277860   6.745   6.631   0.079
 9131TIP3    H177861   6.764   6.583   0.160
 9131TIP3    H277862   6.674   6.582   0.038
 9132TIP3   OH277863   6.073   6.983   0.022
 9132TIP3    H177864   6.047   6.893   0.005
 9132TIP3    H277865   6.169   6.981   0.021
 9133TIP3   OH277866   6.559   6.839   0.083
 9133TIP3    H177867   6.637   6.786   0.066
 9133TIP3    H277868   6.514   6.794   0.154
 9134TIP3   OH277869   6.859   6.265   0.087
 9134TIP3    H177870   6.885   6.176   0.110
 9134TIP3    H277871   6.767   6.257   0.061
 9135TIP3   OH277872   5.813   6.960  18.858
 9135TIP3    H177873   5.860   6.975  18.776
 9135TIP3    H277874   5.814   7.045  18.902
 9136TIP3   OH277875   7.151   5.954   0.195
 9136TIP3    H177876   7.059   5.963   0.173
 9136TIP3    H277877   7.197   5.954   0.111
 9137TIP3   OH277878   6.475   5.687  19.430
 9137TIP3    H177879   6.466   5.592  19.431
 9137TIP3    H277880   6.398   5.718   0.006
 9138TIP3   OH277881   7.014   6.465   0.490
 9138TIP3    H177882   7.082   6.532   0.482
 9138TIP3    H277883   6.955   6.483   0.416
 9139TIP3   OH277884   6.209   6.643  19.235
 9139TIP3    H177885   6.198   6.628  19.141
 9139TIP3    H277886   6.266   6.572  19.264
 9140TIP3   OH277887   6.344   6.993  19.459
 9140TIP3    H177888   6.355   7.019  19.367
 9140TIP3    H277889   6.420   6.939   0.005
 9141TIP3   OH277890   6.381   6.942   0.586
 9141TIP3    H177891   6.334   7.020   0.617
 9141TIP3    H277892   6.322   6.902   0.522
 9142TIP3   OH277893   6.190   7.152   0.638
 9142TIP3    H177894   6.190   7.188   0.549
 9142TIP3    H277895   6.098   7.153   0.664
 9143TIP3   OH277896   6.155   6.580  18.968
 9143TIP3    H177897   6.103   6.640  18.916
 9143TIP3    H277898   6.110   6.496  18.961
 9144TIP3   OH277899   5.656   7.107   0.097
 9144TIP3    H177900   5.751   7.107   0.090
 9144TIP3    H277901   5.631   7.199   0.085
 9145TIP3   OH277902   6.715   7.532  18.945
 9145TIP3    H177903   6.700   7.510  18.853
 9145TIP3    H277904   6.809   7.553  18.949
 9146TIP3   OH277905   5.993   7.345  19.188
 9146TIP3    H177906   6.032   7.308  19.267
 9146TIP3    H277907   5.901   7.356  19.209
 9147TIP3   OH277908   6.656   5.791   0.410
 9147TIP3    H177909   6.693   5.760   0.493
 9147TIP3    H277910   6.562   5.777   0.420
 9148TIP3   OH277911   6.953   6.192   0.512
 9148TIP3    H177912   7.035   6.146   0.531
 9148TIP3    H277913   6.979   6.285   0.508
 9149TIP3   OH277914   6.660   6.053  18.591
 9149TIP3    H177915   6.568   6.065  18.618
 9149TIP3    H277916   6.654   6.022  18.501
 9150TIP3   OH277917   5.737   5.995  19.278
 9150TIP3    H177918   5.797   5.920  19.277
 9150TIP3    H277919   5.708   6.005  19.187
 9151TIP3   OH277920   6.826   6.461   0.281
 9151TIP3    H177921   6.856   6.391   0.223
 9151TIP3    H277922   6.754   6.423   0.330
 9152TIP3   OH277923   6.880   5.992   0.130
 9152TIP3    H177924   6.828   6.000   0.211
 9152TIP3    H277925   6.832   5.928   0.078
 9153TIP3   OH277926   6.986   7.606   0.698
 9153TIP3    H177927   6.994   7.594   0.604
 9153TIP3    H277928   7.075   7.621   0.728
 9154TIP3   OH277929   6.058   6.827   0.705
 9154TIP3    H177930   6.032   6.902   0.652
 9154TIP3    H277931   5.975   6.791   0.738
 9155TIP3   OH277932   7.248   6.697   0.274
 9155TIP3    H177933   7.303   6.749   0.216
 9155TIP3    H277934   7.163   6.693   0.231
 9156TIP3   OH277935   6.846   6.099  18.790
 9156TIP3    H177936   6.786   6.081  18.717
 9156TIP3    H277937   6.930   6.117  18.747
 9157TIP3   OH277938   6.643   6.824   0.578
 9157TIP3    H177939   6.564   6.878   0.582
 9157TIP3    H277940   6.706   6.877   0.529
 9158TIP3   OH277941   6.049   6.700  19.450
 9158TIP3    H177942   6.093   6.699  19.364
 9158TIP3    H277943   6.092   6.630   0.026
 9159TIP3   OH277944   7.489   6.898   0.610
 9159TIP3    H177945   7.432   6.973   0.591
 9159TIP3    H277946   7.516   6.866   0.523
 9160TIP3   OH277947   7.320   7.221  18.834
 9160TIP3    H177948   7.267   7.274  18.894
 9160TIP3    H277949   7.325   7.273  18.755
 9161TIP3   OH277950   7.030   6.658   0.116
 9161TIP3    H177951   6.936   6.673   0.106
 9161TIP3    H277952   7.047   6.579   0.064
 9162TIP3   OH277953   6.325   7.102  19.199
 9162TIP3    H177954   6.312   7.184  19.151
 9162TIP3    H277955   6.263   7.041  19.159
 9163TIP3   OH277956   6.248   7.349  19.074
 9163TIP3    H177957   6.154   7.344  19.093
 9163TIP3    H277958   6.279   7.424  19.124
 9164TIP3   OH277959   7.367   7.383  18.617
 9164TIP3    H177960   7.327   7.441  18.552
 9164TIP3    H277961   7.410   7.442  18.679
 9165TIP3   OH277962   5.884   7.267   0.299
 9165TIP3    H177963   5.929   7.195   0.343
 9165TIP3    H277964   5.798   7.272   0.342
 9166TIP3   OH277965   6.228   7.100  18.708
 9166TIP3    H177966   6.306   7.048  18.727
 9166TIP3    H277967   6.252   7.190  18.732
 9167TIP3   OH277968   6.010   6.761  18.818
 9167TIP3    H177969   5.932   6.794  18.863
 9167TIP3    H277970   6.020   6.818  18.742
 9168TIP3   OH277971   6.750   6.064   0.372
 9168TIP3    H177972   6.823   6.091   0.428
 9168TIP3    H277973   6.730   5.975   0.402
 9169TIP3   OH277974   6.666   6.159  18.989
 9169TIP3    H177975   6.735   6.133  18.928
 9169TIP3    H277976   6.591   6.178  18.932
 9170TIP3   OH277977   6.621   6.330   0.407
 9170TIP3    H177978   6.628   6.354   0.499
 9170TIP3    H277979   6.650   6.238   0.404
 9171TIP3   OH277980   6.323   7.341  18.799
 9171TIP3    H177981   6.356   7.428  18.777
 9171TIP3    H277982   6.304   7.346  18.893
 9172TIP3   OH277983   7.053   6.426  19.442
 9172TIP3    H177984   7.031   6.412  19.350
 9172TIP3    H277985   6.992   6.370   0.018
 9173TIP3   OH277986   5.989   6.987  18.641
 9173TIP3    H177987   6.067   7.032  18.672
 9173TIP3    H277988   5.997   6.988  18.545
 9174TIP3   OH277989   5.819   7.213  18.967
 9174TIP3    H177990   5.739   7.265  18.959
 9174TIP3    H277991   5.866   7.253  19.040
 9175TIP3   OH277992   5.800   7.400   0.761
 9175TIP3    H177993   5.876   7.350   0.792
 9175TIP3    H277994   5.745   7.334   0.718
 9176TIP3   OH277995   6.284   7.352   0.816
 9176TIP3    H177996   6.335   7.299   0.876
 9176TIP3    H277997   6.254   7.291   0.749
 9177TIP3   OH277998   5.808   6.750   0.796
 9177TIP3    H177999   5.752   6.681   0.761
 9177TIP3    H278000   5.757   6.789   0.867
 9178TIP3   OH278001   6.415   6.722   0.752
 9178TIP3    H178002   6.408   6.798   0.694
 9178TIP3    H278003   6.473   6.661   0.706
 9179TIP3   OH278004   6.491   6.585   0.315
 9179TIP3    H178005   6.537   6.512   0.357
 9179TIP3    H278006   6.441   6.626   0.385
 9180TIP3   OH278007   6.377   5.748   0.430
 9180TIP3    H178008   6.330   5.831   0.437
 9180TIP3    H278009   6.317   5.690   0.385
 9181TIP3   OH278010   6.429   5.650   0.695
 9181TIP3    H178011   6.496   5.583   0.685
 9181TIP3    H278012   6.408   5.677   0.605
 9182TIP3   OH278013   6.406   7.588  18.687
 9182TIP3    H178014   6.482   7.630  18.647
 9182TIP3    H278015   6.340   7.658  18.694
 9183TIP3   OH278016   5.728   7.340  19.253
 9183TIP3    H178017   5.661   7.288  19.209
 9183TIP3    H278018   5.681   7.383  19.325
 9184TIP3   OH278019   7.516   6.511  19.148
 9184TIP3    H178020   7.479   6.598  19.136
 9184TIP3    H278021   7.594   6.525  19.202
 9185TIP3   OH278022   5.775   6.700   0.031
 9185TIP3    H178023   5.866   6.711   0.003
 9185TIP3    H278024   5.758   6.606   0.023
 9186TIP3   OH278025   5.708   6.181   0.646
 9186TIP3    H178026   5.767   6.174   0.721
 9186TIP3    H278027   5.665   6.096   0.642
 9187TIP3   OH278028   5.657   6.015  19.018
 9187TIP3    H178029   5.572   5.984  18.987
 9187TIP3    H278030   5.668   6.101  18.978
 9188TIP3   OH278031   5.696   5.762   0.292
 9188TIP3    H178032   5.628   5.742   0.357
 9188TIP3    H278033   5.662   5.838   0.245
 9189TIP3   OH278034   5.928   7.131   0.742
 9189TIP3    H178035   5.845   7.083   0.737
 9189TIP3    H278036   5.965   7.106   0.827
 9190TIP3   OH278037   6.208   7.246   0.382
 9190TIP3    H178038   6.195   7.337   0.357
 9190TIP3    H278039   6.266   7.211   0.315
 9191TIP3   OH278040   5.940   7.613   0.367
 9191TIP3    H178041   5.886   7.537   0.345
 9191TIP3    H278042   5.940   7.616   0.462
 9192TIP3   OH278043   6.183   7.502   0.284
 9192TIP3    H178044   6.102   7.548   0.310
 9192TIP3    H278045   6.182   7.505   0.188
 9193TIP3   OH278046   5.920   7.421   0.081
 9193TIP3    H178047   5.917   7.367   0.159
 9193TIP3    H278048   5.979   7.375   0.021
 9194TIP3   OH278049   6.103   7.250  19.425
 9194TIP3    H178050   6.075   7.162  19.448
 9194TIP3    H278051   6.198   7.248  19.435
 9195TIP3   OH278052   6.733   5.806  19.449
 9195TIP3    H178053   6.643   5.786  19.423
 9195TIP3    H278054   6.782   5.726  19.427
 9196TIP3   OH278055   7.236   5.715  19.360
 9196TIP3    H178056   7.255   5.807  19.375
 9196TIP3    H278057   7.173   5.715  19.288
 9197TIP3   OH278058   5.879   5.766  19.204
 9197TIP3    H178059   5.796   5.725  19.181
 9197TIP3    H278060   5.943   5.694  19.200
 9198TIP3   OH278061   5.861   5.692  18.686
 9198TIP3    H178062   5.825   5.747  18.616
 9198TIP3    H278063   5.821   5.725  18.766
 9199TIP3   OH278064   6.423   5.743  19.123
 9199TIP3    H178065   6.494   5.717  19.065
 9199TIP3    H278066   6.457   5.728  19.211
 9200TIP3   OH278067   6.699   7.487  18.678
 9200TIP3    H178068   6.688   7.567  18.627
 9200TIP3    H278069   6.627   7.431  18.650
 9201TIP3   OH278070   7.309   7.465  18.988
 9201TIP3    H178071   7.389   7.462  18.936
 9201TIP3    H278072   7.249   7.519  18.937
 9202TIP3   OH278073   5.946   5.742   0.626
 9202TIP3    H178074   5.894   5.691   0.688
 9202TIP3    H278075   6.030   5.755   0.670
 9203TIP3   OH278076   6.169   5.724   0.786
 9203TIP3    H178077   6.256   5.689   0.768
 9203TIP3    H278078   6.136   5.670   0.858
 9204TIP3   OH278079   6.023   7.441  18.473
 9204TIP3    H178080   5.990   7.513  18.526
 9204TIP3    H278081   6.007   7.363  18.526
 9205TIP3   OH278082   7.830   6.548   0.167
 9205TIP3    H178083   7.850   6.455   0.182
 9205TIP3    H278084   7.849   6.591   0.250
 9206TIP3   OH278085   7.914   6.972   0.070
 9206TIP3    H178086   7.911   6.889   0.022
 9206TIP3    H278087   7.964   6.952   0.149
 9207TIP3   OH278088   7.734   6.516  19.327
 9207TIP3    H178089   7.711   6.522  19.420
 9207TIP3    H278090   7.795   6.589  19.313
 9208TIP3   OH278091   8.051   6.177  19.392
 9208TIP3    H178092   8.061   6.229  19.311
 9208TIP3    H278093   7.957   6.166  19.402
 9209TIP3   OH278094   8.042   6.968   0.318
 9209TIP3    H178095   8.080   7.054   0.334
 9209TIP3    H278096   7.956   6.972   0.359
 9210TIP3   OH278097   8.084   6.586  19.261
 9210TIP3    H178098   8.069   6.621  19.173
 9210TIP3    H278099   8.080   6.491  19.249
 9211TIP3   OH278100   7.847   6.583   0.451
 9211TIP3    H178101   7.880   6.648   0.513
 9211TIP3    H278102   7.753   6.580   0.467
 9212TIP3   OH278103   8.068   7.205   0.636
 9212TIP3    H178104   8.074   7.197   0.541
 9212TIP3    H278105   7.976   7.224   0.653
 9213TIP3   OH278106   8.009   6.609  18.987
 9213TIP3    H178107   7.974   6.686  18.943
 9213TIP3    H278108   7.939   6.543  18.978
 9214TIP3   OH278109   7.582   6.807   0.360
 9214TIP3    H178110   7.552   6.803   0.269
 9214TIP3    H278111   7.579   6.717   0.391
 9215TIP3   OH278112   7.653   7.081   0.041
 9215TIP3    H178113   7.733   7.028   0.035
 9215TIP3    H278114   7.648   7.104   0.134
 9216TIP3   OH278115   8.027   7.213  19.191
 9216TIP3    H178116   8.014   7.191  19.284
 9216TIP3    H278117   7.942   7.199  19.151
 9217TIP3   OH278118   7.794   6.964   0.436
 9217TIP3    H178119   7.828   6.908   0.506
 9217TIP3    H278120   7.719   6.915   0.400
 9218TIP3   OH278121   8.108   5.875   0.089
 9218TIP3    H178122   8.024   5.881   0.044
 9218TIP3    H278123   0.014   5.951   0.057
 9219TIP3   OH278124   0.023   6.363   0.333
 9219TIP3    H178125   8.074   6.343   0.339
 9219TIP3    H278126   0.043   6.358   0.239
 9220TIP3   OH278127   8.066   6.326  19.161
 9220TIP3    H178128   8.006   6.282  19.100
 9220TIP3    H278129   8.141   6.350  19.106
 9221TIP3   OH278130   7.888   6.329   0.346
 9221TIP3    H178131   7.876   6.409   0.397
 9221TIP3    H278132   7.829   6.266   0.386
 9222TIP3   OH278133   8.133   6.347  18.636
 9222TIP3    H178134   8.085   6.309  18.562
 9222TIP3    H278135   0.013   6.435  18.606
 9223TIP3   OH278136   7.899   6.800   0.632
 9223TIP3    H178137   7.994   6.810   0.636
 9223TIP3    H278138   7.865   6.864   0.695
 9224TIP3   OH278139   7.911   6.720  19.433
 9224TIP3    H178140   7.985   6.683  19.385
 9224TIP3    H278141   7.899   6.661   0.035
 9225TIP3   OH278142   7.575   6.555   0.471
 9225TIP3    H178143   7.521   6.536   0.548
 9225TIP3    H278144   7.529   6.515   0.398
 9226TIP3   OH278145   7.696   7.179   0.292
 9226TIP3    H178146   7.739   7.115   0.349
 9226TIP3    H278147   7.731   7.263   0.320
 9227TIP3   OH278148   7.878   6.812  18.857
 9227TIP3    H178149   7.794   6.854  18.872
 9227TIP3    H278150   7.922   6.866  18.792
 9228TIP3   OH278151   8.050   6.022  18.724
 9228TIP3    H178152   8.008   6.081  18.787
 9228TIP3    H278153   8.139   6.056  18.714
 9229TIP3   OH278154   7.994   6.977  18.668
 9229TIP3    H178155   8.086   7.002  18.656
 9229TIP3    H278156   7.961   6.964  18.580
 9230TIP3   OH278157   7.855   5.804  19.446
 9230TIP3    H178158   7.832   5.811  19.353
 9230TIP3    H278159   7.806   5.728   0.004
 9231TIP3   OH278160   7.771   7.172  19.101
 9231TIP3    H178161   7.714   7.116  19.153
 9231TIP3    H278162   7.717   7.201  19.028
 9232TIP3   OH278163   7.813   7.279   0.733
 9232TIP3    H178164   7.815   7.302   0.826
 9232TIP3    H278165   7.764   7.350   0.692
 9233TIP3   OH278166   7.621   6.751   0.826
 9233TIP3    H178167   7.647   6.673   0.777
 9233TIP3    H278168   7.576   6.805   0.761
 9234TIP3   OH278169   7.791   6.519   0.887
 9234TIP3    H178170   7.865   6.476   0.843
 9234TIP3    H278171   7.729   6.447   0.904
 9235TIP3   OH278172   7.980   6.339   0.772
 9235TIP3    H178173   7.913   6.271   0.765
 9235TIP3    H278174   8.054   6.306   0.721
 9236TIP3   OH278175   7.818   6.121   0.746
 9236TIP3    H178176   7.805   6.066   0.669
 9236TIP3    H278177   7.877   6.070   0.802
 9237TIP3   OH278178   7.334   7.492  19.276
 9237TIP3    H178179   7.322   7.467  19.184
 9237TIP3    H278180   7.380   7.419  19.315
 9238TIP3   OH278181   7.494   7.297  19.400
 9238TIP3    H178182   7.506   7.203  19.416
 9238TIP3    H278183   7.574   7.337  19.433
 9239TIP3   OH278184   7.748   7.014   0.745
 9239TIP3    H178185   7.669   7.005   0.691
 9239TIP3    H278186   7.773   7.106   0.734
 9240TIP3   OH278187   0.007   7.215   0.367
 9240TIP3    H178188   8.112   7.282   0.310
 9240TIP3    H278189   0.098   7.210   0.339
 9241TIP3   OH278190   7.799   7.419   0.370
 9241TIP3    H178191   7.756   7.495   0.331
 9241TIP3    H278192   7.799   7.438   0.464
 9242TIP3   OH278193   8.023   7.394   0.205
 9242TIP3    H178194   7.944   7.414   0.255
 9242TIP3    H278195   8.045   7.476   0.161
 9243TIP3   OH278196   7.740   7.368   0.041
 9243TIP3    H178197   7.742   7.278   0.075
 9243TIP3    H278198   7.821   7.376  19.463
 9244TIP3   OH278199   8.040   7.206  19.471
 9244TIP3    H178200   7.996   7.125   0.025
 9244TIP3    H278201   8.030   7.264   0.074
 9245TIP3   OH278202   7.772   5.766  19.183
 9245TIP3    H178203   7.685   5.733  19.162
 9245TIP3    H278204   7.831   5.694  19.160
 9246TIP3   OH278205   7.685   5.773  18.773
 9246TIP3    H178206   7.725   5.815  18.697
 9246TIP3    H278207   7.679   5.842  18.839
 9247TIP3   OH278208   7.590   7.239  18.901
 9247TIP3    H178209   7.498   7.214  18.899
 9247TIP3    H278210   7.608   7.275  18.814
 9248TIP3   OH278211   7.808   5.900  18.560
 9248TIP3    H178212   7.818   5.890  18.465
 9248TIP3    H278213   7.762   5.984  18.570
 9249TIP3   OH278214   8.010   5.716   0.863
 9249TIP3    H178215   8.076   5.659   0.823
 9249TIP3    H278216   7.942   5.656   0.894
 9250TIP3   OH278217   7.947   7.226  18.462
 9250TIP3    H178218   7.855   7.240  18.441
 9250TIP3    H278219   7.957   7.264  18.550
 9251TIP3   OH278220   1.902   7.776   0.213
 9251TIP3    H178221   1.892   7.855   0.266
 9251TIP3    H278222   1.952   7.804   0.137
 9252TIP3   OH278223   0.622   7.987  19.283
 9252TIP3    H178224   0.615   8.075  19.247
 9252TIP3    H278225   0.588   7.929  19.214
 9253TIP3   OH278226   1.363   7.916  19.172
 9253TIP3    H178227   1.422   7.898  19.244
 9253TIP3    H278228   1.420   7.946  19.101
 9254TIP3   OH278229   1.874   8.020   0.357
 9254TIP3    H178230   1.852   8.113   0.352
 9254TIP3    H278231   1.803   7.981   0.409
 9255TIP3   OH278232   0.492   7.812   0.218
 9255TIP3    H178233   0.497   7.882   0.154
 9255TIP3    H278234   0.406   7.822   0.259
 9256TIP3   OH278235   1.572   7.902  19.355
 9256TIP3    H178236   1.627   7.828  19.329
 9256TIP3    H278237   1.623   7.950  19.420
 9257TIP3   OH278238   0.486   8.021   0.047
 9257TIP3    H178239   0.503   8.112   0.071
 9257TIP3    H278240   0.539   8.008  19.440
 9258TIP3   OH278241   1.569   7.730   0.278
 9258TIP3    H178242   1.478   7.701   0.281
 9258TIP3    H278243   1.602   7.696   0.195
 9259TIP3   OH278244   0.828   7.559  19.441
 9259TIP3    H178245   0.810   7.465  19.439
 9259TIP3    H278246   0.742   7.599  19.458
 9260TIP3   OH278247   1.645   7.564  18.731
 9260TIP3    H178248   1.568   7.580  18.785
 9260TIP3    H278249   1.643   7.634  18.666
 9261TIP3   OH278250   0.562   7.632  19.461
 9261TIP3    H178251   0.532   7.641  19.371
 9261TIP3    H278252   0.513   7.698   0.037
 9262TIP3   OH278253   1.048   7.634   0.399
 9262TIP3    H178254   1.085   7.592   0.476
 9262TIP3    H278255   0.956   7.650   0.422
 9263TIP3   OH278256   1.447   7.929   0.575
 9263TIP3    H178257   1.374   7.879   0.610
 9263TIP3    H278258   1.410   8.013   0.550
 9264TIP3   OH278259   0.977   7.840  18.596
 9264TIP3    H178260   0.922   7.856  18.672
 9264TIP3    H278261   0.966   7.746  18.579
 9265TIP3   OH278262   0.231   7.923  19.213
 9265TIP3    H178263   0.285   7.858  19.259
 9265TIP3    H278264   0.204   7.879  19.133
 9266TIP3   OH278265   0.147   8.043  18.875
 9266TIP3    H178266   0.194   8.104  18.818
 9266TIP3    H278267   0.078   8.096  18.914
 9267TIP3   OH278268   0.907   7.988  19.234
 9267TIP3    H178269   0.819   7.984  19.272
 9267TIP3    H278270   0.949   7.907  19.263
 9268TIP3   OH278271   0.404   8.125  19.113
 9268TIP3    H178272   0.351   8.048  19.134
 9268TIP3    H278273   0.455   8.099  19.036
 9269TIP3   OH278274   0.589   8.137  18.883
 9269TIP3    H178275   0.677   8.131  18.919
 9269TIP3    H278276   0.580   0.085  18.856
 9270TIP3   OH278277   1.293   7.682   0.275
 9270TIP3    H178278   1.215   7.677   0.330
 9270TIP3    H278279   1.266   7.735   0.200
 9271TIP3   OH278280   0.514   7.842  19.079
 9271TIP3    H178281   0.469   7.761  19.105
 9271TIP3    H278282   0.528   7.832  18.985
 9272TIP3   OH278283   0.840   8.085   0.229
 9272TIP3    H178284   0.819   0.010   0.292
 9272TIP3    H278285   0.923   8.050   0.259
 9273TIP3   OH278286   1.206   7.961  18.709
 9273TIP3    H178287   1.125   7.929  18.670
 9273TIP3    H278288   1.266   7.972  18.634
 9274TIP3   OH278289   0.425   7.840   0.598
 9274TIP3    H178290   0.502   7.895   0.587
 9274TIP3    H278291   0.387   7.834   0.511
 9275TIP3   OH278292   1.062   7.991   0.347
 9275TIP3    H178293   1.151   7.979   0.313
 9275TIP3    H278294   1.058   7.934   0.424
 9276TIP3   OH278295   1.224   7.812  18.945
 9276TIP3    H178296   1.225   7.873  18.871
 9276TIP3    H278297   1.263   7.862  19.017
 9277TIP3   OH278298   0.841   8.111  18.997
 9277TIP3    H178299   0.905   0.031  18.968
 9277TIP3    H278300   0.881   8.068  19.072
 9278TIP3   OH278301   0.985   0.100   0.444
 9278TIP3    H178302   1.053   0.166   0.433
 9278TIP3    H278303   1.025   0.018   0.416
 9279TIP3   OH278304   0.981   7.719  19.034
 9279TIP3    H178305   0.996   7.726  19.128
 9279TIP3    H278306   1.064   7.742  18.994
 9280TIP3   OH278307   0.567   7.872  18.801
 9280TIP3    H178308   0.562   7.966  18.816
 9280TIP3    H278309   0.661   7.853  18.801
 9281TIP3   OH278310   1.693   7.859   0.487
 9281TIP3    H178311   1.609   7.890   0.520
 9281TIP3    H278312   1.670   7.805   0.411
 9282TIP3   OH278313   0.299   7.505  19.456
 9282TIP3    H178314   0.290   7.593  19.419
 9282TIP3    H278315   0.226   7.455  19.419
 9283TIP3   OH278316   0.622   8.030   0.584
 9283TIP3    H178317   0.671   7.977   0.521
 9283TIP3    H278318   0.628   8.120   0.550
 9284TIP3   OH278319   0.705   7.888   0.366
 9284TIP3    H178320   0.754   7.953   0.315
 9284TIP3    H278321   0.631   7.864   0.310
 9285TIP3   OH278322   0.768   7.632   0.430
 9285TIP3    H178323   0.752   7.725   0.412
 9285TIP3    H278324   0.706   7.585   0.374
 9286TIP3   OH278325   0.924   8.001   0.773
 9286TIP3    H178326   0.981   7.973   0.845
 9286TIP3    H278327   0.835   7.988   0.807
 9287TIP3   OH278328   1.075   7.868   0.588
 9287TIP3    H178329   1.016   7.915   0.647
 9287TIP3    H278330   1.141   7.829   0.645
 9288TIP3   OH278331   1.282   7.785   0.749
 9288TIP3    H178332   1.288   7.691   0.767
 9288TIP3    H278333   1.290   7.826   0.835
 9289TIP3   OH278334   0.347   8.021   0.788
 9289TIP3    H178335   0.372   7.953   0.726
 9289TIP3    H278336   0.358   7.981   0.874
 9290TIP3   OH278337   0.761   7.579   0.700
 9290TIP3    H178338   0.814   7.498   0.699
 9290TIP3    H278339   0.760   7.608   0.609
 9291TIP3   OH278340   0.814   7.735   0.927
 9291TIP3    H178341   0.806   7.680   0.849
 9291TIP3    H278342   0.759   7.811   0.909
 9292TIP3   OH278343   1.606   7.960  18.383
 9292TIP3    H178344   1.652   8.007  18.453
 9292TIP3    H278345   1.519   7.944  18.419
 9293TIP3   OH278346   1.769   8.042  19.131
 9293TIP3    H178347   1.729   7.963  19.094
 9293TIP3    H278348   1.750   8.111  19.068
 9294TIP3   OH278349   1.727   8.021   0.079
 9294TIP3    H178350   1.817   8.045   0.059
 9294TIP3    H278351   1.727   8.007   0.174
 9295TIP3   OH278352   0.161   0.055   0.695
 9295TIP3    H178353   0.221   8.133   0.730
 9295TIP3    H278354   0.134   0.021   0.610
 9296TIP3   OH278355   1.865   7.574   0.765
 9296TIP3    H178356   1.892   7.528   0.686
 9296TIP3    H278357   1.855   7.665   0.737
 9297TIP3   OH278358   1.644   7.769  19.045
 9297TIP3    H178359   1.678   7.723  19.122
 9297TIP3    H278360   1.583   7.708  19.005
 9298TIP3   OH278361   0.298   7.812  19.466
 9298TIP3    H178362   0.205   7.835  19.461
 9298TIP3    H278363   0.343   7.896   0.004
 9299TIP3   OH278364   1.811   7.840   0.738
 9299TIP3    H178365   1.727   7.859   0.780
 9299TIP3    H278366   1.794   7.850   0.645
 9300TIP3   OH278367   0.191   7.777  18.979
 9300TIP3    H178368   0.099   7.783  19.005
 9300TIP3    H278369   0.206   7.854  18.925
 9301TIP3   OH278370   0.145   7.592   0.270
 9301TIP3    H178371   0.066   7.613   0.320
 9301TIP3    H278372   0.115   7.582   0.180
 9302TIP3   OH278373   1.012   7.732  19.309
 9302TIP3    H178374   0.961   7.677  19.368
 9302TIP3    H278375   1.103   7.717  19.334
 9303TIP3   OH278376   1.535   7.601   0.006
 9303TIP3    H178377   1.601   7.628  19.415
 9303TIP3    H278378   1.452   7.609  19.432
 9304TIP3   OH278379   1.742   7.679  19.295
 9304TIP3    H178380   1.782   7.598  19.265
 9304TIP3    H278381   1.812   7.744  19.288
 9305TIP3   OH278382   0.352   7.636  19.172
 9305TIP3    H178383   0.285   7.656  19.106
 9305TIP3    H278384   0.358   7.541  19.171
 9306TIP3   OH278385   0.179   7.562  18.788
 9306TIP3    H178386   0.259   7.590  18.743
 9306TIP3    H278387   0.164   7.630  18.854
 9307TIP3   OH278388   0.755   7.596  19.166
 9307TIP3    H178389   0.815   7.642  19.108
 9307TIP3    H278390   0.799   7.594  19.250
 9308TIP3   OH278391   1.292   7.611  19.322
 9308TIP3    H178392   1.321   7.601  19.232
 9308TIP3    H278393   1.250   7.528  19.344
 9309TIP3   OH278394   1.440   7.631  18.911
 9309TIP3    H178395   1.367   7.693  18.908
 9309TIP3    H278396   1.399   7.546  18.926
 9310TIP3   OH278397   0.388   7.698  18.681
 9310TIP3    H178398   0.340   7.762  18.628
 9310TIP3    H278399   0.457   7.750  18.724
 9311TIP3   OH278400   0.842   7.870  18.842
 9311TIP3    H178401   0.882   7.808  18.903
 9311TIP3    H278402   0.844   7.954  18.888
 9312TIP3   OH278403   0.207   7.690   0.681
 9312TIP3    H178404   0.184   7.698   0.773
 9312TIP3    H278405   0.294   7.729   0.674
 9313TIP3   OH278406   0.527   7.587   0.845
 9313TIP3    H178407   0.601   7.589   0.785
 9313TIP3    H278408   0.520   7.495   0.872
 9314TIP3   OH278409   1.327   7.523   0.823
 9314TIP3    H178410   1.321   7.491   0.913
 9314TIP3    H278411   1.420   7.520   0.802
 9315TIP3   OH278412   3.648   7.814   0.206
 9315TIP3    H178413   3.670   7.897   0.249
 9315TIP3    H278414   3.721   7.799   0.145
 9316TIP3   OH278415   2.372   7.993  19.298
 9316TIP3    H178416   2.426   8.064  19.264
 9316TIP3    H278417   2.375   7.926  19.230
 9317TIP3   OH278418   3.218   8.036  19.123
 9317TIP3    H178419   3.256   7.981  19.192
 9317TIP3    H278420   3.291   8.056  19.065
 9318TIP3   OH278421   3.732   8.031   0.356
 9318TIP3    H178422   3.675   8.085   0.302
 9318TIP3    H278423   3.711   8.055   0.446
 9319TIP3   OH278424   2.320   7.849   0.238
 9319TIP3    H178425   2.286   7.926   0.193
 9319TIP3    H278426   2.243   7.803   0.270
 9320TIP3   OH278427   3.326   7.936  19.359
 9320TIP3    H178428   3.257   7.932  19.425
 9320TIP3    H278429   3.386   8.004  19.391
 9321TIP3   OH278430   2.275   8.070   0.065
 9321TIP3    H178431   2.329   8.142   0.098
 9321TIP3    H278432   2.319   8.042  19.457
 9322TIP3   OH278433   2.713   7.605   0.017
 9322TIP3    H178434   2.698   7.531  19.431
 9322TIP3    H278435   2.625   7.636   0.039
 9323TIP3   OH278436   3.548   7.611  18.694
 9323TIP3    H178437   3.470   7.618  18.749
 9323TIP3    H278438   3.566   7.700  18.665
 9324TIP3   OH278439   2.446   7.672   0.066
 9324TIP3    H178440   2.369   7.665   0.009
 9324TIP3    H278441   2.426   7.745   0.124
 9325TIP3   OH278442   2.887   7.667   0.421
 9325TIP3    H178443   2.928   7.650   0.507
 9325TIP3    H278444   2.795   7.645   0.434
 9326TIP3   OH278445   3.154   8.048   0.461
 9326TIP3    H178446   3.143   7.990   0.537
 9326TIP3    H278447   3.240   8.089   0.475
 9327TIP3   OH278448   2.844   7.857  18.577
 9327TIP3    H178449   2.806   7.900  18.653
 9327TIP3    H278450   2.808   7.768  18.579
 9328TIP3   OH278451   1.936   7.862  19.253
 9328TIP3    H178452   1.987   7.894  19.328
 9328TIP3    H278453   1.901   7.941  19.212
 9329TIP3   OH278454   2.798   7.919  19.239
 9329TIP3    H178455   2.740   7.954  19.307
 9329TIP3    H278456   2.858   7.861  19.286
 9330TIP3   OH278457   2.117   8.118  19.128
 9330TIP3    H178458   2.071   0.002  19.049
 9330TIP3    H278459   2.154   8.032  19.106
 9331TIP3   OH278460   2.499   8.116  18.911
 9331TIP3    H178461   2.585   8.126  18.952
 9331TIP3    H278462   2.461   0.059  18.912
 9332TIP3   OH278463   3.094   7.951   0.035
 9332TIP3    H178464   3.077   7.938   0.128
 9332TIP3    H278465   3.043   7.882  19.464
 9333TIP3   OH278466   2.730   7.959   0.254
 9333TIP3    H178467   2.746   8.051   0.274
 9333TIP3    H278468   2.816   7.917   0.259
 9334TIP3   OH278469   3.099   7.919  18.675
 9334TIP3    H178470   3.013   7.891  18.644
 9334TIP3    H278471   3.145   7.948  18.596
 9335TIP3   OH278472   2.095   7.927   0.501
 9335TIP3    H178473   2.029   7.964   0.442
 9335TIP3    H278474   2.120   7.844   0.461
 9336TIP3   OH278475   3.000   7.891   0.289
 9336TIP3    H178476   3.058   7.938   0.348
 9336TIP3    H278477   2.978   7.810   0.336
 9337TIP3   OH278478   3.117   7.832  18.939
 9337TIP3    H178479   3.116   7.868  18.851
 9337TIP3    H278480   3.152   7.902  18.994
 9338TIP3   OH278481   2.753   8.112  19.043
 9338TIP3    H178482   2.828   0.024  19.024
 9338TIP3    H278483   2.788   8.042  19.098
 9339TIP3   OH278484   2.891   8.109   0.511
 9339TIP3    H178485   2.881   8.068   0.597
 9339TIP3    H278486   2.984   8.098   0.490
 9340TIP3   OH278487   2.863   7.746  19.009
 9340TIP3    H178488   2.846   7.783  19.095
 9340TIP3    H278489   2.956   7.764  18.993
 9341TIP3   OH278490   2.460   7.879  18.761
 9341TIP3    H178491   2.464   7.963  18.807
 9341TIP3    H278492   2.551   7.854  18.750
 9342TIP3   OH278493   2.201   7.659  19.404
 9342TIP3    H178494   2.199   7.681  19.311
 9342TIP3    H278495   2.184   7.565  19.407
 9343TIP3   OH278496   2.577   8.045   0.605
 9343TIP3    H178497   2.552   7.970   0.551
 9343TIP3    H278498   2.630   8.099   0.547
 9344TIP3   OH278499   2.532   7.857   0.411
 9344TIP3    H178500   2.603   7.886   0.353
 9344TIP3    H278501   2.455   7.854   0.354
 9345TIP3   OH278502   2.617   7.601   0.465
 9345TIP3    H178503   2.582   7.689   0.455
 9345TIP3    H278504   2.559   7.545   0.413
 9346TIP3   OH278505   2.812   7.985   0.748
 9346TIP3    H178506   2.790   7.916   0.811
 9346TIP3    H278507   2.728   8.010   0.710
 9347TIP3   OH278508   3.073   7.898   0.671
 9347TIP3    H178509   2.992   7.923   0.715
 9347TIP3    H278510   3.129   7.864   0.740
 9348TIP3   OH278511   3.244   7.805   0.874
 9348TIP3    H178512   3.226   7.712   0.889
 9348TIP3    H278513   3.200   7.849   0.947
 9349TIP3   OH278514   2.197   7.963   0.753
 9349TIP3    H178515   2.180   7.972   0.659
 9349TIP3    H278516   2.268   8.025   0.770
 9350TIP3   OH278517   2.723   7.583   0.719
 9350TIP3    H178518   2.795   7.521   0.714
 9350TIP3    H278519   2.683   7.581   0.632
 9351TIP3   OH278520   2.720   7.781   0.905
 9351TIP3    H178521   2.728   7.709   0.843
 9351TIP3    H278522   2.629   7.779   0.933
 9352TIP3   OH278523   3.453   7.967  18.409
 9352TIP3    H178524   3.514   7.925  18.470
 9352TIP3    H278525   3.368   7.925  18.428
 9353TIP3   OH278526   3.433   8.071  18.954
 9353TIP3    H178527   3.461   7.984  18.984
 9353TIP3    H278528   3.443   8.067  18.859
 9354TIP3   OH278529   3.556   0.030   0.203
 9354TIP3    H178530   3.518   0.005   0.119
 9354TIP3    H278531   3.515   0.114   0.224
 9355TIP3   OH278532   1.926   8.108   0.736
 9355TIP3    H178533   1.989   8.125   0.665
 9355TIP3    H278534   1.842   8.137   0.700
 9356TIP3   OH278535   3.479   7.812  19.020
 9356TIP3    H178536   3.529   7.762  19.084
 9356TIP3    H278537   3.430   7.746  18.971
 9357TIP3   OH278538   2.071   7.887   0.024
 9357TIP3    H178539   2.121   7.811  19.467
 9357TIP3    H278540   2.137   7.956   0.034
 9358TIP3   OH278541   3.642   7.843  18.572
 9358TIP3    H178542   3.690   7.801  18.500
 9358TIP3    H278543   3.709   7.887  18.624
 9359TIP3   OH278544   2.934   7.751  19.402
 9359TIP3    H178545   2.862   7.704  19.444
 9359TIP3    H278546   3.001   7.684  19.386
 9360TIP3   OH278547   3.369   7.667  19.328
 9360TIP3    H178548   3.456   7.653  19.291
 9360TIP3    H278549   3.363   7.762  19.339
 9361TIP3   OH278550   3.619   7.659  19.212
 9361TIP3    H178551   3.681   7.590  19.234
 9361TIP3    H278552   3.657   7.738  19.250
 9362TIP3   OH278553   3.122   7.561  19.368
 9362TIP3    H178554   3.208   7.601  19.354
 9362TIP3    H278555   3.141   7.468  19.383
 9363TIP3   OH278556   3.319   7.636  18.874
 9363TIP3    H178557   3.241   7.689  18.892
 9363TIP3    H278558   3.290   7.545  18.884
 9364TIP3   OH278559   2.739   7.912  18.826
 9364TIP3    H178560   2.774   7.837  18.874
 9364TIP3    H278561   2.734   7.982  18.891
 9365TIP3   OH278562   3.183   7.531   0.918
 9365TIP3    H178563   3.245   7.469   0.957
 9365TIP3    H278564   3.150   7.487   0.840
 9366TIP3   OH278565   4.373   7.973  19.432
 9366TIP3    H178566   4.380   7.976  19.336
 9366TIP3    H278567   4.349   7.882  19.451
 9367TIP3   OH278568   5.133   8.060  19.140
 9367TIP3    H178569   5.170   8.012  19.215
 9367TIP3    H278570   5.209   8.084  19.087
 9368TIP3   OH278571   4.183   7.876   0.275
 9368TIP3    H178572   4.192   7.968   0.250
 9368TIP3    H278573   4.120   7.877   0.347
 9369TIP3   OH278574   5.232   7.918  19.358
 9369TIP3    H178575   5.152   7.918  19.411
 9369TIP3    H278576   5.279   7.996  19.387
 9370TIP3   OH278577   4.245   8.114   0.160
 9370TIP3    H178578   4.208   0.040   0.106
 9370TIP3    H278579   4.300   8.064   0.099
 9371TIP3   OH278580   5.489   7.631  18.833
 9371TIP3    H178581   5.394   7.640  18.843
 9371TIP3    H278582   5.511   7.688  18.759
 9372TIP3   OH278583   4.261   7.730   0.055
 9372TIP3    H178584   4.185   7.692   0.012
 9372TIP3    H278585   4.226   7.778   0.129
 9373TIP3   OH278586   5.152   8.054   0.515
 9373TIP3    H178587   5.079   8.022   0.568
 9373TIP3    H278588   5.163   0.002   0.542
 9374TIP3   OH278589   4.864   7.974  18.557
 9374TIP3    H178590   4.782   7.977  18.605
 9374TIP3    H278591   4.845   7.922  18.479
 9375TIP3   OH278592   3.733   7.883  19.318
 9375TIP3    H178593   3.770   7.877  19.407
 9375TIP3    H278594   3.809   7.873  19.261
 9376TIP3   OH278595   3.866   7.944  18.699
 9376TIP3    H178596   3.933   7.897  18.651
 9376TIP3    H278597   3.879   8.036  18.675
 9377TIP3   OH278598   4.697   7.930  19.232
 9377TIP3    H178599   4.601   7.936  19.225
 9377TIP3    H278600   4.712   7.877  19.311
 9378TIP3   OH278601   4.066   8.062  19.077
 9378TIP3    H178602   4.087   8.092  18.989
 9378TIP3    H278603   4.123   8.113  19.134
 9379TIP3   OH278604   4.544   0.227  18.899
 9379TIP3    H178605   4.523   0.237  18.992
 9379TIP3    H278606   4.476   0.278  18.855
 9380TIP3   OH278607   4.996   7.933   0.030
 9380TIP3    H178608   4.995   7.937   0.126
 9380TIP3    H278609   4.925   7.872   0.008
 9381TIP3   OH278610   3.957   7.831  19.179
 9381TIP3    H178611   3.978   7.755  19.124
 9381TIP3    H278612   3.997   7.905  19.133
 9382TIP3   OH278613   4.581   8.114   0.245
 9382TIP3    H178614   4.523   0.029   0.294
 9382TIP3    H278615   4.655   8.098   0.304
 9383TIP3   OH278616   5.089   8.010  18.713
 9383TIP3    H178617   5.011   8.004  18.658
 9383TIP3    H278618   5.098   8.103  18.732
 9384TIP3   OH278619   3.954   7.878   0.435
 9384TIP3    H178620   3.875   7.916   0.397
 9384TIP3    H278621   3.947   7.784   0.415
 9385TIP3   OH278622   5.002   7.934   0.312
 9385TIP3    H178623   5.067   7.980   0.365
 9385TIP3    H278624   5.021   7.841   0.327
 9386TIP3   OH278625   5.057   7.873  18.947
 9386TIP3    H178626   5.066   7.916  18.863
 9386TIP3    H278627   5.074   7.942  19.012
 9387TIP3   OH278628   4.753   0.017  19.099
 9387TIP3    H178629   4.840   0.045  19.128
 9387TIP3    H278630   4.737   8.079  19.146
 9388TIP3   OH278631   4.796   8.076   0.427
 9388TIP3    H178632   4.816   8.041   0.514
 9388TIP3    H278633   4.854   8.028   0.368
 9389TIP3   OH278634   4.833   7.757  19.060
 9389TIP3    H178635   4.795   7.824  19.117
 9389TIP3    H278636   4.908   7.799  19.019
 9390TIP3   OH278637   4.365   7.619  18.826
 9390TIP3    H178638   4.384   7.599  18.734
 9390TIP3    H278639   4.448   7.649  18.862
 9391TIP3   OH278640   5.413   7.921   0.485
 9391TIP3    H178641   5.320   7.944   0.479
 9391TIP3    H278642   5.437   7.896   0.396
 9392TIP3   OH278643   4.030   7.619  19.421
 9392TIP3    H178644   4.017   7.599  19.329
 9392TIP3    H278645   4.011   7.537  19.466
 9393TIP3   OH278646   4.477   8.050   0.595
 9393TIP3    H178647   4.474   7.991   0.520
 9393TIP3    H278648   4.466   8.137   0.558
 9394TIP3   OH278649   4.447   7.891   0.372
 9394TIP3    H178650   4.488   7.939   0.300
 9394TIP3    H278651   4.357   7.876   0.343
 9395TIP3   OH278652   4.459   7.628   0.477
 9395TIP3    H178653   4.466   7.718   0.447
 9395TIP3    H278654   4.400   7.586   0.413
 9396TIP3   OH278655   4.678   8.031   0.781
 9396TIP3    H178656   4.665   8.110   0.833
 9396TIP3    H278657   4.610   8.036   0.713
 9397TIP3   OH278658   4.931   7.984   0.669
 9397TIP3    H178659   4.852   8.000   0.720
 9397TIP3    H278660   4.988   7.935   0.730
 9398TIP3   OH278661   5.108   7.871   0.860
 9398TIP3    H178662   5.101   7.776   0.870
 9398TIP3    H278663   5.076   7.907   0.942
 9399TIP3   OH278664   3.939   8.010   0.687
 9399TIP3    H178665   3.950   7.960   0.606
 9399TIP3    H278666   4.027   8.035   0.712
 9400TIP3   OH278667   4.592   7.555   0.705
 9400TIP3    H178668   4.601   7.459   0.706
 9400TIP3    H278669   4.547   7.573   0.622
 9401TIP3   OH278670   4.641   7.763   0.871
 9401TIP3    H178671   4.623   7.691   0.811
 9401TIP3    H278672   4.671   7.834   0.815
 9402TIP3   OH278673   5.365   7.859  18.432
 9402TIP3    H178674   5.430   7.827  18.494
 9402TIP3    H278675   5.303   7.908  18.486
 9403TIP3   OH278676   5.341   8.082  18.962
 9403TIP3    H178677   5.371   7.993  18.982
 9403TIP3    H278678   5.406   8.117  18.901
 9404TIP3   OH278679   3.676   8.091   0.623
 9404TIP3    H178680   3.762   8.067   0.657
 9404TIP3    H278681   3.614   8.047   0.683
 9405TIP3   OH278682   5.614   7.580   0.885
 9405TIP3    H178683   5.683   7.537   0.835
 9405TIP3    H278684   5.577   7.644   0.825
 9406TIP3   OH278685   5.354   7.818  19.063
 9406TIP3    H178686   5.294   7.822  19.137
 9406TIP3    H278687   5.312   7.758  19.002
 9407TIP3   OH278688   3.891   7.823   0.069
 9407TIP3    H178689   3.930   7.752   0.018
 9407TIP3    H278690   3.963   7.856   0.123
 9408TIP3   OH278691   5.473   7.761   0.714
 9408TIP3    H178692   5.453   7.826   0.782
 9408TIP3    H278693   5.464   7.809   0.632
 9409TIP3   OH278694   5.573   7.797  18.621
 9409TIP3    H178695   5.641   7.754  18.570
 9409TIP3    H278696   5.617   7.872  18.662
 9410TIP3   OH278697   4.800   7.740  19.420
 9410TIP3    H178698   4.743   7.666  19.442
 9410TIP3    H278699   4.876   7.701  19.378
 9411TIP3   OH278700   5.302   7.648  19.398
 9411TIP3    H178701   5.383   7.640  19.349
 9411TIP3    H278702   5.284   7.742  19.402
 9412TIP3   OH278703   5.530   7.674  19.227
 9412TIP3    H178704   5.502   7.587  19.197
 9412TIP3    H278705   5.498   7.734  19.160
 9413TIP3   OH278706   5.024   7.627  19.311
 9413TIP3    H178707   5.028   7.625  19.215
 9413TIP3    H278708   5.115   7.618  19.339
 9414TIP3   OH278709   5.210   7.655  18.861
 9414TIP3    H178710   5.147   7.724  18.884
 9414TIP3    H278711   5.161   7.595  18.804
 9415TIP3   OH278712   4.619   7.713  18.893
 9415TIP3    H178713   4.697   7.705  18.948
 9415TIP3    H278714   4.605   7.807  18.884
 9416TIP3   OH278715   5.094   7.608   0.912
 9416TIP3    H178716   5.058   7.531   0.957
 9416TIP3    H278717   5.160   7.571   0.852
 9417TIP3   OH278718   7.380   7.845   0.218
 9417TIP3    H178719   7.470   7.875   0.206
 9417TIP3    H278720   7.338   7.860   0.133
 9418TIP3   OH278721   7.006   8.014  19.138
 9418TIP3    H178722   7.061   7.986  19.211
 9418TIP3    H278723   7.067   8.049  19.074
 9419TIP3   OH278724   7.503   8.095   0.369
 9419TIP3    H178725   7.445   8.111   0.295
 9419TIP3    H278726   7.448   8.111   0.446
 9420TIP3   OH278727   7.152   7.962  19.364
 9420TIP3    H178728   7.080   7.935  19.421
 9420TIP3    H278729   7.207   7.884  19.357
 9421TIP3   OH278730   7.207   7.621  18.724
 9421TIP3    H178731   7.128   7.568  18.715
 9421TIP3    H278732   7.207   7.677  18.646
 9422TIP3   OH278733   6.666   7.697   0.432
 9422TIP3    H178734   6.716   7.616   0.427
 9422TIP3    H278735   6.576   7.672   0.412
 9423TIP3   OH278736   6.988   8.035   0.459
 9423TIP3    H178737   6.939   8.016   0.539
 9423TIP3    H278738   6.960   8.123   0.434
 9424TIP3   OH278739   6.909   7.922   0.025
 9424TIP3    H178740   6.892   7.918   0.119
 9424TIP3    H278741   6.861   7.849  19.461
 9425TIP3   OH278742   6.461   7.970   0.146
 9425TIP3    H178743   6.403   8.038   0.111
 9425TIP3    H278744   6.517   8.016   0.208
 9426TIP3   OH278745   6.838   7.875   0.287
 9426TIP3    H178746   6.889   7.924   0.351
 9426TIP3    H278747   6.774   7.826   0.338
 9427TIP3   OH278748   6.823   7.877  18.991
 9427TIP3    H178749   6.759   7.942  18.962
 9427TIP3    H278750   6.883   7.926  19.048
 9428TIP3   OH278751   7.242   7.925   0.454
 9428TIP3    H178752   7.155   7.963   0.442
 9428TIP3    H278753   7.272   7.905   0.365
 9429TIP3   OH278754   6.290   7.865   0.342
 9429TIP3    H178755   6.337   7.894   0.264
 9429TIP3    H278756   6.198   7.885   0.324
 9430TIP3   OH278757   6.406   7.626   0.404
 9430TIP3    H178758   6.366   7.713   0.393
 9430TIP3    H278759   6.341   7.565   0.368
 9431TIP3   OH278760   6.794   8.009   0.655
 9431TIP3    H178761   6.708   7.967   0.647
 9431TIP3    H278762   6.835   7.967   0.730
 9432TIP3   OH278763   6.887   7.853   0.858
 9432TIP3    H178764   6.882   7.757   0.860
 9432TIP3    H278765   6.883   7.879   0.950
 9433TIP3   OH278766   7.160   7.848  18.557
 9433TIP3    H178767   7.253   7.864  18.540
 9433TIP3    H278768   7.120   7.846  18.470
 9434TIP3   OH278769   7.202   8.101  18.968
 9434TIP3    H178770   7.207   8.013  18.930
 9434TIP3    H278771   7.282   8.109  19.020
 9435TIP3   OH278772   7.325   0.025   0.171
 9435TIP3    H178773   7.297   0.032   0.080
 9435TIP3    H278774   7.274   0.091   0.218
 9436TIP3   OH278775   7.243   7.635   0.771
 9436TIP3    H178776   7.304   7.600   0.837
 9436TIP3    H278777   7.288   7.712   0.736
 9437TIP3   OH278778   7.194   7.830  18.912
 9437TIP3    H178779   7.117   7.781  18.942
 9437TIP3    H278780   7.216   7.791  18.828
 9438TIP3   OH278781   7.385   7.844   0.664
 9438TIP3    H178782   7.322   7.869   0.596
 9438TIP3    H278783   7.470   7.852   0.623
 9439TIP3   OH278784   7.436   7.837  18.520
 9439TIP3    H178785   7.425   7.833  18.425
 9439TIP3    H278786   7.489   7.760  18.542
 9440TIP3   OH278787   6.722   7.727  19.418
 9440TIP3    H178788   6.673   7.695   0.021
 9440TIP3    H278789   6.661   7.785  19.373
 9441TIP3   OH278790   7.329   7.763  19.312
 9441TIP3    H178791   7.321   7.668  19.321
 9441TIP3    H278792   7.374   7.776  19.229
 9442TIP3   OH278793   5.933   7.609   0.637
 9442TIP3    H178794   5.880   7.545   0.684
 9442TIP3    H278795   6.007   7.627   0.695
 9443TIP3   OH278796   6.167   7.606   0.797
 9443TIP3    H178797   6.230   7.653   0.743
 9443TIP3    H278798   6.204   7.518   0.806
 9444TIP3   OH278799   0.021   7.863  19.402
 9444TIP3    H178800   0.068   7.885  19.321
 9444TIP3    H278801   8.072   7.875  19.379
 9445TIP3   OH278802   7.829   7.703   0.340
 9445TIP3    H178803   7.870   7.750   0.267
 9445TIP3    H278804   7.736   7.700   0.317
 9446TIP3   OH278805   7.936   7.866   0.153
 9446TIP3    H178806   7.981   7.949   0.168
 9446TIP3    H278807   7.919   7.865   0.059
 9447TIP3   OH278808   8.118   7.615   0.056
 9447TIP3    H178809   8.066   7.570  19.462
 9447TIP3    H278810   8.133   7.702   0.020
 9448TIP3   OH278811   7.413   8.073  19.155
 9448TIP3    H178812   7.412   8.057  19.249
 9448TIP3    H278813   7.431   7.988  19.116
 9449TIP3   OH278814   7.500   7.831  18.792
 9449TIP3    H178815   7.594   7.850  18.790
 9449TIP3    H278816   7.466   7.871  18.712
 9450TIP3   OH278817   7.639   0.148  19.220
 9450TIP3    H178818   7.614   0.240  19.224
 9450TIP3    H278819   7.634   0.126  19.127
 9451TIP3   OH278820   8.102   7.814  19.117
 9451TIP3    H178821   8.007   7.820  19.126
 9451TIP3    H278822   8.123   7.725  19.146
 9452TIP3   OH278823   7.608   7.874   0.505
 9452TIP3    H178824   7.587   7.940   0.438
 9452TIP3    H278825   7.609   7.792   0.457
 9453TIP3   OH278826   0.034   7.840  18.740
 9453TIP3    H178827   0.054   7.916  18.795
 9453TIP3    H278828   0.106   7.836  18.677
 9454TIP3   OH278829   7.740   7.640   0.065
 9454TIP3    H178830   7.793   7.657  19.460
 9454TIP3    H278831   7.726   7.545   0.064
 9455TIP3   OH278832   7.626   8.068   0.694
 9455TIP3    H178833   7.627   7.993   0.635
 9455TIP3    H278834   7.715   8.103   0.689
 9456TIP3   OH278835   7.374   8.144   0.616
 9456TIP3    H178836   7.457   8.119   0.658
 9456TIP3    H278837   7.314   8.073   0.640
 9457TIP3   OH278838   7.646   7.874   0.180
 9457TIP3    H178839   7.675   7.795   0.135
 9457TIP3    H278840   7.727   7.912   0.215
 9458TIP3   OH278841   7.425   7.818  19.056
 9458TIP3    H178842   7.336   7.813  19.021
 9458TIP3    H278843   7.482   7.813  18.978
 9459TIP3   OH278844   7.558   7.648   0.353
 9459TIP3    H178845   7.516   7.564   0.369
 9459TIP3    H278846   7.493   7.698   0.302
 9460TIP3   OH278847   7.952   7.472  19.360
 9460TIP3    H178848   7.908   7.531  19.299
 9460TIP3    H278849   8.002   7.413  19.305
 9461TIP3   OH278850   7.500   7.551  18.800
 9461TIP3    H178851   7.581   7.573  18.755
 9461TIP3    H278852   7.449   7.632  18.799
 9462TIP3   OH278853   8.027   7.739  18.545
 9462TIP3    H178854   8.084   7.699  18.480
 9462TIP3    H278855   8.086   7.768  18.614
 9463TIP3   OH278856   7.936   7.624   0.568
 9463TIP3    H178857   7.885   7.651   0.491
 9463TIP3    H278858   8.025   7.654   0.549
 9464TIP3   OH278859   8.047   7.526   0.797
 9464TIP3    H178860   8.124   7.479   0.764
 9464TIP3    H278861   7.998   7.550   0.719
 9465TIP3   OH278862   1.020   0.803   1.043
 9465TIP3    H178863   1.096   0.834   1.092
 9465TIP3    H278864   1.058   0.757   0.968
 9466TIP3   OH278865   1.258   0.867   1.165
 9466TIP3    H178866   1.281   0.923   1.239
 9466TIP3    H278867   1.322   0.890   1.097
 9467TIP3   OH278868   1.445   0.901   0.965
 9467TIP3    H178869   1.415   0.932   0.880
 9467TIP3    H278870   1.530   0.944   0.978
 9468TIP3   OH278871   1.000   0.370   1.023
 9468TIP3    H178872   1.005   0.373   1.119
 9468TIP3    H278873   0.931   0.306   1.005
 9469TIP3   OH278874   0.654   0.421   0.877
 9469TIP3    H178875   0.633   0.494   0.935
 9469TIP3    H278876   0.633   0.453   0.790
 9470TIP3   OH278877   0.012   0.517   1.209
 9470TIP3    H178878   0.075   0.533   1.138
 9470TIP3    H278879   8.097   0.450   1.176
 9471TIP3   OH278880   0.583   0.640   1.042
 9471TIP3    H178881   0.526   0.662   0.969
 9471TIP3    H278882   0.653   0.706   1.039
 9472TIP3   OH278883   0.786   1.437   0.947
 9472TIP3    H178884   0.768   1.356   0.899
 9472TIP3    H278885   0.760   1.418   1.037
 9473TIP3   OH278886   0.721   1.421   1.223
 9473TIP3    H178887   0.749   1.397   1.311
 9473TIP3    H278888   0.713   1.517   1.226
 9474TIP3   OH278889   0.728   1.695   1.265
 9474TIP3    H178890   0.755   1.749   1.190
 9474TIP3    H278891   0.708   1.757   1.334
 9475TIP3   OH278892   0.540   0.409   1.190
 9475TIP3    H178893   0.542   0.494   1.146
 9475TIP3    H278894   0.632   0.387   1.204
 9476TIP3   OH278895   0.149   0.603   0.987
 9476TIP3    H178896   0.178   0.685   0.947
 9476TIP3    H278897   0.157   0.537   0.918
 9477TIP3   OH278898   1.030   1.572   0.856
 9477TIP3    H178899   0.938   1.559   0.878
 9477TIP3    H278900   1.071   1.486   0.869
 9478TIP3   OH278901   0.522   1.220   0.937
 9478TIP3    H178902   0.531   1.152   1.005
 9478TIP3    H278903   0.601   1.209   0.883
 9479TIP3   OH278904   1.088   1.309   0.912
 9479TIP3    H178905   0.995   1.291   0.926
 9479TIP3    H278906   1.127   1.223   0.896
 9480TIP3   OH278907   0.599   1.012   1.113
 9480TIP3    H178908   0.637   0.999   1.200
 9480TIP3    H278909   0.651   0.956   1.055
 9481TIP3   OH278910   0.761   0.841   0.965
 9481TIP3    H178911   0.764   0.869   0.874
 9481TIP3    H278912   0.853   0.828   0.990
 9482TIP3   OH278913   1.702   1.027   0.956
 9482TIP3    H178914   1.679   1.015   0.864
 9482TIP3    H278915   1.760   1.103   0.957
 9483TIP3   OH278916   0.795   1.844   1.040
 9483TIP3    H178917   0.801   1.926   0.992
 9483TIP3    H278918   0.743   1.787   0.984
 9484TIP3   OH278919   1.865   0.882   1.144
 9484TIP3    H178920   1.806   0.932   1.087
 9484TIP3    H278921   1.860   0.927   1.228
 9485TIP3   OH278922   0.178   0.132   1.179
 9485TIP3    H178923   0.234   0.185   1.123
 9485TIP3    H278924   0.095   0.127   1.132
 9486TIP3   OH278925   0.369   0.261   1.018
 9486TIP3    H178926   0.423   0.209   0.958
 9486TIP3    H278927   0.432   0.305   1.075
 9487TIP3   OH278928   0.391   1.795   0.968
 9487TIP3    H178929   0.326   1.744   1.016
 9487TIP3    H278930   0.463   1.734   0.954
 9488TIP3   OH278931   3.694   1.476   1.019
 9488TIP3    H178932   3.688   1.494   1.113
 9488TIP3    H278933   3.787   1.455   1.005
 9489TIP3   OH278934   3.321   1.003   0.853
 9489TIP3    H178935   3.393   0.991   0.791
 9489TIP3    H278936   3.363   1.030   0.934
 9490TIP3   OH278937   2.126   0.881   1.037
 9490TIP3    H178938   2.186   0.948   1.069
 9490TIP3    H278939   2.048   0.891   1.091
 9491TIP3   OH278940   3.279   1.404   1.008
 9491TIP3    H178941   3.292   1.433   1.099
 9491TIP3    H278942   3.193   1.361   1.009
 9492TIP3   OH278943   2.250   1.109   1.144
 9492TIP3    H178944   2.216   1.072   1.226
 9492TIP3    H278945   2.186   1.175   1.119
 9493TIP3   OH278946   1.965   0.636   1.043
 9493TIP3    H178947   2.049   0.668   1.013
 9493TIP3    H278948   1.925   0.710   1.089
 9494TIP3   OH278949   3.347   1.647   0.892
 9494TIP3    H178950   3.317   1.563   0.927
 9494TIP3    H278951   3.419   1.673   0.949
 9495TIP3   OH278952   2.403   1.135   0.891
 9495TIP3    H178953   2.387   1.125   0.985
 9495TIP3    H278954   2.496   1.157   0.885
 9496TIP3   OH278955   3.038   1.254   0.936
 9496TIP3    H178956   3.020   1.285   0.848
 9496TIP3    H278957   3.041   1.159   0.929
 9497TIP3   OH278958   3.607   1.063   0.946
 9497TIP3    H178959   3.593   1.019   0.862
 9497TIP3    H278960   3.577   1.153   0.930
 9498TIP3   OH278961   2.026   1.269   1.084
 9498TIP3    H178962   2.015   1.362   1.063
 9498TIP3    H278963   2.003   1.223   1.004
 9499TIP3   OH278964   3.724   0.904   1.147
 9499TIP3    H178965   3.668   0.961   1.093
 9499TIP3    H278966   3.699   0.925   1.237
 9500TIP3   OH278967   5.405   0.114   1.205
 9500TIP3    H178968   5.375   0.024   1.214
 9500TIP3    H278969   5.420   0.124   1.111
 9501TIP3   OH278970   5.562   1.549   0.946
 9501TIP3    H178971   5.581   1.629   0.996
 9501TIP3    H278972   5.637   1.492   0.964
 9502TIP3   OH278973   5.108   1.772   1.074
 9502TIP3    H178974   5.164   1.712   1.026
 9502TIP3    H278975   5.140   1.769   1.164
 9503TIP3   OH278976   4.285   0.696   1.130
 9503TIP3    H178977   4.221   0.627   1.112
 9503TIP3    H278978   4.335   0.703   1.048
 9504TIP3   OH278979   3.922   0.926   0.962
 9504TIP3    H178980   3.968   0.993   1.012
 9504TIP3    H278981   3.852   0.896   1.020
 9505TIP3   OH278982   5.595   1.802   1.068
 9505TIP3    H178983   5.615   1.864   0.998
 9505TIP3    H278984   5.537   1.850   1.127
 9506TIP3   OH278985   4.539   1.425   0.918
 9506TIP3    H178986   4.545   1.345   0.866
 9506TIP3    H278987   4.516   1.395   1.006
 9507TIP3   OH278988   4.484   1.375   1.189
 9507TIP3    H178989   4.483   1.332   1.275
 9507TIP3    H278990   4.544   1.450   1.200
 9508TIP3   OH278991   4.015   1.132   1.120
 9508TIP3    H178992   3.984   1.102   1.205
 9508TIP3    H278993   4.096   1.180   1.139
 9509TIP3   OH278994   4.661   1.570   1.251
 9509TIP3    H178995   4.619   1.618   1.322
 9509TIP3    H278996   4.720   1.634   1.210
 9510TIP3   OH278997   4.225   1.325   1.116
 9510TIP3    H178998   4.307   1.367   1.141
 9510TIP3    H278999   4.249   1.264   1.047
 9511TIP3   OH279000   4.760   1.595   0.914
 9511TIP3    H179001   4.680   1.542   0.912
 9511TIP3    H279002   4.829   1.533   0.937
 9512TIP3   OH279003   5.286   1.604   0.954
 9512TIP3    H179004   5.250   1.528   1.000
 9512TIP3    H279005   5.376   1.579   0.934
 9513TIP3   OH279006   4.338   1.145   0.946
 9513TIP3    H179007   4.357   1.081   1.015
 9513TIP3    H279008   4.419   1.150   0.895
 9514TIP3   OH279009   4.895   1.362   1.009
 9514TIP3    H179010   4.859   1.347   1.097
 9514TIP3    H279011   4.840   1.309   0.952
 9515TIP3   OH279012   4.375   0.971   1.155
 9515TIP3    H179013   4.388   0.993   1.248
 9515TIP3    H279014   4.336   0.884   1.156
 9516TIP3   OH279015   4.462   0.741   0.892
 9516TIP3    H179016   4.507   0.803   0.835
 9516TIP3    H279017   4.529   0.709   0.952
 9517TIP3   OH279018   3.965   1.380   0.987
 9517TIP3    H179019   4.050   1.397   1.026
 9517TIP3    H279020   3.945   1.290   1.012
 9518TIP3   OH279021   5.302   0.478   1.018
 9518TIP3    H179022   5.392   0.448   1.017
 9518TIP3    H279023   5.252   0.407   0.977
 9519TIP3   OH279024   5.558   0.363   1.015
 9519TIP3    H179025   5.525   0.279   0.982
 9519TIP3    H279026   5.639   0.341   1.060
 9520TIP3   OH279027   4.833   1.752   1.130
 9520TIP3    H179028   4.925   1.772   1.113
 9520TIP3    H279029   4.799   1.722   1.046
 9521TIP3   OH279030   7.435   1.524   0.958
 9521TIP3    H179031   7.454   1.610   0.995
 9521TIP3    H279032   7.471   1.462   1.020
 9522TIP3   OH279033   6.647   0.374   1.054
 9522TIP3    H179034   6.570   0.429   1.039
 9522TIP3    H279035   6.629   0.294   1.004
 9523TIP3   OH279036   6.400   0.483   0.984
 9523TIP3    H179037   6.342   0.510   1.055
 9523TIP3    H279038   6.348   0.421   0.932
 9524TIP3   OH279039   5.893   0.468   1.230
 9524TIP3    H179040   5.879   0.533   1.161
 9524TIP3    H279041   5.852   0.388   1.196
 9525TIP3   OH279042   6.903   0.472   1.045
 9525TIP3    H179043   6.814   0.445   1.064
 9525TIP3    H279044   6.932   0.517   1.124
 9526TIP3   OH279045   7.045   0.627   1.224
 9526TIP3    H179046   7.103   0.570   1.275
 9526TIP3    H279047   7.103   0.681   1.172
 9527TIP3   OH279048   7.446   0.658   1.238
 9527TIP3    H179049   7.403   0.636   1.155
 9527TIP3    H279050   7.428   0.752   1.250
 9528TIP3   OH279051   5.836   0.899   1.024
 9528TIP3    H179052   5.894   0.962   1.067
 9528TIP3    H279053   5.748   0.933   1.042
 9529TIP3   OH279054   7.480   1.770   1.058
 9529TIP3    H179055   7.518   1.816   1.133
 9529TIP3    H279056   7.475   1.837   0.990
 9530TIP3   OH279057   5.974   1.099   1.152
 9530TIP3    H179058   5.929   1.091   1.237
 9530TIP3    H279059   5.990   1.192   1.142
 9531TIP3   OH279060   6.225   0.515   1.201
 9531TIP3    H179061   6.212   0.581   1.268
 9531TIP3    H279062   6.228   0.432   1.249
 9532TIP3   OH279063   6.017   1.371   1.149
 9532TIP3    H179064   6.050   1.379   1.239
 9532TIP3    H279065   6.047   1.451   1.106
 9533TIP3   OH279066   5.822   0.626   1.021
 9533TIP3    H179067   5.834   0.721   1.024
 9533TIP3    H279068   5.767   0.610   0.945
 9534TIP3   OH279069   7.114   1.588   0.968
 9534TIP3    H179070   7.123   1.574   1.062
 9534TIP3    H279071   7.100   1.682   0.959
 9535TIP3   OH279072   6.429   0.837   0.913
 9535TIP3    H179073   6.378   0.764   0.877
 9535TIP3    H279074   6.520   0.811   0.901
 9536TIP3   OH279075   7.373   1.013   0.954
 9536TIP3    H179076   7.381   1.002   0.859
 9536TIP3    H279077   7.299   1.073   0.965
 9537TIP3   OH279078   6.444   1.870   1.130
 9537TIP3    H179079   6.514   1.888   1.068
 9537TIP3    H279080   6.363   1.883   1.080
 9538TIP3   OH279081   5.793   1.373   0.971
 9538TIP3    H179082   5.853   1.362   1.045
 9538TIP3    H279083   5.781   1.284   0.937
 9539TIP3   OH279084   7.431   0.941   1.215
 9539TIP3    H179085   7.380   0.964   1.137
 9539TIP3    H279086   7.521   0.931   1.183
 9540TIP3   OH279087   7.323   0.634   0.993
 9540TIP3    H179088   7.329   0.686   0.913
 9540TIP3    H279089   7.291   0.549   0.963
 9541TIP3   OH279090   7.231   0.382   0.916
 9541TIP3    H179091   7.223   0.341   1.002
 9541TIP3    H279092   7.149   0.362   0.872
 9542TIP3   OH279093   7.512   0.297   1.084
 9542TIP3    H179094   7.515   0.276   0.991
 9542TIP3    H279095   7.528   0.391   1.089
 9543TIP3   OH279096   5.767   0.239   1.154
 9543TIP3    H179097   5.795   0.153   1.124
 9543TIP3    H279098   5.716   0.222   1.233
 9544TIP3   OH279099   6.077   0.363   0.996
 9544TIP3    H179100   6.038   0.288   1.040
 9544TIP3    H279101   6.097   0.425   1.066
 9545TIP3   OH279102   6.006   1.811   0.943
 9545TIP3    H179103   5.972   1.859   1.019
 9545TIP3    H279104   6.045   1.732   0.981
 9546TIP3   OH279105   8.044   0.743   1.054
 9546TIP3    H179106   8.045   0.708   0.965
 9546TIP3    H279107   8.108   0.690   1.101
 9547TIP3   OH279108   7.799   0.685   1.173
 9547TIP3    H179109   7.887   0.699   1.138
 9547TIP3    H279110   7.750   0.763   1.145
 9548TIP3   OH279111   7.845   1.278   1.415
 9548TIP3    H179112   7.816   1.196   1.374
 9548TIP3    H279113   7.895   1.322   1.346
 9549TIP3   OH279114   8.056   1.623   1.037
 9549TIP3    H179115   8.020   1.570   1.107
 9549TIP3    H279116   8.056   1.565   0.961
 9550TIP3   OH279117   7.685   0.587   0.936
 9550TIP3    H179118   7.705   0.619   1.024
 9550TIP3    H279119   7.715   0.496   0.937
 9551TIP3   OH279120   8.019   1.447   0.823
 9551TIP3    H179121   8.028   1.362   0.866
 9551TIP3    H279122   8.070   1.438   0.742
 9552TIP3   OH279123   7.493   1.278   1.088
 9552TIP3    H179124   7.526   1.210   1.146
 9552TIP3    H279125   7.521   1.251   1.001
 9553TIP3   OH279126   7.907   1.856   1.069
 9553TIP3    H179127   7.876   1.833   1.156
 9553TIP3    H279128   7.971   1.789   1.047
 9554TIP3   OH279129   1.076   2.729   0.969
 9554TIP3    H179130   1.102   2.731   1.061
 9554TIP3    H279131   1.133   2.664   0.929
 9555TIP3   OH279132   1.272   2.718   1.181
 9555TIP3    H179133   1.244   2.780   1.249
 9555TIP3    H279134   1.324   2.770   1.121
 9556TIP3   OH279135   1.756   3.375   1.079
 9556TIP3    H179136   1.746   3.390   1.173
 9556TIP3    H279137   1.681   3.320   1.055
 9557TIP3   OH279138   1.417   2.827   0.973
 9557TIP3    H179139   1.383   2.854   0.887
 9557TIP3    H279140   1.511   2.844   0.967
 9558TIP3   OH279141   1.319   2.450   1.213
 9558TIP3    H179142   1.413   2.448   1.233
 9558TIP3    H279143   1.298   2.543   1.208
 9559TIP3   OH279144   1.071   3.174   1.178
 9559TIP3    H179145   1.071   3.209   1.267
 9559TIP3    H279146   1.018   3.095   1.184
 9560TIP3   OH279147   1.781   2.585   1.163
 9560TIP3    H179148   1.735   2.568   1.081
 9560TIP3    H279149   1.777   2.680   1.175
 9561TIP3   OH279150   1.888   3.666   1.044
 9561TIP3    H179151   1.948   3.725   1.090
 9561TIP3    H279152   1.847   3.721   0.977
 9562TIP3   OH279153   0.739   3.341   0.935
 9562TIP3    H179154   0.761   3.260   0.889
 9562TIP3    H279155   0.729   3.315   1.026
 9563TIP3   OH279156   0.678   3.251   1.189
 9563TIP3    H179157   0.665   3.157   1.194
 9563TIP3    H279158   0.688   3.280   1.280
 9564TIP3   OH279159   0.418   3.226   1.080
 9564TIP3    H179160   0.496   3.275   1.105
 9564TIP3    H279161   0.447   3.134   1.076
 9565TIP3   OH279162   1.107   3.214   0.902
 9565TIP3    H179163   1.089   3.203   0.996
 9565TIP3    H279164   1.090   3.128   0.865
 9566TIP3   OH279165   0.145   3.214   1.094
 9566TIP3    H179166   0.240   3.227   1.095
 9566TIP3    H279167   0.126   3.192   1.003
 9567TIP3   OH279168   1.650   2.539   0.923
 9567TIP3    H179169   1.636   2.567   0.832
 9567TIP3    H279170   1.635   2.444   0.921
 9568TIP3   OH279171   1.597   2.271   0.862
 9568TIP3    H179172   1.661   2.228   0.806
 9568TIP3    H279173   1.512   2.248   0.824
 9569TIP3   OH279174   0.356   3.594   0.980
 9569TIP3    H179175   0.330   3.514   1.025
 9569TIP3    H279176   0.442   3.575   0.944
 9570TIP3   OH279177   2.953   2.707   1.040
 9570TIP3    H179178   2.974   2.694   1.133
 9570TIP3    H279179   3.025   2.665   0.993
 9571TIP3   OH279180   3.268   2.877   0.987
 9571TIP3    H179181   3.292   2.834   0.905
 9571TIP3    H279182   3.349   2.922   1.014
 9572TIP3   OH279183   2.924   2.263   1.061
 9572TIP3    H179184   2.956   2.182   1.101
 9572TIP3    H279185   2.837   2.240   1.027
 9573TIP3   OH279186   3.172   2.373   1.036
 9573TIP3    H179187   3.082   2.345   1.054
 9573TIP3    H279188   3.198   2.421   1.115
 9574TIP3   OH279189   3.259   2.572   1.213
 9574TIP3    H179190   3.331   2.540   1.268
 9574TIP3    H279191   3.303   2.614   1.139
 9575TIP3   OH279192   2.544   3.274   1.192
 9575TIP3    H179193   2.557   3.184   1.223
 9575TIP3    H279194   2.583   3.329   1.261
 9576TIP3   OH279195   2.318   3.215   1.035
 9576TIP3    H179196   2.394   3.251   1.081
 9576TIP3    H279197   2.329   3.120   1.041
 9577TIP3   OH279198   2.735   2.694   0.879
 9577TIP3    H179199   2.723   2.782   0.843
 9577TIP3    H279200   2.807   2.703   0.942
 9578TIP3   OH279201   3.539   2.970   0.980
 9578TIP3    H179202   3.559   2.937   0.892
 9578TIP3    H279203   3.541   3.065   0.971
 9579TIP3   OH279204   2.062   3.249   0.957
 9579TIP3    H179205   2.150   3.244   0.995
 9579TIP3    H279206   2.038   3.159   0.938
 9580TIP3   OH279207   3.679   2.796   1.159
 9580TIP3    H179208   3.628   2.861   1.112
 9580TIP3    H279209   3.703   2.838   1.242
 9581TIP3   OH279210   3.470   2.541   1.002
 9581TIP3    H179211   3.504   2.592   0.929
 9581TIP3    H279212   3.476   2.450   0.974
 9582TIP3   OH279213   3.489   2.269   0.946
 9582TIP3    H179214   3.465   2.246   1.036
 9582TIP3    H279215   3.418   2.233   0.893
 9583TIP3   OH279216   2.005   1.882   1.201
 9583TIP3    H179217   2.055   1.949   1.155
 9583TIP3    H279218   1.992   1.918   1.289
 9584TIP3   OH279219   2.162   3.564   1.012
 9584TIP3    H179220   2.164   3.592   1.103
 9584TIP3    H279221   2.254   3.568   0.983
 9585TIP3   OH279222   4.795   2.719   0.961
 9585TIP3    H179223   4.793   2.746   1.053
 9585TIP3    H279224   4.872   2.663   0.954
 9586TIP3   OH279225   5.126   2.724   1.210
 9586TIP3    H179226   5.035   2.746   1.230
 9586TIP3    H279227   5.142   2.765   1.125
 9587TIP3   OH279228   5.467   2.015   1.223
 9587TIP3    H179229   5.385   2.062   1.239
 9587TIP3    H279230   5.516   2.072   1.165
 9588TIP3   OH279231   5.204   2.782   0.940
 9588TIP3    H179232   5.201   2.802   0.847
 9588TIP3    H279233   5.285   2.824   0.971
 9589TIP3   OH279234   4.699   2.309   1.133
 9589TIP3    H179235   4.657   2.394   1.146
 9589TIP3    H279236   4.630   2.254   1.096
 9590TIP3   OH279237   4.977   2.335   1.055
 9590TIP3    H179238   4.889   2.328   1.092
 9590TIP3    H279239   5.030   2.367   1.128
 9591TIP3   OH279240   5.196   2.459   1.186
 9591TIP3    H179241   5.278   2.478   1.141
 9591TIP3    H279242   5.165   2.545   1.216
 9592TIP3   OH279243   5.565   2.510   1.296
 9592TIP3    H179244   5.514   2.470   1.225
 9592TIP3    H279245   5.584   2.599   1.265
 9593TIP3   OH279246   3.893   2.819   0.981
 9593TIP3    H179247   3.947   2.879   1.033
 9593TIP3    H279248   3.822   2.793   1.040
 9594TIP3   OH279249   4.582   3.347   0.932
 9594TIP3    H179250   4.585   3.266   0.882
 9594TIP3    H279251   4.547   3.322   1.017
 9595TIP3   OH279252   4.452   3.315   1.183
 9595TIP3    H179253   4.467   3.276   1.269
 9595TIP3    H279254   4.464   3.409   1.198
 9596TIP3   OH279255   4.017   3.003   1.139
 9596TIP3    H179256   4.018   2.965   1.227
 9596TIP3    H279257   4.091   3.065   1.140
 9597TIP3   OH279258   4.497   3.574   1.258
 9597TIP3    H179259   4.510   3.665   1.230
 9597TIP3    H279260   4.505   3.578   1.354
 9598TIP3   OH279261   4.209   3.205   1.095
 9598TIP3    H179262   4.285   3.248   1.135
 9598TIP3    H279263   4.244   3.156   1.021
 9599TIP3   OH279264   4.313   3.051   0.894
 9599TIP3    H179265   4.327   2.983   0.959
 9599TIP3    H279266   4.401   3.071   0.861
 9600TIP3   OH279267   4.373   2.863   1.081
 9600TIP3    H179268   4.411   2.849   1.168
 9600TIP3    H279269   4.420   2.802   1.024
 9601TIP3   OH279270   4.522   2.711   0.909
 9601TIP3    H179271   4.534   2.756   0.826
 9601TIP3    H279272   4.610   2.704   0.946
 9602TIP3   OH279273   5.452   2.925   0.971
 9602TIP3    H179274   5.458   2.916   0.876
 9602TIP3    H279275   5.422   3.015   0.984
 9603TIP3   OH279276   4.587   3.760   1.028
 9603TIP3    H179277   4.662   3.702   1.039
 9603TIP3    H279278   4.524   3.709   0.979
 9604TIP3   OH279279   3.992   3.273   0.931
 9604TIP3    H179280   4.054   3.256   1.001
 9604TIP3    H279281   3.949   3.188   0.916
 9605TIP3   OH279282   5.579   2.753   1.157
 9605TIP3    H179283   5.533   2.818   1.103
 9605TIP3    H279284   5.635   2.806   1.215
 9606TIP3   OH279285   5.433   2.485   1.048
 9606TIP3    H179286   5.477   2.564   1.017
 9606TIP3    H279287   5.422   2.431   0.970
 9607TIP3   OH279288   5.365   2.267   0.882
 9607TIP3    H179289   5.368   2.223   0.967
 9607TIP3    H279290   5.274   2.257   0.853
 9608TIP3   OH279291   5.614   2.175   1.065
 9608TIP3    H179292   5.630   2.118   0.990
 9608TIP3    H279293   5.675   2.248   1.053
 9609TIP3   OH279294   4.141   3.661   1.009
 9609TIP3    H179295   4.112   3.654   1.100
 9609TIP3    H279296   4.207   3.592   1.000
 9610TIP3   OH279297   7.027   2.765   1.179
 9610TIP3    H179298   7.054   2.821   1.252
 9610TIP3    H279299   7.054   2.813   1.101
 9611TIP3   OH279300   7.422   3.326   1.006
 9611TIP3    H179301   7.417   3.399   1.068
 9611TIP3    H279302   7.509   3.289   1.019
 9612TIP3   OH279303   7.129   2.917   0.971
 9612TIP3    H179304   7.081   2.911   0.888
 9612TIP3    H279305   7.198   2.982   0.953
 9613TIP3   OH279306   6.865   2.288   1.117
 9613TIP3    H179307   6.804   2.288   1.190
 9613TIP3    H279308   6.928   2.357   1.138
 9614TIP3   OH279309   7.053   2.494   1.148
 9614TIP3    H179310   7.147   2.486   1.136
 9614TIP3    H279311   7.039   2.587   1.166
 9615TIP3   OH279312   6.468   3.310   0.928
 9615TIP3    H179313   6.453   3.223   0.891
 9615TIP3    H279314   6.406   3.316   1.001
 9616TIP3   OH279315   6.114   3.222   1.140
 9616TIP3    H179316   6.166   3.301   1.123
 9616TIP3    H279317   6.145   3.159   1.075
 9617TIP3   OH279318   6.191   3.047   0.935
 9617TIP3    H179319   6.118   3.060   0.874
 9617TIP3    H279320   6.269   3.054   0.881
 9618TIP3   OH279321   5.915   3.248   0.909
 9618TIP3    H179322   5.937   3.241   1.002
 9618TIP3    H279323   5.852   3.178   0.894
 9619TIP3   OH279324   5.932   3.668   1.002
 9619TIP3    H179325   5.874   3.736   1.037
 9619TIP3    H279326   5.948   3.610   1.077
 9620TIP3   OH279327   7.914   3.327   1.001
 9620TIP3    H179328   7.930   3.411   1.044
 9620TIP3    H279329   7.987   3.271   1.029
 9621TIP3   OH279330   7.664   3.195   1.008
 9621TIP3    H179331   7.752   3.235   1.006
 9621TIP3    H279332   7.653   3.156   0.922
 9622TIP3   OH279333   7.585   1.957   1.232
 9622TIP3    H179334   7.675   1.980   1.208
 9622TIP3    H279335   7.533   2.032   1.203
 9623TIP3   OH279336   1.075   4.505   1.088
 9623TIP3    H179337   1.084   4.535   1.179
 9623TIP3    H279338   1.101   4.413   1.091
 9624TIP3   OH279339   1.334   4.659   1.174
 9624TIP3    H179340   1.334   4.708   1.256
 9624TIP3    H279341   1.405   4.698   1.123
 9625TIP3   OH279342   1.442   4.727   0.923
 9625TIP3    H179343   1.442   4.725   0.827
 9625TIP3    H279344   1.533   4.748   0.946
 9626TIP3   OH279345   0.729   4.261   0.924
 9626TIP3    H179346   0.696   4.215   1.001
 9626TIP3    H279347   0.651   4.296   0.881
 9627TIP3   OH279348   0.345   4.234   1.298
 9627TIP3    H179349   0.430   4.242   1.255
 9627TIP3    H279350   0.346   4.146   1.337
 9628TIP3   OH279351   0.591   4.468   1.144
 9628TIP3    H179352   0.522   4.505   1.089
 9628TIP3    H279353   0.672   4.503   1.109
 9629TIP3   OH279354   1.294   4.390   1.255
 9629TIP3    H179355   1.373   4.337   1.266
 9629TIP3    H279356   1.326   4.474   1.221
 9630TIP3   OH279357   1.790   4.427   1.262
 9630TIP3    H179358   1.736   4.399   1.189
 9630TIP3    H279359   1.823   4.513   1.237
 9631TIP3   OH279360   0.604   4.193   1.173
 9631TIP3    H179361   0.624   4.286   1.185
 9631TIP3    H279362   0.684   4.148   1.198
 9632TIP3   OH279363   0.426   4.562   0.937
 9632TIP3    H179364   0.336   4.542   0.962
 9632TIP3    H279365   0.453   4.488   0.883
 9633TIP3   OH279366   0.813   4.584   1.028
 9633TIP3    H179367   0.793   4.609   0.937
 9633TIP3    H279368   0.903   4.550   1.024
 9634TIP3   OH279369   1.708   4.800   0.948
 9634TIP3    H179370   1.749   4.734   0.894
 9634TIP3    H279371   1.716   4.881   0.898
 9635TIP3   OH279372   1.864   4.676   1.164
 9635TIP3    H179373   1.810   4.740   1.117
 9635TIP3    H279374   1.901   4.727   1.236
 9636TIP3   OH279375   1.674   4.403   1.013
 9636TIP3    H179376   1.715   4.467   0.955
 9636TIP3    H279377   1.642   4.335   0.954
 9637TIP3   OH279378   1.581   4.143   0.934
 9637TIP3    H179379   1.629   4.151   1.016
 9637TIP3    H279380   1.496   4.108   0.959
 9638TIP3   OH279381   0.129   3.625   1.161
 9638TIP3    H179382   0.208   3.646   1.111
 9638TIP3    H279383   0.137   3.676   1.241
 9639TIP3   OH279384   0.426   4.185   0.965
 9639TIP3    H179385   0.442   4.099   0.927
 9639TIP3    H279386   0.478   4.186   1.045
 9640TIP3   OH279387   3.636   5.249   1.015
 9640TIP3    H179388   3.656   5.342   1.025
 9640TIP3    H279389   3.721   5.206   1.018
 9641TIP3   OH279390   3.313   5.559   1.125
 9641TIP3    H179391   3.308   5.485   1.064
 9641TIP3    H279392   3.302   5.519   1.211
 9642TIP3   OH279393   2.783   4.085   0.976
 9642TIP3    H179394   2.716   4.113   1.039
 9642TIP3    H279395   2.865   4.090   1.026
 9643TIP3   OH279396   1.997   4.235   1.244
 9643TIP3    H179397   2.042   4.262   1.164
 9643TIP3    H279398   1.921   4.293   1.250
 9644TIP3   OH279399   2.112   4.630   1.055
 9644TIP3    H179400   2.172   4.663   1.122
 9644TIP3    H279401   2.025   4.642   1.093
 9645TIP3   OH279402   3.705   5.511   1.029
 9645TIP3    H179403   3.749   5.542   0.950
 9645TIP3    H279404   3.647   5.584   1.053
 9646TIP3   OH279405   2.688   5.091   0.882
 9646TIP3    H179406   2.693   5.093   0.786
 9646TIP3    H279407   2.601   5.057   0.901
 9647TIP3   OH279408   2.242   5.198   0.979
 9647TIP3    H179409   2.226   5.178   1.071
 9647TIP3    H279410   2.329   5.163   0.962
 9648TIP3   OH279411   2.081   4.358   1.007
 9648TIP3    H179412   2.098   4.451   1.021
 9648TIP3    H279413   2.020   4.355   0.934
 9649TIP3   OH279414   2.793   5.350   0.859
 9649TIP3    H179415   2.776   5.260   0.888
 9649TIP3    H279416   2.888   5.355   0.849
 9650TIP3   OH279417   3.350   5.330   0.965
 9650TIP3    H179418   3.428   5.307   1.016
 9650TIP3    H279419   3.384   5.356   0.879
 9651TIP3   OH279420   2.443   4.971   0.922
 9651TIP3    H179421   2.426   4.892   0.972
 9651TIP3    H279422   2.375   4.972   0.854
 9652TIP3   OH279423   3.642   4.833   0.958
 9652TIP3    H179424   3.622   4.777   0.883
 9652TIP3    H279425   3.578   4.903   0.953
 9653TIP3   OH279426   3.489   4.136   0.937
 9653TIP3    H179427   3.479   4.095   1.023
 9653TIP3    H279428   3.485   4.230   0.954
 9654TIP3   OH279429   3.708   4.029   1.119
 9654TIP3    H179430   3.717   3.958   1.055
 9654TIP3    H279431   3.720   4.109   1.068
 9655TIP3   OH279432   2.050   3.886   1.132
 9655TIP3    H179433   2.112   3.931   1.075
 9655TIP3    H279434   2.033   3.948   1.202
 9656TIP3   OH279435   2.249   4.030   0.993
 9656TIP3    H179436   2.295   3.969   0.936
 9656TIP3    H279437   2.318   4.085   1.030
 9657TIP3   OH279438   2.277   5.487   0.949
 9657TIP3    H179439   2.238   5.402   0.970
 9657TIP3    H279440   2.358   5.465   0.902
 9658TIP3   OH279441   4.915   4.607   0.987
 9658TIP3    H179442   4.945   4.637   1.073
 9658TIP3    H279443   4.982   4.544   0.959
 9659TIP3   OH279444   4.947   4.183   1.081
 9659TIP3    H179445   4.858   4.169   1.050
 9659TIP3    H279446   4.954   4.277   1.093
 9660TIP3   OH279447   5.619   4.409   1.088
 9660TIP3    H179448   5.548   4.359   1.047
 9660TIP3    H279449   5.579   4.492   1.114
 9661TIP3   OH279450   4.564   5.116   0.942
 9661TIP3    H179451   4.523   5.049   0.888
 9661TIP3    H279452   4.507   5.124   1.019
 9662TIP3   OH279453   4.385   5.119   1.157
 9662TIP3    H179454   4.341   5.047   1.112
 9662TIP3    H279455   4.357   5.111   1.248
 9663TIP3   OH279456   4.626   5.382   0.884
 9663TIP3    H179457   4.608   5.290   0.903
 9663TIP3    H279458   4.674   5.380   0.801
 9664TIP3   OH279459   4.281   4.925   0.998
 9664TIP3    H179460   4.226   4.847   1.009
 9664TIP3    H279461   4.337   4.904   0.924
 9665TIP3   OH279462   4.837   5.070   0.916
 9665TIP3    H179463   4.746   5.099   0.925
 9665TIP3    H279464   4.830   4.982   0.879
 9666TIP3   OH279465   7.461   5.280   0.966
 9666TIP3    H179466   7.485   5.364   0.926
 9666TIP3    H279467   7.544   5.232   0.972
 9667TIP3   OH279468   7.034   5.522   1.074
 9667TIP3    H179469   7.061   5.464   1.003
 9667TIP3    H279470   7.066   5.479   1.154
 9668TIP3   OH279471   6.363   4.200   0.885
 9668TIP3    H179472   6.338   4.159   0.968
 9668TIP3    H279473   6.287   4.252   0.860
 9669TIP3   OH279474   5.750   4.175   1.174
 9669TIP3    H179475   5.837   4.176   1.133
 9669TIP3    H279476   5.711   4.259   1.151
 9670TIP3   OH279477   6.196   4.426   1.083
 9670TIP3    H179478   6.154   4.403   1.000
 9670TIP3    H279479   6.262   4.491   1.060
 9671TIP3   OH279480   6.443   5.189   0.932
 9671TIP3    H179481   6.445   5.104   0.887
 9671TIP3    H279482   6.408   5.169   1.018
 9672TIP3   OH279483   6.320   5.188   1.181
 9672TIP3    H179484   6.337   5.150   1.267
 9672TIP3    H279485   6.337   5.281   1.192
 9673TIP3   OH279486   6.068   4.880   1.159
 9673TIP3    H179487   5.982   4.842   1.176
 9673TIP3    H279488   6.049   4.971   1.132
 9674TIP3   OH279489   6.670   5.381   1.264
 9674TIP3    H179490   6.575   5.387   1.273
 9674TIP3    H279491   6.684   5.359   1.171
 9675TIP3   OH279492   6.397   5.441   1.247
 9675TIP3    H179493   6.411   5.505   1.178
 9675TIP3    H279494   6.392   5.493   1.327
 9676TIP3   OH279495   6.240   4.160   1.152
 9676TIP3    H179496   6.229   4.255   1.146
 9676TIP3    H279497   6.308   4.148   1.219
 9677TIP3   OH279498   6.064   5.140   1.075
 9677TIP3    H179499   6.145   5.178   1.108
 9677TIP3    H279500   6.084   5.114   0.985
 9678TIP3   OH279501   5.868   4.503   0.996
 9678TIP3    H179502   5.916   4.517   1.078
 9678TIP3    H279503   5.784   4.468   1.024
 9679TIP3   OH279504   6.660   5.349   0.983
 9679TIP3    H179505   6.585   5.292   0.968
 9679TIP3    H279506   6.729   5.313   0.927
 9680TIP3   OH279507   7.136   5.331   0.902
 9680TIP3    H179508   7.193   5.281   0.962
 9680TIP3    H279509   7.190   5.348   0.825
 9681TIP3   OH279510   6.147   4.956   0.880
 9681TIP3    H179511   6.143   4.901   0.958
 9681TIP3    H279512   6.239   4.953   0.853
 9682TIP3   OH279513   6.343   4.802   1.157
 9682TIP3    H179514   6.250   4.824   1.166
 9682TIP3    H279515   6.346   4.737   1.087
 9683TIP3   OH279516   6.388   4.598   0.976
 9683TIP3    H179517   6.388   4.632   0.887
 9683TIP3    H279518   6.472   4.554   0.986
 9684TIP3   OH279519   6.479   5.635   1.072
 9684TIP3    H179520   6.574   5.646   1.065
 9684TIP3    H279521   6.446   5.658   0.985
 9685TIP3   OH279522   7.444   3.977   1.119
 9685TIP3    H179523   7.471   3.920   1.047
 9685TIP3    H279524   7.496   4.057   1.108
 9686TIP3   OH279525   5.788   3.894   1.070
 9686TIP3    H179526   5.857   3.958   1.052
 9686TIP3    H279527   5.747   3.924   1.150
 9687TIP3   OH279528   6.013   4.062   1.018
 9687TIP3    H179529   6.053   3.990   0.968
 9687TIP3    H279530   6.086   4.099   1.068
 9688TIP3   OH279531   6.768   5.594   1.044
 9688TIP3    H179532   6.859   5.572   1.065
 9688TIP3    H279533   6.725   5.510   1.026
 9689TIP3   OH279534   6.042   5.555   0.981
 9689TIP3    H179535   6.011   5.545   1.071
 9689TIP3    H279536   6.109   5.488   0.971
 9690TIP3   OH279537   7.705   4.650   1.024
 9690TIP3    H179538   7.746   4.736   1.037
 9690TIP3    H279539   7.685   4.619   1.112
 9691TIP3   OH279540   7.810   4.885   1.121
 9691TIP3    H179541   7.801   4.844   1.207
 9691TIP3    H279542   7.876   4.953   1.134
 9692TIP3   OH279543   7.979   5.110   1.071
 9692TIP3    H179544   8.050   5.172   1.090
 9692TIP3    H279545   8.021   5.040   1.020
 9693TIP3   OH279546   8.126   4.914   0.937
 9693TIP3    H179547   0.027   4.882   1.015
 9693TIP3    H279548   0.033   4.990   0.909
 9694TIP3   OH279549   7.712   5.134   0.964
 9694TIP3    H179550   7.794   5.127   1.013
 9694TIP3    H279551   7.693   5.044   0.937
 9695TIP3   OH279552   7.835   5.520   0.961
 9695TIP3    H179553   7.829   5.546   1.053
 9695TIP3    H279554   7.869   5.430   0.964
 9696TIP3   OH279555   1.333   6.533   1.190
 9696TIP3    H179556   1.270   6.602   1.213
 9696TIP3    H279557   1.373   6.565   1.109
 9697TIP3   OH279558   1.326   7.414   1.091
 9697TIP3    H179559   1.356   7.337   1.042
 9697TIP3    H279560   1.357   7.399   1.180
 9698TIP3   OH279561   1.430   6.672   0.972
 9698TIP3    H179562   1.409   6.662   0.879
 9698TIP3    H279563   1.526   6.673   0.974
 9699TIP3   OH279564   0.981   6.042   1.061
 9699TIP3    H179565   0.968   6.033   1.155
 9699TIP3    H279566   1.066   6.002   1.045
 9700TIP3   OH279567   0.654   5.992   0.905
 9700TIP3    H179568   0.657   5.997   1.001
 9700TIP3    H279569   0.580   5.934   0.886
 9701TIP3   OH279570   1.333   6.262   1.252
 9701TIP3    H179571   1.395   6.222   1.192
 9701TIP3    H279572   1.335   6.355   1.229
 9702TIP3   OH279573   1.073   6.940   1.200
 9702TIP3    H179574   1.031   7.024   1.190
 9702TIP3    H279575   1.089   6.932   1.295
 9703TIP3   OH279576   1.901   6.362   1.136
 9703TIP3    H179577   1.824   6.341   1.084
 9703TIP3    H279578   1.893   6.455   1.155
 9704TIP3   OH279579   1.449   6.974   1.107
 9704TIP3    H179580   1.417   6.975   1.197
 9704TIP3    H279581   1.409   6.896   1.069
 9705TIP3   OH279582   0.950   7.187   1.182
 9705TIP3    H179583   0.861   7.214   1.206
 9705TIP3    H279584   0.998   7.270   1.176
 9706TIP3   OH279585   0.713   7.322   1.243
 9706TIP3    H179586   0.735   7.411   1.215
 9706TIP3    H279587   0.705   7.327   1.338
 9707TIP3   OH279588   0.660   6.006   1.185
 9707TIP3    H179589   0.611   6.040   1.259
 9707TIP3    H279590   0.750   5.998   1.217
 9708TIP3   OH279591   1.018   7.242   0.903
 9708TIP3    H179592   0.994   7.177   0.970
 9708TIP3    H279593   1.089   7.200   0.854
 9709TIP3   OH279594   1.420   7.203   0.950
 9709TIP3    H179595   1.443   7.123   0.998
 9709TIP3    H279596   1.484   7.207   0.879
 9710TIP3   OH279597   1.127   6.920   0.920
 9710TIP3    H179598   1.109   6.906   1.013
 9710TIP3    H279599   1.120   6.833   0.881
 9711TIP3   OH279600   1.709   6.700   0.966
 9711TIP3    H179601   1.712   6.671   0.875
 9711TIP3    H279602   1.712   6.796   0.961
 9712TIP3   OH279603   0.812   7.566   1.145
 9712TIP3    H179604   0.898   7.526   1.129
 9712TIP3    H279605   0.799   7.626   1.072
 9713TIP3   OH279606   0.180   7.028   0.939
 9713TIP3    H179607   0.256   7.017   0.995
 9713TIP3    H279608   0.170   6.944   0.894
 9714TIP3   OH279609   1.875   6.638   1.185
 9714TIP3    H179610   1.815   6.660   1.114
 9714TIP3    H279611   1.958   6.680   1.161
 9715TIP3   OH279612   1.684   6.311   0.968
 9715TIP3    H179613   1.655   6.353   0.886
 9715TIP3    H279614   1.652   6.221   0.962
 9716TIP3   OH279615   1.604   6.049   0.945
 9716TIP3    H179616   1.672   6.021   1.006
 9716TIP3    H279617   1.582   5.970   0.895
 9717TIP3   OH279618   1.807   5.938   1.094
 9717TIP3    H179619   1.807   5.855   1.046
 9717TIP3    H279620   1.891   5.978   1.072
 9718TIP3   OH279621   1.049   7.440   1.092
 9718TIP3    H179622   1.144   7.450   1.103
 9718TIP3    H279623   1.040   7.387   1.013
 9719TIP3   OH279624   0.293   7.339   0.984
 9719TIP3    H179625   0.299   7.428   1.020
 9719TIP3    H279626   0.384   7.314   0.966
 9720TIP3   OH279627   2.912   6.498   1.070
 9720TIP3    H179628   2.998   6.499   1.112
 9720TIP3    H279629   2.917   6.425   1.008
 9721TIP3   OH279630   3.185   6.487   1.133
 9721TIP3    H179631   3.217   6.500   1.222
 9721TIP3    H279632   3.242   6.542   1.079
 9722TIP3   OH279633   3.533   5.720   1.091
 9722TIP3    H179634   3.454   5.668   1.100
 9722TIP3    H279635   3.515   5.800   1.141
 9723TIP3   OH279636   3.323   6.652   0.950
 9723TIP3    H179637   3.237   6.669   0.912
 9723TIP3    H279638   3.348   6.733   0.993
 9724TIP3   OH279639   2.965   6.937   1.167
 9724TIP3    H179640   2.926   7.022   1.186
 9724TIP3    H279641   2.958   6.889   1.250
 9725TIP3   OH279642   3.690   6.303   1.255
 9725TIP3    H179643   3.608   6.283   1.210
 9725TIP3    H279644   3.706   6.395   1.238
 9726TIP3   OH279645   2.859   7.176   1.240
 9726TIP3    H179646   2.850   7.189   1.334
 9726TIP3    H279647   2.888   7.261   1.207
 9727TIP3   OH279648   2.045   6.230   0.930
 9727TIP3    H179649   2.139   6.243   0.943
 9727TIP3    H279650   2.004   6.277   1.003
 9728TIP3   OH279651   2.922   7.215   0.901
 9728TIP3    H179652   2.842   7.164   0.909
 9728TIP3    H279653   2.991   7.150   0.889
 9729TIP3   OH279654   2.388   6.837   1.012
 9729TIP3    H179655   2.438   6.772   1.060
 9729TIP3    H279656   2.436   6.848   0.929
 9730TIP3   OH279657   3.029   6.951   0.900
 9730TIP3    H179658   3.012   6.948   0.994
 9730TIP3    H279659   3.038   6.859   0.875
 9731TIP3   OH279660   2.546   6.636   1.113
 9731TIP3    H179661   2.601   6.602   1.184
 9731TIP3    H279662   2.595   6.615   1.033
 9732TIP3   OH279663   3.656   6.668   0.920
 9732TIP3    H179664   3.633   6.706   0.835
 9732TIP3    H279665   3.749   6.685   0.929
 9733TIP3   OH279666   3.719   6.564   1.187
 9733TIP3    H179667   3.686   6.610   1.109
 9733TIP3    H279668   3.777   6.627   1.230
 9734TIP3   OH279669   3.532   6.337   0.963
 9734TIP3    H179670   3.627   6.324   0.957
 9734TIP3    H279671   3.495   6.248   0.963
 9735TIP3   OH279672   3.458   6.074   0.978
 9735TIP3    H179673   3.469   6.031   1.063
 9735TIP3    H279674   3.440   6.002   0.917
 9736TIP3   OH279675   2.946   7.414   1.094
 9736TIP3    H179676   3.005   7.479   1.056
 9736TIP3    H279677   2.937   7.347   1.026
 9737TIP3   OH279678   4.852   6.459   1.051
 9737TIP3    H179679   4.862   6.460   1.146
 9737TIP3    H279680   4.925   6.406   1.019
 9738TIP3   OH279681   5.338   5.698   1.161
 9738TIP3    H179682   5.286   5.771   1.194
 9738TIP3    H279683   5.418   5.738   1.128
 9739TIP3   OH279684   4.699   6.034   1.095
 9739TIP3    H179685   4.712   6.018   1.189
 9739TIP3    H279686   4.621   5.982   1.073
 9740TIP3   OH279687   3.885   6.103   1.249
 9740TIP3    H179688   3.969   6.133   1.214
 9740TIP3    H279689   3.828   6.179   1.244
 9741TIP3   OH279690   4.978   6.027   1.092
 9741TIP3    H179691   4.882   6.032   1.089
 9741TIP3    H279692   5.003   6.097   1.152
 9742TIP3   OH279693   5.083   6.244   1.256
 9742TIP3    H179694   5.169   6.208   1.281
 9742TIP3    H279695   5.097   6.280   1.169
 9743TIP3   OH279696   5.566   6.303   1.263
 9743TIP3    H179697   5.525   6.284   1.179
 9743TIP3    H279698   5.581   6.398   1.262
 9744TIP3   OH279699   3.969   6.570   1.010
 9744TIP3    H179700   4.025   6.631   1.057
 9744TIP3    H279701   3.934   6.512   1.078
 9745TIP3   OH279702   5.533   7.368   1.045
 9745TIP3    H179703   5.624   7.347   1.065
 9745TIP3    H279704   5.537   7.450   0.996
 9746TIP3   OH279705   4.098   6.730   1.188
 9746TIP3    H179706   4.047   6.725   1.269
 9746TIP3    H279707   4.175   6.782   1.211
 9747TIP3   OH279708   4.423   7.395   1.251
 9747TIP3    H179709   4.470   7.407   1.169
 9747TIP3    H279710   4.401   7.302   1.252
 9748TIP3   OH279711   4.274   7.020   1.144
 9748TIP3    H179712   4.365   7.050   1.143
 9748TIP3    H279713   4.265   6.967   1.065
 9749TIP3   OH279714   4.302   6.844   0.924
 9749TIP3    H179715   4.323   6.787   0.998
 9749TIP3    H279716   4.377   6.836   0.865
 9750TIP3   OH279717   4.413   6.711   1.142
 9750TIP3    H179718   4.416   6.701   1.237
 9750TIP3    H279719   4.468   6.639   1.108
 9751TIP3   OH279720   4.578   6.501   1.044
 9751TIP3    H179721   4.549   6.504   0.953
 9751TIP3    H279722   4.673   6.489   1.039
 9752TIP3   OH279723   4.614   7.582   1.088
 9752TIP3    H179724   4.682   7.515   1.075
 9752TIP3    H279725   4.614   7.632   1.006
 9753TIP3   OH279726   5.553   6.579   1.200
 9753TIP3    H179727   5.500   6.536   1.132
 9753TIP3    H279728   5.587   6.657   1.156
 9754TIP3   OH279729   5.446   6.309   1.006
 9754TIP3    H179730   5.437   6.339   0.915
 9754TIP3    H279731   5.405   6.222   1.007
 9755TIP3   OH279732   5.330   6.061   0.975
 9755TIP3    H179733   5.394   5.995   1.002
 9755TIP3    H279734   5.267   6.013   0.921
 9756TIP3   OH279735   5.539   5.880   1.068
 9756TIP3    H179736   5.567   5.835   0.988
 9756TIP3    H279737   5.619   5.921   1.102
 9757TIP3   OH279738   7.395   7.284   0.964
 9757TIP3    H179739   7.453   7.360   0.956
 9757TIP3    H279740   7.312   7.321   0.992
 9758TIP3   OH279741   6.398   7.114   0.931
 9758TIP3    H179742   6.347   7.037   0.903
 9758TIP3    H279743   6.406   7.103   1.026
 9759TIP3   OH279744   6.396   7.087   1.206
 9759TIP3    H179745   6.376   7.062   1.296
 9759TIP3    H279746   6.398   7.183   1.207
 9760TIP3   OH279747   6.418   7.357   1.216
 9760TIP3    H179748   6.504   7.382   1.182
 9760TIP3    H279749   6.408   7.409   1.296
 9761TIP3   OH279750   6.051   7.062   0.976
 9761TIP3    H179751   6.074   7.109   1.057
 9761TIP3    H279752   6.121   6.998   0.965
 9762TIP3   OH279753   6.242   6.870   0.901
 9762TIP3    H179754   6.171   6.856   0.839
 9762TIP3    H279755   6.314   6.816   0.868
 9763TIP3   OH279756   0.005   6.370   0.988
 9763TIP3    H179757   8.083   6.362   0.919
 9763TIP3    H279758   8.131   6.297   1.047
 9764TIP3   OH279759   7.858   6.744   1.223
 9764TIP3    H179760   7.832   6.696   1.301
 9764TIP3    H279761   7.923   6.807   1.253
 9765TIP3   OH279762   8.063   6.098   1.161
 9765TIP3    H179763   7.987   6.058   1.203
 9765TIP3    H279764   8.118   6.126   1.233
 9766TIP3   OH279765   8.051   7.163   1.037
 9766TIP3    H179766   8.003   7.189   1.116
 9766TIP3    H279767   8.015   7.078   1.013
 9767TIP3   OH279768   8.013   6.774   0.949
 9767TIP3    H179769   8.059   6.722   1.015
 9767TIP3    H279770   8.081   6.795   0.885
 9768TIP3   OH279771   7.752   6.972   1.016
 9768TIP3    H179772   7.738   7.059   1.052
 9768TIP3    H279773   7.744   6.982   0.922
 9769TIP3   OH279774   7.999   5.991   0.899
 9769TIP3    H179775   8.004   5.895   0.898
 9769TIP3    H279776   8.024   6.015   0.988
 9770TIP3   OH279777   7.790   7.346   1.002
 9770TIP3    H179778   7.718   7.378   1.056
 9770TIP3    H279779   7.862   7.334   1.063
 9771TIP3   OH279780   1.055   7.875   0.982
 9771TIP3    H179781   1.041   7.928   1.061
 9771TIP3    H279782   0.982   7.814   0.981
 9772TIP3   OH279783   0.666   7.957   0.846
 9772TIP3    H179784   0.582   7.932   0.886
 9772TIP3    H279785   0.643   7.984   0.758
 9773TIP3   OH279786   0.275   8.025   1.105
 9773TIP3    H179787   0.249   8.114   1.132
 9773TIP3    H279788   0.248   7.969   1.178
 9774TIP3   OH279789   1.330   7.921   0.992
 9774TIP3    H179790   1.235   7.916   0.989
 9774TIP3    H279791   1.351   7.943   1.082
 9775TIP3   OH279792   0.582   7.847   1.194
 9775TIP3    H179793   0.582   7.927   1.247
 9775TIP3    H279794   0.634   7.784   1.244
 9776TIP3   OH279795   1.562   7.907   0.828
 9776TIP3    H179796   1.490   7.908   0.890
 9776TIP3    H279797   1.520   7.916   0.742
 9777TIP3   OH279798   1.947   7.731   0.985
 9777TIP3    H179799   1.915   7.666   0.922
 9777TIP3    H279800   1.882   7.729   1.055
 9778TIP3   OH279801   0.315   7.591   1.076
 9778TIP3    H179802   0.267   7.657   1.027
 9778TIP3    H279803   0.372   7.641   1.135
 9779TIP3   OH279804   0.447   7.825   0.956
 9779TIP3    H179805   0.473   7.739   0.922
 9779TIP3    H279806   0.491   7.832   1.040
 9780TIP3   OH279807   2.841   7.917   1.111
 9780TIP3    H179808   2.763   7.969   1.133
 9780TIP3    H279809   2.812   7.857   1.043
 9781TIP3   OH279810   2.058   8.034   1.069
 9781TIP3    H179811   2.147   8.069   1.074
 9781TIP3    H279812   2.020   8.052   1.155
 9782TIP3   OH279813   3.113   7.959   1.062
 9782TIP3    H179814   3.018   7.949   1.071
 9782TIP3    H279815   3.144   7.971   1.152
 9783TIP3   OH279816   3.476   7.958   0.821
 9783TIP3    H179817   3.534   7.910   0.881
 9783TIP3    H279818   3.399   7.901   0.812
 9784TIP3   OH279819   4.786   7.886   1.094
 9784TIP3    H179820   4.712   7.945   1.081
 9784TIP3    H279821   4.767   7.812   1.036
 9785TIP3   OH279822   4.534   7.989   1.036
 9785TIP3    H179823   4.498   7.917   1.087
 9785TIP3    H279824   4.559   7.949   0.953
 9786TIP3   OH279825   3.852   7.893   1.255
 9786TIP3    H179826   3.772   7.936   1.223
 9786TIP3    H279827   3.864   7.927   1.343
 9787TIP3   OH279828   5.033   8.008   1.084
 9787TIP3    H179829   4.946   7.971   1.099
 9787TIP3    H279830   5.074   8.010   1.170
 9788TIP3   OH279831   4.433   7.776   1.174
 9788TIP3    H179832   4.425   7.784   1.269
 9788TIP3    H279833   4.489   7.700   1.162
 9789TIP3   OH279834   5.377   7.944   0.907
 9789TIP3    H179835   5.385   7.943   1.003
 9789TIP3    H279836   5.289   7.908   0.891
 9790TIP3   OH279837   3.897   7.696   1.070
 9790TIP3    H179838   3.992   7.700   1.054
 9790TIP3    H279839   3.881   7.762   1.138
 9791TIP3   OH279840   7.285   7.564   1.177
 9791TIP3    H179841   7.259   7.551   1.268
 9791TIP3    H279842   7.237   7.642   1.149
 9792TIP3   OH279843   6.898   7.972   1.110
 9792TIP3    H179844   6.818   7.954   1.159
 9792TIP3    H279845   6.968   7.957   1.174
 9793TIP3   OH279846   7.141   7.955   0.834
 9793TIP3    H179847   7.179   7.895   0.897
 9793TIP3    H279848   7.056   7.916   0.813
 9794TIP3   OH279849   7.216   7.827   1.078
 9794TIP3    H179850   7.282   7.895   1.091
 9794TIP3    H279851   7.149   7.845   1.144
 9795TIP3   OH279852   7.606   0.020   1.272
 9795TIP3    H179853   7.597   0.108   1.236
 9795TIP3    H279854   7.541   8.112   1.224
 9796TIP3   OH279855   0.158   7.802   0.957
 9796TIP3    H179856   0.095   7.869   0.981
 9796TIP3    H279857   0.243   7.843   0.971
 9797TIP3   OH279858   7.610   7.442   1.190
 9797TIP3    H179859   7.550   7.515   1.177
 9797TIP3    H279860   7.605   7.422   1.283
 9798TIP3   OH279861   8.020   7.593   1.053
 9798TIP3    H179862   8.009   7.554   0.966
 9798TIP3    H279863   8.097   7.649   1.045
 9799TIP3   OH279864   1.218   1.012   1.927
 9799TIP3    H179865   1.208   1.107   1.933
 9799TIP3    H279866   1.154   0.985   1.861
 9800TIP3   OH279867   1.058   0.976   2.296
 9800TIP3    H179868   1.085   0.927   2.374
 9800TIP3    H279869   1.008   0.913   2.244
 9801TIP3   OH279870   1.474   1.205   2.137
 9801TIP3    H179871   1.428   1.136   2.185
 9801TIP3    H279872   1.561   1.208   2.177
 9802TIP3   OH279873   0.452   1.325   2.270
 9802TIP3    H179874   0.455   1.230   2.263
 9802TIP3    H279875   0.543   1.352   2.274
 9803TIP3   OH279876   0.904   1.206   2.349
 9803TIP3    H179877   0.959   1.132   2.323
 9803TIP3    H279878   0.962   1.261   2.402
 9804TIP3   OH279879   0.603   0.490   2.111
 9804TIP3    H179880   0.620   0.567   2.057
 9804TIP3    H279881   0.558   0.429   2.053
 9805TIP3   OH279882   1.319   0.464   1.891
 9805TIP3    H179883   1.288   0.520   1.962
 9805TIP3    H279884   1.414   0.473   1.892
 9806TIP3   OH279885   0.691   0.849   2.137
 9806TIP3    H179886   0.775   0.816   2.169
 9806TIP3    H279887   0.667   0.788   2.066
 9807TIP3   OH279888   0.461   0.357   2.537
 9807TIP3    H179889   0.444   0.424   2.470
 9807TIP3    H279890   0.385   0.363   2.595
 9808TIP3   OH279891   1.137   1.276   1.830
 9808TIP3    H179892   1.103   1.330   1.759
 9808TIP3    H279893   1.224   1.312   1.849
 9809TIP3   OH279894   0.700   1.101   2.508
 9809TIP3    H179895   0.645   1.171   2.542
 9809TIP3    H279896   0.768   1.145   2.458
 9810TIP3   OH279897   0.445   0.534   2.332
 9810TIP3    H179898   0.441   0.625   2.362
 9810TIP3    H279899   0.516   0.533   2.267
 9811TIP3   OH279900   0.531   1.303   2.606
 9811TIP3    H179901   0.539   1.394   2.581
 9811TIP3    H279902   0.447   1.297   2.651
 9812TIP3   OH279903   0.736   0.049   2.210
 9812TIP3    H179904   0.782   0.015   2.287
 9812TIP3    H279905   0.677   0.116   2.245
 9813TIP3   OH279906   1.402   1.324   1.891
 9813TIP3    H179907   1.453   1.274   1.827
 9813TIP3    H279908   1.430   1.288   1.976
 9814TIP3   OH279909   1.662   1.292   2.628
 9814TIP3    H179910   1.609   1.215   2.606
 9814TIP3    H279911   1.752   1.261   2.621
 9815TIP3   OH279912   1.070   0.943   1.705
 9815TIP3    H179913   1.001   1.006   1.681
 9815TIP3    H279914   1.139   0.958   1.640
 9816TIP3   OH279915   1.098   0.797   1.406
 9816TIP3    H179916   1.162   0.844   1.459
 9816TIP3    H279917   1.150   0.752   1.339
 9817TIP3   OH279918   1.761   0.865   2.494
 9817TIP3    H179919   1.691   0.930   2.497
 9817TIP3    H279920   1.828   0.906   2.438
 9818TIP3   OH279921   1.435   0.897   1.799
 9818TIP3    H179922   1.368   0.934   1.857
 9818TIP3    H279923   1.494   0.850   1.857
 9819TIP3   OH279924   0.598   1.022   1.933
 9819TIP3    H179925   0.538   0.962   1.889
 9819TIP3    H279926   0.630   0.974   2.009
 9820TIP3   OH279927   0.719   1.388   2.249
 9820TIP3    H179928   0.729   1.398   2.154
 9820TIP3    H279929   0.781   1.318   2.272
 9821TIP3   OH279930   0.542   1.043   2.285
 9821TIP3    H179931   0.587   0.976   2.234
 9821TIP3    H279932   0.593   1.051   2.365
 9822TIP3   OH279933   0.686   1.321   2.839
 9822TIP3    H179934   0.638   1.400   2.864
 9822TIP3    H279935   0.650   1.299   2.753
 9823TIP3   OH279936   1.300   0.953   1.554
 9823TIP3    H179937   1.353   0.918   1.626
 9823TIP3    H279938   1.333   1.042   1.542
 9824TIP3   OH279939   0.509   1.538   2.871
 9824TIP3    H179940   0.514   1.561   2.778
 9824TIP3    H279941   0.415   1.531   2.888
 9825TIP3   OH279942   0.412   0.879   1.769
 9825TIP3    H179943   0.327   0.917   1.791
 9825TIP3    H279944   0.398   0.785   1.775
 9826TIP3   OH279945   1.820   1.493   2.941
 9826TIP3    H179946   1.810   1.503   3.036
 9826TIP3    H279947   1.747   1.544   2.904
 9827TIP3   OH279948   0.400   1.735   1.980
 9827TIP3    H179949   0.416   1.714   2.072
 9827TIP3    H279950   0.342   1.665   1.949
 9828TIP3   OH279951   1.576   0.619   2.946
 9828TIP3    H179952   1.523   0.599   2.868
 9828TIP3    H279953   1.579   0.537   2.995
 9829TIP3   OH279954   0.290   1.318   2.749
 9829TIP3    H179955   0.306   1.271   2.831
 9829TIP3    H279956   0.196   1.314   2.737
 9830TIP3   OH279957   0.530   0.191   2.327
 9830TIP3    H179958   0.453   0.218   2.277
 9830TIP3    H279959   0.526   0.244   2.407
 9831TIP3   OH279960   1.053   0.108   2.659
 9831TIP3    H179961   1.148   0.105   2.674
 9831TIP3    H279962   1.044   0.149   2.573
 9832TIP3   OH279963   0.954   0.314   1.328
 9832TIP3    H179964   0.937   0.332   1.420
 9832TIP3    H279965   0.909   0.231   1.310
 9833TIP3   OH279966   0.606   0.692   1.927
 9833TIP3    H179967   0.511   0.685   1.915
 9833TIP3    H279968   0.643   0.662   1.844
 9834TIP3   OH279969   1.107   0.691   1.799
 9834TIP3    H179970   1.083   0.778   1.768
 9834TIP3    H279971   1.188   0.670   1.752
 9835TIP3   OH279972   1.026   0.717   2.953
 9835TIP3    H179973   0.986   0.635   2.980
 9835TIP3    H279974   1.114   0.715   2.991
 9836TIP3   OH279975   1.202   0.673   2.057
 9836TIP3    H179976   1.213   0.765   2.080
 9836TIP3    H279977   1.154   0.674   1.974
 9837TIP3   OH279978   0.124   0.501   1.939
 9837TIP3    H179979   0.163   0.483   2.025
 9837TIP3    H279980   0.118   0.415   1.898
 9838TIP3   OH279981   0.202   0.425   1.592
 9838TIP3    H179982   0.269   0.422   1.524
 9838TIP3    H279983   0.128   0.470   1.551
 9839TIP3   OH279984   1.145   0.812   2.491
 9839TIP3    H179985   1.233   0.778   2.504
 9839TIP3    H279986   1.093   0.775   2.562
 9840TIP3   OH279987   0.864   0.390   2.018
 9840TIP3    H179988   0.807   0.421   2.088
 9840TIP3    H279989   0.933   0.340   2.062
 9841TIP3   OH279990   0.358   0.612   1.842
 9841TIP3    H179991   0.269   0.590   1.866
 9841TIP3    H279992   0.402   0.528   1.828
 9842TIP3   OH279993   0.641   0.576   1.670
 9842TIP3    H179994   0.735   0.568   1.689
 9842TIP3    H279995   0.638   0.635   1.594
 9843TIP3   OH279996   0.625   0.743   1.444
 9843TIP3    H179997   0.555   0.732   1.380
 9843TIP3    H279998   0.702   0.764   1.391
 9844TIP3   OH279999   1.613   1.886   2.989
 9844TIP3    H180000   1.628   1.922   2.901
 9844TIP3    H280001   1.689   1.915   3.039
 9845TIP3   OH280002   0.311   1.203   3.004
 9845TIP3    H180003   0.394   1.194   3.052
 9845TIP3    H280004   0.268   1.119   3.015
 9846TIP3   OH280005   0.932   0.728   2.220
 9846TIP3    H180006   1.003   0.669   2.194
 9846TIP3    H280007   0.898   0.689   2.301
 9847TIP3   OH280008   0.489   0.339   1.906
 9847TIP3    H180009   0.417   0.277   1.918
 9847TIP3    H280010   0.568   0.285   1.904
 9848TIP3   OH280011   0.818   0.645   2.462
 9848TIP3    H180012   0.744   0.694   2.498
 9848TIP3    H280013   0.884   0.647   2.532
 9849TIP3   OH280014   0.853   1.106   1.663
 9849TIP3    H180015   0.788   1.035   1.669
 9849TIP3    H280016   0.847   1.151   1.747
 9850TIP3   OH280017   1.579   1.071   2.467
 9850TIP3    H180018   1.634   1.128   2.413
 9850TIP3    H280019   1.498   1.063   2.417
 9851TIP3   OH280020   1.057   1.215   2.786
 9851TIP3    H180021   1.047   1.147   2.853
 9851TIP3    H280022   1.050   1.297   2.835
 9852TIP3   OH280023   0.824   0.909   2.969
 9852TIP3    H180024   0.795   0.911   2.878
 9852TIP3    H280025   0.903   0.856   2.968
 9853TIP3   OH280026   1.808   1.201   2.883
 9853TIP3    H180027   1.773   1.289   2.897
 9853TIP3    H280028   1.850   1.205   2.798
 9854TIP3   OH280029   1.350   1.006   2.313
 9854TIP3    H180030   1.257   1.019   2.294
 9854TIP3    H280031   1.355   0.926   2.364
 9855TIP3   OH280032   0.651   1.475   1.980
 9855TIP3    H180033   0.674   1.555   1.933
 9855TIP3    H280034   0.574   1.498   2.032
 9856TIP3   OH280035   0.657   1.255   1.808
 9856TIP3    H180036   0.660   1.329   1.869
 9856TIP3    H280037   0.633   1.181   1.863
 9857TIP3   OH280038   0.807   1.660   2.626
 9857TIP3    H180039   0.870   1.672   2.554
 9857TIP3    H280040   0.861   1.660   2.705
 9858TIP3   OH280041   0.651   1.731   1.857
 9858TIP3    H180042   0.561   1.740   1.888
 9858TIP3    H280043   0.691   1.816   1.874
 9859TIP3   OH280044   0.238   0.372   2.704
 9859TIP3    H180045   0.255   0.392   2.797
 9859TIP3    H280046   0.189   0.289   2.706
 9860TIP3   OH280047   1.529   1.145   1.710
 9860TIP3    H180048   1.505   1.059   1.744
 9860TIP3    H280049   1.623   1.138   1.693
 9861TIP3   OH280050   0.222   1.604   2.553
 9861TIP3    H180051   0.288   1.540   2.579
 9861TIP3    H280052   0.256   1.688   2.583
 9862TIP3   OH280053   0.770   1.416   1.516
 9862TIP3    H180054   0.862   1.410   1.543
 9862TIP3    H280055   0.747   1.508   1.529
 9863TIP3   OH280056   1.044   0.442   2.624
 9863TIP3    H180057   1.086   0.392   2.694
 9863TIP3    H280058   1.041   0.382   2.550
 9864TIP3   OH280059   1.217   0.301   1.694
 9864TIP3    H180060   1.219   0.364   1.622
 9864TIP3    H280061   1.257   0.347   1.768
 9865TIP3   OH280062   1.033   1.441   1.599
 9865TIP3    H180063   1.030   1.531   1.629
 9865TIP3    H280064   1.095   1.442   1.526
 9866TIP3   OH280065   0.890   0.524   1.776
 9866TIP3    H180066   0.964   0.584   1.786
 9866TIP3    H280067   0.881   0.482   1.861
 9867TIP3   OH280068   0.987   0.697   2.683
 9867TIP3    H180069   1.002   0.712   2.776
 9867TIP3    H280070   1.009   0.605   2.669
 9868TIP3   OH280071   1.006   0.167   1.805
 9868TIP3    H180072   1.013   0.180   1.900
 9868TIP3    H280073   1.084   0.209   1.770
 9869TIP3   OH280074   0.747   1.688   1.594
 9869TIP3    H180075   0.736   1.776   1.557
 9869TIP3    H280076   0.716   1.697   1.684
 9870TIP3   OH280077   0.604   0.305   1.590
 9870TIP3    H180078   0.585   0.386   1.637
 9870TIP3    H280079   0.700   0.304   1.582
 9871TIP3   OH280080   0.516   1.224   1.400
 9871TIP3    H180081   0.525   1.268   1.316
 9871TIP3    H280082   0.461   1.147   1.381
 9872TIP3   OH280083   0.275   0.174   2.212
 9872TIP3    H180084   0.286   0.164   2.117
 9872TIP3    H280085   0.281   0.085   2.247
 9873TIP3   OH280086   0.118   1.721   3.081
 9873TIP3    H180087   0.194   1.753   3.129
 9873TIP3    H280088   0.152   1.648   3.029
 9874TIP3   OH280089   0.562   1.601   3.135
 9874TIP3    H180090   0.640   1.551   3.161
 9874TIP3    H280091   0.554   1.586   3.041
 9875TIP3   OH280092   1.188   1.506   3.043
 9875TIP3    H180093   1.192   1.418   3.081
 9875TIP3    H280094   1.274   1.543   3.061
 9876TIP3   OH280095   0.779   1.181   3.051
 9876TIP3    H180096   0.759   1.223   2.967
 9876TIP3    H280097   0.811   1.094   3.026
 9877TIP3   OH280098   1.333   1.178   2.767
 9877TIP3    H180099   1.364   1.268   2.760
 9877TIP3    H280100   1.238   1.185   2.754
 9878TIP3   OH280101   0.201   0.960   3.105
 9878TIP3    H180102   0.210   0.872   3.068
 9878TIP3    H280103   0.205   0.948   3.199
 9879TIP3   OH280104   0.610   0.984   1.599
 9879TIP3    H180105   0.540   0.956   1.658
 9879TIP3    H280106   0.620   0.911   1.538
 9880TIP3   OH280107   0.541   0.771   2.718
 9880TIP3    H180108   0.475   0.840   2.726
 9880TIP3    H280109   0.624   0.819   2.712
 9881TIP3   OH280110   0.840   0.824   1.294
 9881TIP3    H180111   0.872   0.827   1.204
 9881TIP3    H280112   0.919   0.820   1.347
 9882TIP3   OH280113   1.122   1.027   3.051
 9882TIP3    H180114   1.209   1.002   3.019
 9882TIP3    H280115   1.100   0.961   3.116
 9883TIP3   OH280116   0.647   0.546   2.846
 9883TIP3    H180117   0.686   0.487   2.781
 9883TIP3    H280118   0.617   0.621   2.794
 9884TIP3   OH280119   0.722   0.399   2.622
 9884TIP3    H180120   0.780   0.432   2.554
 9884TIP3    H280121   0.636   0.394   2.579
 9885TIP3   OH280122   0.778   0.901   2.689
 9885TIP3    H180123   0.862   0.864   2.664
 9885TIP3    H280124   0.764   0.973   2.627
 9886TIP3   OH280125   1.252   0.664   3.105
 9886TIP3    H180126   1.251   0.583   3.156
 9886TIP3    H280127   1.344   0.675   3.078
 9887TIP3   OH280128   1.385   0.992   2.963
 9887TIP3    H180129   1.366   1.055   2.893
 9887TIP3    H280130   1.479   0.973   2.953
 9888TIP3   OH280131   0.495   0.594   3.065
 9888TIP3    H180132   0.444   0.671   3.039
 9888TIP3    H280133   0.551   0.576   2.990
 9889TIP3   OH280134   0.710   0.120   2.650
 9889TIP3    H180135   0.749   0.207   2.644
 9889TIP3    H280136   0.617   0.134   2.628
 9890TIP3   OH280137   0.930   0.473   3.029
 9890TIP3    H180138   0.934   0.437   3.118
 9890TIP3    H280139   0.840   0.458   3.001
 9891TIP3   OH280140   1.201   0.413   2.870
 9891TIP3    H180141   1.123   0.430   2.923
 9891TIP3    H280142   1.261   0.367   2.929
 9892TIP3   OH280143   1.340   0.291   3.080
 9892TIP3    H180144   1.351   0.197   3.099
 9892TIP3    H280145   1.299   0.326   3.159
 9893TIP3   OH280146   0.207   0.427   3.079
 9893TIP3    H180147   0.301   0.412   3.076
 9893TIP3    H280148   0.198   0.513   3.121
 9894TIP3   OH280149   0.762   0.046   2.917
 9894TIP3    H180150   0.841   8.138   2.928
 9894TIP3    H280151   0.764   0.074   2.825
 9895TIP3   OH280152   0.837   0.184   3.166
 9895TIP3    H180153   0.832   0.127   3.089
 9895TIP3    H280154   0.767   0.249   3.152
 9896TIP3   OH280155   0.720   1.953   1.482
 9896TIP3    H180156   0.753   1.995   1.561
 9896TIP3    H280157   0.740   2.015   1.412
 9897TIP3   OH280158   1.649   1.294   3.205
 9897TIP3    H180159   1.568   1.312   3.251
 9897TIP3    H280160   1.701   1.373   3.215
 9898TIP3   OH280161   1.803   1.087   1.671
 9898TIP3    H180162   1.872   1.154   1.673
 9898TIP3    H280163   1.824   1.028   1.743
 9899TIP3   OH280164   1.840   0.896   1.872
 9899TIP3    H180165   1.762   0.856   1.910
 9899TIP3    H280166   1.892   0.923   1.948
 9900TIP3   OH280167   1.767   1.211   2.325
 9900TIP3    H180168   1.832   1.140   2.325
 9900TIP3    H280169   1.818   1.291   2.336
 9901TIP3   OH280170   1.683   1.565   2.602
 9901TIP3    H180171   1.665   1.595   2.691
 9901TIP3    H280172   1.679   1.469   2.607
 9902TIP3   OH280173   1.820   0.974   1.417
 9902TIP3    H180174   1.727   0.957   1.409
 9902TIP3    H280175   1.829   1.017   1.503
 9903TIP3   OH280176   1.618   0.745   1.961
 9903TIP3    H180177   1.617   0.657   1.924
 9903TIP3    H280178   1.631   0.731   2.055
 9904TIP3   OH280179   1.660   0.975   2.944
 9904TIP3    H180180   1.712   0.901   2.913
 9904TIP3    H280181   1.707   1.052   2.913
 9905TIP3   OH280182   1.814   0.752   2.896
 9905TIP3    H180183   1.737   0.697   2.911
 9905TIP3    H280184   1.875   0.727   2.966
 9906TIP3   OH280185   0.002   0.455   2.870
 9906TIP3    H180186   0.065   0.443   2.941
 9906TIP3    H280187   8.061   0.438   2.911
 9907TIP3   OH280188   1.865   0.158   3.053
 9907TIP3    H180189   1.899   0.072   3.028
 9907TIP3    H280190   1.782   0.166   3.006
 9908TIP3   OH280191   0.238   0.443   2.180
 9908TIP3    H180192   0.238   0.349   2.197
 9908TIP3    H280193   0.312   0.477   2.231
 9909TIP3   OH280194   0.116   0.270   1.794
 9909TIP3    H180195   0.035   0.240   1.754
 9909TIP3    H280196   0.155   0.328   1.729
 9910TIP3   OH280197   0.034   0.192   2.676
 9910TIP3    H180198   8.120   0.141   2.732
 9910TIP3    H280199   0.030   0.149   2.591
 9911TIP3   OH280200   0.241   1.501   2.967
 9911TIP3    H180201   0.198   1.457   2.894
 9911TIP3    H280202   0.273   1.430   3.022
 9912TIP3   OH280203   0.544   1.585   2.596
 9912TIP3    H180204   0.514   1.654   2.537
 9912TIP3    H280205   0.637   1.603   2.609
 9913TIP3   OH280206   0.967   1.692   2.865
 9913TIP3    H180207   0.939   1.671   2.954
 9913TIP3    H280208   1.061   1.675   2.866
 9914TIP3   OH280209   0.275   1.863   2.641
 9914TIP3    H180210   0.212   1.929   2.614
 9914TIP3    H280211   0.289   1.879   2.735
 9915TIP3   OH280212   0.449   1.790   2.436
 9915TIP3    H180213   0.391   1.831   2.500
 9915TIP3    H280214   0.481   1.863   2.383
 9916TIP3   OH280215   0.131   1.674   2.297
 9916TIP3    H180216   0.158   1.650   2.386
 9916TIP3    H280217   0.207   1.656   2.243
 9917TIP3   OH280218   0.403   1.607   2.226
 9917TIP3    H180219   0.411   1.514   2.247
 9917TIP3    H280220   0.432   1.653   2.304
 9918TIP3   OH280221   1.051   0.185   2.080
 9918TIP3    H180222   1.046   0.203   2.173
 9918TIP3    H280223   1.114   0.112   2.073
 9919TIP3   OH280224   0.301   0.144   1.943
 9919TIP3    H180225   0.234   0.185   1.888
 9919TIP3    H280226   0.282   0.050   1.938
 9920TIP3   OH280227   0.179   0.155   1.488
 9920TIP3    H180228   0.205   0.173   1.397
 9920TIP3    H280229   0.226   0.220   1.540
 9921TIP3   OH280230   0.702   0.170   1.959
 9921TIP3    H180231   0.768   0.239   1.961
 9921TIP3    H280232   0.717   0.120   2.039
 9922TIP3   OH280233   0.169   1.669   1.597
 9922TIP3    H180234   0.106   1.674   1.669
 9922TIP3    H280235   0.197   1.759   1.583
 9923TIP3   OH280236   0.391   0.337   1.413
 9923TIP3    H180237   0.431   0.361   1.330
 9923TIP3    H280238   0.466   0.318   1.470
 9924TIP3   OH280239   0.881   0.312   1.602
 9924TIP3    H180240   0.916   0.247   1.662
 9924TIP3    H280241   0.887   0.395   1.650
 9925TIP3   OH280242   0.237   0.137   2.956
 9925TIP3    H180243   0.194   0.064   2.911
 9925TIP3    H280244   0.329   0.112   2.960
 9926TIP3   OH280245   0.499   0.071   3.020
 9926TIP3    H180246   0.589   0.093   2.997
 9926TIP3    H280247   0.492   8.121   3.001
 9927TIP3   OH280248   1.393   0.017   3.117
 9927TIP3    H180249   1.336   8.114   3.177
 9927TIP3    H280250   1.472   8.108   3.113
 9928TIP3   OH280251   1.592   1.639   2.865
 9928TIP3    H180252   1.496   1.636   2.858
 9928TIP3    H280253   1.609   1.723   2.909
 9929TIP3   OH280254   3.029   1.000   1.954
 9929TIP3    H180255   3.036   1.089   1.919
 9929TIP3    H280256   2.947   0.966   1.917
 9930TIP3   OH280257   2.204   0.913   2.457
 9930TIP3    H180258   2.176   0.826   2.483
 9930TIP3    H280259   2.228   0.956   2.539
 9931TIP3   OH280260   3.334   1.264   2.147
 9931TIP3    H180261   3.324   1.176   2.184
 9931TIP3    H280262   3.362   1.318   2.220
 9932TIP3   OH280263   2.221   1.323   2.279
 9932TIP3    H180264   2.233   1.238   2.238
 9932TIP3    H280265   2.284   1.324   2.352
 9933TIP3   OH280266   2.000   0.685   1.775
 9933TIP3    H180267   1.945   0.759   1.803
 9933TIP3    H280268   1.938   0.613   1.763
 9934TIP3   OH280269   2.005   0.950   2.089
 9934TIP3    H180270   2.039   0.861   2.102
 9934TIP3    H280271   2.082   1.006   2.099
 9935TIP3   OH280272   3.120   0.679   2.316
 9935TIP3    H180273   3.069   0.609   2.277
 9935TIP3    H280274   3.065   0.757   2.306
 9936TIP3   OH280275   2.455   0.432   2.098
 9936TIP3    H180276   2.480   0.511   2.049
 9936TIP3    H280277   2.448   0.364   2.031
 9937TIP3   OH280278   2.122   0.709   2.130
 9937TIP3    H180279   2.144   0.637   2.189
 9937TIP3    H280280   2.166   0.688   2.048
 9938TIP3   OH280281   3.745   0.524   2.701
 9938TIP3    H180282   3.671   0.541   2.642
 9938TIP3    H280283   3.735   0.590   2.770
 9939TIP3   OH280284   2.329   0.352   2.488
 9939TIP3    H180285   2.291   0.398   2.413
 9939TIP3    H280286   2.261   0.358   2.556
 9940TIP3   OH280287   3.022   1.252   1.848
 9940TIP3    H180288   3.103   1.301   1.861
 9940TIP3    H280289   2.953   1.318   1.858
 9941TIP3   OH280290   2.246   0.495   2.263
 9941TIP3    H180291   2.294   0.565   2.307
 9941TIP3    H280292   2.308   0.461   2.198
 9942TIP3   OH280293   2.356   1.362   2.522
 9942TIP3    H180294   2.364   1.457   2.516
 9942TIP3    H280295   2.289   1.348   2.590
 9943TIP3   OH280296   2.007   1.276   1.634
 9943TIP3    H180297   2.014   1.304   1.543
 9943TIP3    H280298   2.017   1.356   1.685
 9944TIP3   OH280299   3.353   1.518   2.308
 9944TIP3    H180300   3.301   1.524   2.228
 9944TIP3    H280301   3.403   1.599   2.311
 9945TIP3   OH280302   3.420   0.216   2.449
 9945TIP3    H180303   3.328   0.207   2.424
 9945TIP3    H280304   3.446   0.301   2.414
 9946TIP3   OH280305   2.653   0.035   2.224
 9946TIP3    H180306   2.677   0.002   2.310
 9946TIP3    H280307   2.571   0.084   2.239
 9947TIP3   OH280308   3.239   1.594   2.060
 9947TIP3    H180309   3.243   1.519   2.001
 9947TIP3    H280310   3.270   1.668   2.007
 9948TIP3   OH280311   3.270   1.367   1.901
 9948TIP3    H180312   3.339   1.345   1.838
 9948TIP3    H280313   3.297   1.323   1.982
 9949TIP3   OH280314   3.465   1.249   2.695
 9949TIP3    H180315   3.464   1.185   2.624
 9949TIP3    H280316   3.472   1.334   2.652
 9950TIP3   OH280317   3.662   0.907   2.539
 9950TIP3    H180318   3.588   0.966   2.525
 9950TIP3    H280319   3.724   0.928   2.469
 9951TIP3   OH280320   2.410   0.937   2.012
 9951TIP3    H180321   2.375   0.947   1.924
 9951TIP3    H280322   2.479   0.872   2.004
 9952TIP3   OH280323   2.214   0.968   2.728
 9952TIP3    H180324   2.240   1.031   2.795
 9952TIP3    H280325   2.120   0.957   2.741
 9953TIP3   OH280326   3.491   0.013   1.470
 9953TIP3    H180327   3.463   0.004   1.561
 9953TIP3    H280328   3.563   0.076   1.472
 9954TIP3   OH280329   2.313   0.931   1.753
 9954TIP3    H180330   2.295   0.999   1.689
 9954TIP3    H280331   2.246   0.864   1.737
 9955TIP3   OH280332   3.684   1.506   1.370
 9955TIP3    H180333   3.715   1.593   1.393
 9955TIP3    H280334   3.761   1.450   1.378
 9956TIP3   OH280335   1.933   1.186   2.634
 9956TIP3    H180336   1.956   1.195   2.541
 9956TIP3    H280337   1.943   1.093   2.652
 9957TIP3   OH280338   1.972   1.391   2.373
 9957TIP3    H180339   2.053   1.368   2.328
 9957TIP3    H280340   1.995   1.467   2.427
 9958TIP3   OH280341   3.754   1.526   2.861
 9958TIP3    H180342   3.741   1.431   2.859
 9958TIP3    H280343   3.672   1.561   2.897
 9959TIP3   OH280344   2.175   1.687   1.974
 9959TIP3    H180345   2.262   1.647   1.978
 9959TIP3    H280346   2.145   1.688   2.065
 9960TIP3   OH280347   3.435   0.684   2.983
 9960TIP3    H180348   3.373   0.749   2.951
 9960TIP3    H280349   3.412   0.604   2.936
 9961TIP3   OH280350   2.145   1.378   2.704
 9961TIP3    H180351   2.148   1.400   2.797
 9961TIP3    H280352   2.077   1.312   2.696
 9962TIP3   OH280353   2.417   0.162   2.304
 9962TIP3    H180354   2.346   0.185   2.244
 9962TIP3    H280355   2.402   0.217   2.381
 9963TIP3   OH280356   2.378   0.688   2.400
 9963TIP3    H180357   2.331   0.671   2.482
 9963TIP3    H280358   2.361   0.781   2.382
 9964TIP3   OH280359   2.504   0.645   1.925
 9964TIP3    H180360   2.409   0.655   1.918
 9964TIP3    H280361   2.531   0.621   1.836
 9965TIP3   OH280362   2.205   0.659   2.611
 9965TIP3    H180363   2.203   0.711   2.691
 9965TIP3    H280364   2.170   0.574   2.637
 9966TIP3   OH280365   1.820   0.380   1.992
 9966TIP3    H180366   1.869   0.375   2.074
 9966TIP3    H280367   1.888   0.380   1.924
 9967TIP3   OH280368   2.234   0.617   1.896
 9967TIP3    H180369   2.155   0.638   1.846
 9967TIP3    H280370   2.245   0.523   1.884
 9968TIP3   OH280371   2.592   0.555   1.666
 9968TIP3    H180372   2.686   0.560   1.685
 9968TIP3    H280373   2.578   0.622   1.599
 9969TIP3   OH280374   3.498   1.887   2.997
 9969TIP3    H180375   3.514   1.928   2.912
 9969TIP3    H280376   3.579   1.903   3.046
 9970TIP3   OH280377   2.259   1.141   2.941
 9970TIP3    H180378   2.326   1.151   3.009
 9970TIP3    H280379   2.177   1.162   2.986
 9971TIP3   OH280380   2.284   0.352   1.857
 9971TIP3    H180381   2.230   0.275   1.875
 9971TIP3    H280382   2.331   0.330   1.777
 9972TIP3   OH280383   3.471   1.094   2.469
 9972TIP3    H180384   3.537   1.147   2.423
 9972TIP3    H280385   3.409   1.069   2.400
 9973TIP3   OH280386   2.242   1.056   2.198
 9973TIP3    H180387   2.308   1.022   2.137
 9973TIP3    H280388   2.255   1.005   2.277
 9974TIP3   OH280389   1.938   0.916   2.708
 9974TIP3    H180390   1.914   0.866   2.786
 9974TIP3    H280391   1.880   0.882   2.639
 9975TIP3   OH280392   3.638   0.671   1.579
 9975TIP3    H180393   3.615   0.661   1.487
 9975TIP3    H280394   3.697   0.746   1.580
 9976TIP3   OH280395   3.695   1.252   2.848
 9976TIP3    H180396   3.607   1.251   2.809
 9976TIP3    H280397   3.753   1.235   2.774
 9977TIP3   OH280398   3.505   1.509   1.591
 9977TIP3    H180399   3.481   1.425   1.629
 9977TIP3    H280400   3.566   1.486   1.520
 9978TIP3   OH280401   3.293   1.011   2.266
 9978TIP3    H180402   3.199   0.999   2.253
 9978TIP3    H280403   3.332   0.928   2.237
 9979TIP3   OH280404   2.104   1.004   1.355
 9979TIP3    H180405   2.148   1.038   1.433
 9979TIP3    H280406   2.013   0.990   1.384
 9980TIP3   OH280407   3.333   1.661   2.729
 9980TIP3    H180408   3.253   1.684   2.777
 9980TIP3    H280409   3.344   1.732   2.666
 9981TIP3   OH280410   2.130   0.384   2.676
 9981TIP3    H180411   2.067   0.328   2.630
 9981TIP3    H280412   2.143   0.341   2.760
 9982TIP3   OH280413   3.443   1.255   1.698
 9982TIP3    H180414   3.376   1.188   1.688
 9982TIP3    H280415   3.526   1.208   1.694
 9983TIP3   OH280416   2.098   1.594   2.524
 9983TIP3    H180417   2.112   1.530   2.594
 9983TIP3    H280418   2.096   1.679   2.569
 9984TIP3   OH280419   2.236   1.130   1.570
 9984TIP3    H180420   2.161   1.177   1.607
 9984TIP3    H280421   2.294   1.198   1.537
 9985TIP3   OH280422   2.435   0.320   1.624
 9985TIP3    H180423   2.493   0.392   1.647
 9985TIP3    H280424   2.490   0.242   1.631
 9986TIP3   OH280425   3.395   0.439   2.856
 9986TIP3    H180426   3.348   0.388   2.923
 9986TIP3    H280427   3.440   0.373   2.803
 9987TIP3   OH280428   3.365   0.742   2.209
 9987TIP3    H180429   3.278   0.719   2.241
 9987TIP3    H280430   3.423   0.677   2.247
 9988TIP3   OH280431   3.481   1.762   2.312
 9988TIP3    H180432   3.464   1.826   2.244
 9988TIP3    H280433   3.577   1.758   2.319
 9989TIP3   OH280434   2.170   0.148   2.167
 9989TIP3    H180435   2.156   0.145   2.072
 9989TIP3    H280436   2.177   0.057   2.194
 9990TIP3   OH280437   2.035   1.508   1.786
 9990TIP3    H180438   1.954   1.521   1.835
 9990TIP3    H280439   2.102   1.554   1.837
 9991TIP3   OH280440   2.066   1.818   3.023
 9991TIP3    H180441   2.119   1.807   3.101
 9991TIP3    H280442   2.056   1.729   2.988
 9992TIP3   OH280443   2.446   1.606   3.138
 9992TIP3    H180444   2.528   1.560   3.158
 9992TIP3    H280445   2.402   1.551   3.074
 9993TIP3   OH280446   3.109   1.534   3.042
 9993TIP3    H180447   3.083   1.445   3.064
 9993TIP3    H280448   3.185   1.551   3.097
 9994TIP3   OH280449   3.369   1.521   1.247
 9994TIP3    H180450   3.434   1.481   1.304
 9994TIP3    H280451   3.363   1.612   1.277
 9995TIP3   OH280452   2.008   1.147   3.063
 9995TIP3    H180453   2.016   1.052   3.051
 9995TIP3    H280454   1.931   1.171   3.011
 9996TIP3   OH280455   2.710   1.196   3.051
 9996TIP3    H180456   2.722   1.211   2.958
 9996TIP3    H280457   2.784   1.141   3.077
 9997TIP3   OH280458   3.217   1.154   2.791
 9997TIP3    H180459   3.299   1.194   2.762
 9997TIP3    H280460   3.149   1.214   2.761
 9998TIP3   OH280461   2.073   0.877   3.013
 9998TIP3    H180462   2.166   0.871   2.991
 9998TIP3    H280463   2.069   0.858   3.106
 9999TIP3   OH280464   2.949   1.051   3.090
 9999TIP3    H180465   3.006   1.024   3.017
 9999TIP3    H280466   2.949   0.977   3.150
10000TIP3   OH280467   2.578   0.575   2.835
10000TIP3    H180468   2.567   0.499   2.778
10000TIP3    H280469   2.672   0.577   2.853
10001TIP3   OH280470   2.559   0.371   2.634
10001TIP3    H180471   2.624   0.339   2.571
10001TIP3    H280472   2.478   0.373   2.584
10002TIP3   OH280473   3.175   0.665   3.140
10002TIP3    H180474   3.161   0.580   3.180
10002TIP3    H280475   3.269   0.668   3.123
10003TIP3   OH280476   3.320   0.938   2.931
10003TIP3    H180477   3.274   1.006   2.881
10003TIP3    H280478   3.413   0.962   2.923
10004TIP3   OH280479   2.411   0.617   3.056
10004TIP3    H180480   2.329   0.569   3.039
10004TIP3    H280481   2.459   0.611   2.974
10005TIP3   OH280482   2.522   0.093   2.646
10005TIP3    H180483   2.534   0.183   2.675
10005TIP3    H280484   2.435   0.069   2.677
10006TIP3   OH280485   3.277   0.301   3.077
10006TIP3    H180486   3.261   0.207   3.087
10006TIP3    H280487   3.221   0.341   3.144
10007TIP3   OH280488   2.184   0.451   3.070
10007TIP3    H180489   2.154   0.398   2.996
10007TIP3    H280490   2.202   0.388   3.139
10008TIP3   OH280491   2.660   0.035   2.925
10008TIP3    H180492   2.721   8.133   2.983
10008TIP3    H280493   2.707   0.040   2.841
10009TIP3   OH280494   2.720   0.218   3.148
10009TIP3    H180495   2.701   0.172   3.067
10009TIP3    H280496   2.651   0.285   3.155
10010TIP3   OH280497   2.064   1.328   1.368
10010TIP3    H180498   2.129   1.394   1.342
10010TIP3    H280499   2.038   1.288   1.285
10011TIP3   OH280500   3.746   1.744   2.399
10011TIP3    H180501   3.716   1.729   2.489
10011TIP3    H280502   3.786   1.831   2.401
10012TIP3   OH280503   3.656   1.687   2.653
10012TIP3    H180504   3.598   1.617   2.620
10012TIP3    H280505   3.707   1.645   2.722
10013TIP3   OH280506   3.512   1.297   3.249
10013TIP3    H180507   3.426   1.288   3.290
10013TIP3    H280508   3.572   1.306   3.323
10014TIP3   OH280509   3.683   1.112   1.669
10014TIP3    H180510   3.754   1.175   1.679
10014TIP3    H280511   3.691   1.053   1.744
10015TIP3   OH280512   3.715   0.946   1.880
10015TIP3    H180513   3.642   0.892   1.913
10015TIP3    H280514   3.777   0.948   1.953
10016TIP3   OH280515   3.700   1.232   2.392
10016TIP3    H180516   3.755   1.167   2.348
10016TIP3    H280517   3.730   1.316   2.357
10017TIP3   OH280518   3.472   1.491   2.566
10017TIP3    H180519   3.407   1.542   2.614
10017TIP3    H280520   3.439   1.488   2.477
10018TIP3   OH280521   3.693   0.945   1.447
10018TIP3    H180522   3.609   0.900   1.441
10018TIP3    H280523   3.684   1.004   1.521
10019TIP3   OH280524   3.575   0.650   1.308
10019TIP3    H180525   3.647   0.634   1.247
10019TIP3    H280526   3.513   0.579   1.290
10020TIP3   OH280527   3.517   0.781   1.973
10020TIP3    H180528   3.512   0.695   1.931
10020TIP3    H280529   3.459   0.773   2.049
10021TIP3   OH280530   1.957   1.007   2.356
10021TIP3    H180531   1.963   0.989   2.262
10021TIP3    H280532   2.044   0.987   2.390
10022TIP3   OH280533   3.595   0.985   2.927
10022TIP3    H180534   3.640   0.903   2.909
10022TIP3    H280535   3.643   1.051   2.875
10023TIP3   OH280536   3.697   0.729   2.897
10023TIP3    H180537   3.611   0.704   2.932
10023TIP3    H280538   3.759   0.673   2.944
10024TIP3   OH280539   3.528   0.551   1.801
10024TIP3    H180540   3.436   0.539   1.776
10024TIP3    H280541   3.568   0.595   1.726
10025TIP3   OH280542   3.517   0.549   2.343
10025TIP3    H180543   3.607   0.571   2.319
10025TIP3    H280544   3.508   0.580   2.433
10026TIP3   OH280545   3.530   0.668   2.590
10026TIP3    H180546   3.462   0.696   2.650
10026TIP3    H280547   3.579   0.749   2.570
10027TIP3   OH280548   3.818   0.055   3.072
10027TIP3    H180549   3.812   8.143   2.995
10027TIP3    H280550   3.784   0.140   3.042
10028TIP3   OH280551   1.996   0.358   2.214
10028TIP3    H180552   2.046   0.277   2.205
10028TIP3    H280553   2.062   0.424   2.238
10029TIP3   OH280554   3.697   0.281   2.950
10029TIP3    H180555   3.631   0.319   3.009
10029TIP3    H280556   3.650   0.270   2.867
10030TIP3   OH280557   3.718   0.184   1.481
10030TIP3    H180558   3.784   0.227   1.427
10030TIP3    H280559   3.708   0.241   1.557
10031TIP3   OH280560   3.362   1.801   1.903
10031TIP3    H180561   3.438   1.774   1.851
10031TIP3    H280562   3.400   1.849   1.977
10032TIP3   OH280563   1.968   0.192   2.563
10032TIP3    H180564   1.935   0.108   2.594
10032TIP3    H280565   1.900   0.225   2.504
10033TIP3   OH280566   2.096   1.482   2.966
10033TIP3    H180567   2.003   1.487   2.943
10033TIP3    H280568   2.096   1.452   3.057
10034TIP3   OH280569   3.119   1.761   2.871
10034TIP3    H180570   3.094   1.683   2.922
10034TIP3    H280571   3.141   1.826   2.937
10035TIP3   OH280572   3.531   0.208   2.719
10035TIP3    H180573   3.494   0.217   2.632
10035TIP3    H280574   3.579   0.125   2.716
10036TIP3   OH280575   2.103   1.846   2.642
10036TIP3    H180576   2.033   1.905   2.613
10036TIP3    H280577   2.154   1.898   2.704
10037TIP3   OH280578   3.075   1.805   2.591
10037TIP3    H180579   3.081   1.799   2.686
10037TIP3    H280580   3.164   1.828   2.562
10038TIP3   OH280581   3.351   1.854   2.536
10038TIP3    H180582   3.362   1.948   2.524
10038TIP3    H280583   3.392   1.815   2.459
10039TIP3   OH280584   2.147   1.696   2.258
10039TIP3    H180585   2.096   1.681   2.337
10039TIP3    H280586   2.228   1.647   2.271
10040TIP3   OH280587   3.445   0.050   2.010
10040TIP3    H180588   3.479   0.027   2.096
10040TIP3    H280589   3.352   0.070   2.026
10041TIP3   OH280590   2.122   0.132   1.896
10041TIP3    H180591   2.038   0.128   1.851
10041TIP3    H280592   2.163   0.048   1.878
10042TIP3   OH280593   2.065   0.082   1.502
10042TIP3    H180594   2.135   0.134   1.462
10042TIP3    H280595   2.042   0.129   1.582
10043TIP3   OH280596   2.264   0.254   1.418
10043TIP3    H180597   2.257   0.341   1.380
10043TIP3    H280598   2.321   0.266   1.494
10044TIP3   OH280599   3.556   1.747   1.720
10044TIP3    H180600   3.541   1.661   1.680
10044TIP3    H280601   3.565   1.807   1.646
10045TIP3   OH280602   2.147   0.230   2.906
10045TIP3    H180603   2.070   0.180   2.932
10045TIP3    H280604   2.220   0.185   2.949
10046TIP3   OH280605   2.349   0.089   3.041
10046TIP3    H180606   2.442   0.077   3.021
10046TIP3    H280607   2.312   0.001   3.038
10047TIP3   OH280608   3.255   0.027   3.121
10047TIP3    H180609   3.206   8.123   3.188
10047TIP3    H280610   3.309   8.105   3.078
10048TIP3   OH280611   3.503   1.618   2.943
10048TIP3    H180612   3.446   1.612   2.867
10048TIP3    H280613   3.505   1.712   2.964
10049TIP3   OH280614   4.084   0.903   2.452
10049TIP3    H180615   4.091   0.823   2.504
10049TIP3    H280616   4.174   0.922   2.426
10050TIP3   OH280617   3.902   0.930   2.089
10050TIP3    H180618   3.920   0.836   2.096
10050TIP3    H280619   3.987   0.972   2.097
10051TIP3   OH280620   4.920   1.736   2.168
10051TIP3    H180621   4.954   1.678   2.099
10051TIP3    H280622   4.938   1.689   2.249
10052TIP3   OH280623   5.097   0.637   2.413
10052TIP3    H180624   5.087   0.550   2.376
10052TIP3    H280625   5.144   0.687   2.346
10053TIP3   OH280626   4.386   0.399   2.011
10053TIP3    H180627   4.370   0.478   1.960
10053TIP3    H280628   4.382   0.327   1.947
10054TIP3   OH280629   3.959   0.663   2.122
10054TIP3    H180630   4.044   0.624   2.144
10054TIP3    H280631   3.923   0.605   2.055
10055TIP3   OH280632   4.453   0.830   2.107
10055TIP3    H180633   4.544   0.803   2.113
10055TIP3    H280634   4.410   0.760   2.057
10056TIP3   OH280635   4.506   1.112   2.555
10056TIP3    H180636   4.450   1.190   2.551
10056TIP3    H280637   4.581   1.140   2.608
10057TIP3   OH280638   4.201   0.546   2.174
10057TIP3    H180639   4.243   0.592   2.246
10057TIP3    H280640   4.273   0.507   2.125
10058TIP3   OH280641   4.337   1.347   2.557
10058TIP3    H180642   4.344   1.334   2.462
10058TIP3    H280643   4.248   1.319   2.578
10059TIP3   OH280644   3.891   1.297   1.672
10059TIP3    H180645   3.884   1.338   1.586
10059TIP3    H280646   3.899   1.370   1.733
10060TIP3   OH280647   5.280   1.490   2.374
10060TIP3    H180648   5.187   1.472   2.360
10060TIP3    H280649   5.294   1.577   2.335
10061TIP3   OH280650   5.286   0.388   2.483
10061TIP3    H180651   5.206   0.367   2.435
10061TIP3    H280652   5.337   0.442   2.423
10062TIP3   OH280653   5.060   1.597   1.971
10062TIP3    H180654   5.083   1.505   1.975
10062TIP3    H280655   5.144   1.643   1.977
10063TIP3   OH280656   5.412   1.247   2.657
10063TIP3    H180657   5.464   1.226   2.580
10063TIP3    H280658   5.400   1.342   2.653
10064TIP3   OH280659   4.354   1.036   1.944
10064TIP3    H180660   4.337   1.001   1.857
10064TIP3    H280661   4.396   0.964   1.991
10065TIP3   OH280662   4.431   1.321   2.301
10065TIP3    H180663   4.431   1.297   2.208
10065TIP3    H280664   4.518   1.355   2.318
10066TIP3   OH280665   4.354   0.941   2.355
10066TIP3    H180666   4.401   0.921   2.274
10066TIP3    H280667   4.412   0.999   2.403
10067TIP3   OH280668   5.007   1.461   2.382
10067TIP3    H180669   4.981   1.528   2.444
10067TIP3    H280670   4.977   1.379   2.420
10068TIP3   OH280671   4.460   1.388   2.805
10068TIP3    H180672   4.399   1.448   2.848
10068TIP3    H280673   4.419   1.369   2.720
10069TIP3   OH280674   4.145   0.936   2.800
10069TIP3    H180675   4.154   1.025   2.835
10069TIP3    H280676   4.063   0.937   2.752
10070TIP3   OH280677   4.277   1.582   2.896
10070TIP3    H180678   4.270   1.666   2.851
10070TIP3    H280679   4.186   1.558   2.916
10071TIP3   OH280680   5.425   0.081   1.532
10071TIP3    H180681   5.368   0.064   1.457
10071TIP3    H280682   5.504   0.119   1.493
10072TIP3   OH280683   4.280   0.942   1.684
10072TIP3    H180684   4.215   1.008   1.662
10072TIP3    H280685   4.246   0.861   1.646
10073TIP3   OH280686   5.577   1.496   1.436
10073TIP3    H180687   5.589   1.588   1.416
10073TIP3    H280688   5.661   1.455   1.416
10074TIP3   OH280689   3.844   1.186   2.632
10074TIP3    H180690   3.797   1.194   2.549
10074TIP3    H280691   3.857   1.092   2.644
10075TIP3   OH280692   3.814   1.483   2.328
10075TIP3    H180693   3.900   1.485   2.370
10075TIP3    H280694   3.779   1.572   2.341
10076TIP3   OH280695   5.640   1.554   2.904
10076TIP3    H180696   5.635   1.460   2.891
10076TIP3    H280697   5.553   1.579   2.936
10077TIP3   OH280698   4.725   1.456   2.772
10077TIP3    H180699   4.730   1.548   2.798
10077TIP3    H280700   4.633   1.432   2.784
10078TIP3   OH280701   4.789   1.837   1.692
10078TIP3    H180702   4.785   1.844   1.597
10078TIP3    H280703   4.759   1.923   1.723
10079TIP3   OH280704   5.085   1.718   1.467
10079TIP3    H180705   5.175   1.688   1.452
10079TIP3    H280706   5.081   1.734   1.561
10080TIP3   OH280707   5.050   1.770   1.741
10080TIP3    H180708   4.957   1.788   1.730
10080TIP3    H280709   5.053   1.705   1.812
10081TIP3   OH280710   4.093   1.295   2.676
10081TIP3    H180711   4.118   1.268   2.764
10081TIP3    H280712   4.009   1.252   2.660
10082TIP3   OH280713   4.318   0.661   2.390
10082TIP3    H180714   4.254   0.658   2.461
10082TIP3    H280715   4.343   0.753   2.384
10083TIP3   OH280716   4.328   0.658   1.925
10083TIP3    H180717   4.241   0.698   1.920
10083TIP3    H280718   4.353   0.645   1.834
10084TIP3   OH280719   4.791   0.714   2.943
10084TIP3    H180720   4.750   0.634   2.974
10084TIP3    H280721   4.877   0.715   2.987
10085TIP3   OH280722   4.131   0.663   2.589
10085TIP3    H180723   4.187   0.677   2.665
10085TIP3    H280724   4.078   0.587   2.611
10086TIP3   OH280725   4.648   0.501   2.017
10086TIP3    H180726   4.564   0.459   2.036
10086TIP3    H280727   4.707   0.468   2.085
10087TIP3   OH280728   4.398   0.590   1.674
10087TIP3    H180729   4.490   0.564   1.671
10087TIP3    H280730   4.374   0.603   1.583
10088TIP3   OH280731   5.054   0.343   2.333
10088TIP3    H180732   4.967   0.327   2.370
10088TIP3    H280733   5.064   0.277   2.264
10089TIP3   OH280734   4.324   0.680   1.415
10089TIP3    H180735   4.292   0.681   1.324
10089TIP3    H280736   4.410   0.722   1.410
10090TIP3   OH280737   5.381   1.915   3.010
10090TIP3    H180738   5.403   1.943   2.921
10090TIP3    H280739   5.457   1.942   3.062
10091TIP3   OH280740   4.135   1.184   2.929
10091TIP3    H180741   4.198   1.179   3.000
10091TIP3    H280742   4.050   1.193   2.972
10092TIP3   OH280743   4.716   1.180   2.718
10092TIP3    H180744   4.792   1.137   2.757
10092TIP3    H280745   4.731   1.274   2.731
10093TIP3   OH280746   4.153   1.023   2.141
10093TIP3    H180747   4.217   1.048   2.073
10093TIP3    H280748   4.206   1.013   2.220
10094TIP3   OH280749   3.867   0.929   2.732
10094TIP3    H180750   3.860   0.883   2.816
10094TIP3    H280751   3.798   0.889   2.678
10095TIP3   OH280752   4.603   0.918   2.958
10095TIP3    H180753   4.571   0.911   2.868
10095TIP3    H280754   4.679   0.858   2.961
10096TIP3   OH280755   5.008   1.445   2.749
10096TIP3    H180756   4.913   1.443   2.737
10096TIP3    H280757   5.019   1.457   2.844
10097TIP3   OH280758   5.597   0.664   1.555
10097TIP3    H180759   5.654   0.598   1.515
10097TIP3    H280760   5.591   0.733   1.489
10098TIP3   OH280761   5.614   1.276   2.857
10098TIP3    H180762   5.524   1.263   2.827
10098TIP3    H280763   5.668   1.238   2.788
10099TIP3   OH280764   5.431   1.471   1.666
10099TIP3    H180765   5.445   1.380   1.692
10099TIP3    H280766   5.474   1.479   1.581
10100TIP3   OH280767   4.351   1.480   1.887
10100TIP3    H180768   4.375   1.572   1.875
10100TIP3    H280769   4.256   1.481   1.898
10101TIP3   OH280770   3.935   1.073   1.376
10101TIP3    H180771   3.992   1.065   1.453
10101TIP3    H280772   3.860   1.016   1.396
10102TIP3   OH280773   4.466   1.273   2.034
10102TIP3    H180774   4.437   1.343   1.976
10102TIP3    H280775   4.432   1.193   1.994
10103TIP3   OH280776   5.175   1.674   2.747
10103TIP3    H180777   5.106   1.611   2.724
10103TIP3    H280778   5.176   1.736   2.675
10104TIP3   OH280779   5.616   1.770   1.423
10104TIP3    H180780   5.649   1.821   1.349
10104TIP3    H280781   5.550   1.826   1.463
10105TIP3   OH280782   3.999   0.433   2.657
10105TIP3    H180783   3.908   0.456   2.678
10105TIP3    H280784   4.025   0.371   2.725
10106TIP3   OH280785   4.019   1.520   2.538
10106TIP3    H180786   4.053   1.444   2.585
10106TIP3    H280787   3.950   1.555   2.595
10107TIP3   OH280788   4.455   1.401   1.484
10107TIP3    H180789   4.475   1.349   1.562
10107TIP3    H280790   4.509   1.480   1.494
10108TIP3   OH280791   4.105   1.135   1.592
10108TIP3    H180792   4.038   1.181   1.643
10108TIP3    H280793   4.146   1.203   1.539
10109TIP3   OH280794   4.642   1.603   1.546
10109TIP3    H180795   4.645   1.635   1.636
10109TIP3    H280796   4.705   1.657   1.499
10110TIP3   OH280797   4.672   0.527   1.744
10110TIP3    H180798   4.746   0.588   1.734
10110TIP3    H280799   4.661   0.518   1.838
10111TIP3   OH280800   4.741   0.495   2.708
10111TIP3    H180801   4.749   0.586   2.735
10111TIP3    H280802   4.807   0.449   2.760
10112TIP3   OH280803   4.882   0.271   1.960
10112TIP3    H180804   4.803   0.230   1.926
10112TIP3    H280805   4.909   0.331   1.890
10113TIP3   OH280806   5.340   0.335   2.744
10113TIP3    H180807   5.259   0.357   2.791
10113TIP3    H280808   5.323   0.359   2.653
10114TIP3   OH280809   4.193   1.339   1.405
10114TIP3    H180810   4.278   1.368   1.438
10114TIP3    H280811   4.207   1.327   1.311
10115TIP3   OH280812   5.348   1.757   2.328
10115TIP3    H180813   5.337   1.820   2.257
10115TIP3    H280814   5.442   1.751   2.341
10116TIP3   OH280815   3.921   1.530   1.812
10116TIP3    H180816   3.921   1.541   1.907
10116TIP3    H280817   3.902   1.617   1.778
10117TIP3   OH280818   4.356   1.632   3.164
10117TIP3    H180819   4.426   1.567   3.177
10117TIP3    H280820   4.328   1.618   3.074
10118TIP3   OH280821   5.024   1.489   3.019
10118TIP3    H180822   4.996   1.416   3.073
10118TIP3    H280823   5.096   1.529   3.068
10119TIP3   OH280824   3.883   1.176   3.046
10119TIP3    H180825   3.891   1.081   3.039
10119TIP3    H280826   3.811   1.198   2.987
10120TIP3   OH280827   4.533   1.198   3.015
10120TIP3    H180828   4.526   1.243   2.931
10120TIP3    H280829   4.573   1.113   2.994
10121TIP3   OH280830   4.813   1.336   1.267
10121TIP3    H180831   4.762   1.417   1.271
10121TIP3    H280832   4.841   1.319   1.357
10122TIP3   OH280833   5.132   1.194   2.678
10122TIP3    H180834   5.227   1.205   2.685
10122TIP3    H280835   5.097   1.279   2.704
10123TIP3   OH280836   3.946   0.908   3.011
10123TIP3    H180837   4.031   0.888   2.972
10123TIP3    H280838   3.952   0.876   3.101
10124TIP3   OH280839   4.419   0.993   1.430
10124TIP3    H180840   4.385   0.992   1.520
10124TIP3    H280841   4.483   0.923   1.427
10125TIP3   OH280842   4.333   0.737   2.769
10125TIP3    H180843   4.273   0.810   2.789
10125TIP3    H280844   4.411   0.780   2.733
10126TIP3   OH280845   4.581   0.768   1.368
10126TIP3    H180846   4.593   0.679   1.337
10126TIP3    H280847   4.662   0.813   1.342
10127TIP3   OH280848   4.934   1.043   3.142
10127TIP3    H180849   5.018   1.001   3.125
10127TIP3    H280850   4.881   0.975   3.185
10128TIP3   OH280851   4.420   0.515   2.908
10128TIP3    H180852   4.430   0.448   2.840
10128TIP3    H280853   4.397   0.594   2.860
10129TIP3   OH280854   4.555   0.873   2.679
10129TIP3    H180855   4.636   0.846   2.635
10129TIP3    H280856   4.530   0.953   2.634
10130TIP3   OH280857   5.005   0.684   3.115
10130TIP3    H180858   5.020   0.602   3.163
10130TIP3    H280859   5.086   0.734   3.128
10131TIP3   OH280860   4.240   0.615   3.100
10131TIP3    H180861   4.166   0.556   3.085
10131TIP3    H280862   4.297   0.602   3.024
10132TIP3   OH280863   4.682   0.479   3.031
10132TIP3    H180864   4.674   0.416   3.102
10132TIP3    H280865   4.594   0.484   2.994
10133TIP3   OH280866   4.915   0.395   2.897
10133TIP3    H180867   4.844   0.414   2.958
10133TIP3    H280868   4.986   0.362   2.952
10134TIP3   OH280869   5.118   0.307   3.078
10134TIP3    H180870   5.125   0.214   3.098
10134TIP3    H280871   5.078   0.345   3.157
10135TIP3   OH280872   4.091   0.393   3.004
10135TIP3    H180873   4.130   0.337   2.937
10135TIP3    H280874   4.107   0.346   3.086
10136TIP3   OH280875   4.659   0.198   3.154
10136TIP3    H180876   4.676   0.112   3.114
10136TIP3    H280877   4.566   0.214   3.140
10137TIP3   OH280878   3.915   1.352   1.397
10137TIP3    H180879   4.010   1.362   1.401
10137TIP3    H280880   3.902   1.260   1.377
10138TIP3   OH280881   3.924   1.586   2.080
10138TIP3    H180882   3.862   1.541   2.137
10138TIP3    H280883   3.991   1.620   2.140
10139TIP3   OH280884   5.613   1.744   2.407
10139TIP3    H180885   5.606   1.736   2.502
10139TIP3    H280886   5.681   1.809   2.393
10140TIP3   OH280887   5.567   1.699   2.675
10140TIP3    H180888   5.501   1.634   2.653
10140TIP3    H280889   5.614   1.661   2.749
10141TIP3   OH280890   5.420   1.278   3.184
10141TIP3    H180891   5.343   1.292   3.239
10141TIP3    H280892   5.473   1.357   3.197
10142TIP3   OH280893   5.502   1.201   1.727
10142TIP3    H180894   5.592   1.232   1.720
10142TIP3    H280895   5.510   1.110   1.757
10143TIP3   OH280896   5.553   0.929   1.850
10143TIP3    H180897   5.479   0.869   1.854
10143TIP3    H280898   5.591   0.928   1.938
10144TIP3   OH280899   5.586   1.215   2.438
10144TIP3    H180900   5.632   1.150   2.385
10144TIP3    H280901   5.605   1.299   2.397
10145TIP3   OH280902   5.374   1.515   2.626
10145TIP3    H180903   5.300   1.556   2.670
10145TIP3    H280904   5.344   1.503   2.535
10146TIP3   OH280905   3.846   0.995   2.352
10146TIP3    H180906   3.851   0.977   2.258
10146TIP3    H280907   3.933   0.972   2.385
10147TIP3   OH280908   3.848   0.518   2.993
10147TIP3    H180909   3.937   0.483   2.987
10147TIP3    H280910   3.792   0.443   2.974
10148TIP3   OH280911   5.674   0.160   3.082
10148TIP3    H180912   5.703   0.081   3.036
10148TIP3    H280913   5.650   0.221   3.012
10149TIP3   OH280914   5.409   0.277   1.730
10149TIP3    H180915   5.397   0.237   1.816
10149TIP3    H280916   5.404   0.204   1.669
10150TIP3   OH280917   3.772   0.652   2.325
10150TIP3    H180918   3.832   0.658   2.250
10150TIP3    H280919   3.815   0.703   2.394
10151TIP3   OH280920   5.556   0.361   2.921
10151TIP3    H180921   5.500   0.377   2.997
10151TIP3    H280922   5.494   0.354   2.848
10152TIP3   OH280923   5.600   0.240   1.377
10152TIP3    H180924   5.521   0.246   1.322
10152TIP3    H280925   5.615   0.330   1.406
10153TIP3   OH280926   5.295   1.729   1.969
10153TIP3    H180927   5.359   1.734   1.899
10153TIP3    H280928   5.316   1.804   2.025
10154TIP3   OH280929   4.016   1.528   2.967
10154TIP3    H180930   3.928   1.537   2.931
10154TIP3    H280931   4.003   1.490   3.053
10155TIP3   OH280932   4.729   1.714   2.887
10155TIP3    H180933   4.731   1.673   2.973
10155TIP3    H280934   4.815   1.754   2.877
10156TIP3   OH280935   4.977   1.838   2.880
10156TIP3    H180936   5.046   1.782   2.845
10156TIP3    H280937   5.015   1.875   2.960
10157TIP3   OH280938   5.478   0.099   2.707
10157TIP3    H180939   5.432   0.183   2.709
10157TIP3    H280940   5.457   0.058   2.791
10158TIP3   OH280941   4.793   1.933   2.465
10158TIP3    H180942   4.836   2.007   2.421
10158TIP3    H280943   4.787   1.960   2.557
10159TIP3   OH280944   4.971   1.715   2.504
10159TIP3    H180945   4.896   1.774   2.494
10159TIP3    H280946   5.047   1.773   2.509
10160TIP3   OH280947   5.211   1.861   2.540
10160TIP3    H180948   5.229   1.954   2.529
10160TIP3    H280949   5.257   1.819   2.467
10161TIP3   OH280950   5.310   0.044   2.172
10161TIP3    H180951   5.363   0.083   2.103
10161TIP3    H280952   5.225   0.089   2.165
10162TIP3   OH280953   5.476   0.160   1.983
10162TIP3    H180954   5.553   0.112   1.953
10162TIP3    H280955   5.508   0.249   2.002
10163TIP3   OH280956   5.050   0.139   2.132
10163TIP3    H180957   4.998   0.191   2.070
10163TIP3    H280958   5.029   0.048   2.112
10164TIP3   OH280959   5.100   0.090   1.611
10164TIP3    H180960   5.114   0.184   1.622
10164TIP3    H280961   5.164   0.049   1.669
10165TIP3   OH280962   4.636   0.282   1.612
10165TIP3    H180963   4.660   0.231   1.690
10165TIP3    H280964   4.650   0.373   1.638
10166TIP3   OH280965   4.819   1.775   1.417
10166TIP3    H180966   4.912   1.756   1.428
10166TIP3    H280967   4.811   1.802   1.326
10167TIP3   OH280968   5.475   1.737   1.759
10167TIP3    H180969   5.462   1.649   1.724
10167TIP3    H280970   5.470   1.795   1.683
10168TIP3   OH280971   5.164   0.039   3.138
10168TIP3    H180972   5.103   8.127   3.187
10168TIP3    H280973   5.234   8.124   3.111
10169TIP3   OH280974   5.380   1.645   2.946
10169TIP3    H180975   5.307   1.641   2.884
10169TIP3    H280976   5.377   1.735   2.980
10170TIP3   OH280977   6.085   1.309   2.224
10170TIP3    H180978   5.996   1.282   2.247
10170TIP3    H280979   6.137   1.228   2.230
10171TIP3   OH280980   5.768   0.755   1.752
10171TIP3    H180981   5.713   0.822   1.792
10171TIP3    H280982   5.711   0.711   1.689
10172TIP3   OH280983   5.744   0.927   2.064
10172TIP3    H180984   5.793   0.853   2.098
10172TIP3    H280985   5.807   0.973   2.007
10173TIP3   OH280986   7.461   0.379   2.414
10173TIP3    H180987   7.459   0.397   2.508
10173TIP3    H280988   7.468   0.465   2.373
10174TIP3   OH280989   6.885   0.664   2.324
10174TIP3    H180990   6.906   0.571   2.326
10174TIP3    H280991   6.811   0.670   2.263
10175TIP3   OH280992   6.239   0.450   2.086
10175TIP3    H180993   6.255   0.540   2.056
10175TIP3    H280994   6.191   0.409   2.014
10176TIP3   OH280995   7.030   0.451   1.923
10176TIP3    H180996   7.065   0.424   2.008
10176TIP3    H280997   7.103   0.492   1.878
10177TIP3   OH280998   5.903   0.732   2.167
10177TIP3    H180999   5.952   0.684   2.234
10177TIP3    H281000   5.918   0.683   2.086
10178TIP3   OH281001   7.441   0.482   2.668
10178TIP3    H181002   7.401   0.563   2.636
10178TIP3    H281003   7.375   0.445   2.726
10179TIP3   OH281004   5.966   0.379   2.415
10179TIP3    H181005   6.012   0.461   2.397
10179TIP3    H281006   5.937   0.387   2.506
10180TIP3   OH281007   7.141   0.407   2.175
10180TIP3    H181008   7.064   0.389   2.230
10180TIP3    H281009   7.186   0.479   2.220
10181TIP3   OH281010   6.110   0.589   2.310
10181TIP3    H181011   6.163   0.656   2.352
10181TIP3    H281012   6.167   0.553   2.242
10182TIP3   OH281013   5.758   1.315   1.697
10182TIP3    H181014   5.763   1.351   1.608
10182TIP3    H281015   5.785   1.388   1.753
10183TIP3   OH281016   7.117   1.461   2.403
10183TIP3    H181017   7.041   1.409   2.429
10183TIP3    H281018   7.167   1.403   2.346
10184TIP3   OH281019   7.228   0.223   2.494
10184TIP3    H181020   7.146   0.256   2.457
10184TIP3    H281021   7.296   0.263   2.441
10185TIP3   OH281022   6.455   8.068   2.221
10185TIP3    H181023   6.507   8.048   2.299
10185TIP3    H281024   6.372   8.101   2.255
10186TIP3   OH281025   6.994   1.631   2.118
10186TIP3    H181026   6.952   1.587   2.045
10186TIP3    H281027   7.070   1.674   2.080
10187TIP3   OH281028   7.262   1.256   2.721
10187TIP3    H181029   7.260   1.197   2.646
10187TIP3    H281030   7.285   1.341   2.684
10188TIP3   OH281031   7.444   0.907   2.530
10188TIP3    H181032   7.378   0.976   2.522
10188TIP3    H281033   7.503   0.921   2.456
10189TIP3   OH281034   7.056   0.777   2.744
10189TIP3    H181035   7.048   0.845   2.810
10189TIP3    H281036   6.994   0.801   2.676
10190TIP3   OH281037   7.041   0.937   1.628
10190TIP3    H181038   7.115   0.947   1.688
10190TIP3    H281039   7.030   1.023   1.589
10191TIP3   OH281040   5.939   0.932   2.766
10191TIP3    H181041   5.991   1.010   2.783
10191TIP3    H281042   5.896   0.913   2.849
10192TIP3   OH281043   6.148   1.650   2.906
10192TIP3    H181044   6.167   1.644   2.812
10192TIP3    H281045   6.066   1.601   2.917
10193TIP3   OH281046   7.294   0.052   1.506
10193TIP3    H181047   7.200   0.065   1.496
10193TIP3    H281048   7.333   0.134   1.473
10194TIP3   OH281049   6.021   0.854   1.606
10194TIP3    H181050   6.001   0.946   1.627
10194TIP3    H281051   5.956   0.804   1.656
10195TIP3   OH281052   7.372   1.544   1.398
10195TIP3    H181053   7.405   1.634   1.402
10195TIP3    H281054   7.451   1.490   1.401
10196TIP3   OH281055   5.752   1.153   2.655
10196TIP3    H181056   5.695   1.160   2.578
10196TIP3    H281057   5.773   1.059   2.659
10197TIP3   OH281058   5.688   1.476   2.354
10197TIP3    H181059   5.762   1.492   2.413
10197TIP3    H281060   5.634   1.554   2.361
10198TIP3   OH281061   7.540   1.573   2.908
10198TIP3    H181062   7.537   1.479   2.891
10198TIP3    H281063   7.455   1.593   2.946
10199TIP3   OH281064   6.628   1.489   2.711
10199TIP3    H181065   6.603   1.548   2.781
10199TIP3    H281066   6.598   1.403   2.740
10200TIP3   OH281067   6.762   1.868   1.723
10200TIP3    H181068   6.717   1.831   1.646
10200TIP3    H281069   6.699   1.929   1.761
10201TIP3   OH281070   6.048   1.707   1.950
10201TIP3    H181071   6.062   1.663   2.034
10201TIP3    H281072   5.979   1.655   1.907
10202TIP3   OH281073   6.964   1.752   1.417
10202TIP3    H181074   7.041   1.727   1.366
10202TIP3    H281075   6.997   1.815   1.482
10203TIP3   OH281076   7.234   0.656   2.937
10203TIP3    H181077   7.172   0.698   2.877
10203TIP3    H281078   7.229   0.563   2.915
10204TIP3   OH281079   5.936   1.357   2.691
10204TIP3    H181080   5.982   1.322   2.767
10204TIP3    H281081   5.871   1.289   2.669
10205TIP3   OH281082   6.038   0.241   2.175
10205TIP3    H181083   5.996   0.274   2.255
10205TIP3    H281084   6.106   0.306   2.155
10206TIP3   OH281085   6.788   0.130   2.618
10206TIP3    H181086   6.764   0.096   2.704
10206TIP3    H281087   6.737   0.079   2.556
10207TIP3   OH281088   6.968   0.509   2.745
10207TIP3    H181089   6.912   0.486   2.819
10207TIP3    H281090   6.984   0.603   2.755
10208TIP3   OH281091   6.703   0.370   1.390
10208TIP3    H181092   6.631   0.359   1.453
10208TIP3    H281093   6.660   0.380   1.305
10209TIP3   OH281094   6.215   0.688   1.956
10209TIP3    H181095   6.120   0.683   1.949
10209TIP3    H281096   6.246   0.673   1.866
10210TIP3   OH281097   6.762   0.719   1.770
10210TIP3    H181098   6.738   0.800   1.724
10210TIP3    H281099   6.839   0.687   1.722
10211TIP3   OH281100   6.718   0.709   2.925
10211TIP3    H181101   6.653   0.652   2.966
10211TIP3    H281102   6.797   0.699   2.979
10212TIP3   OH281103   6.909   0.683   2.009
10212TIP3    H181104   6.835   0.703   1.952
10212TIP3    H281105   6.933   0.594   1.986
10213TIP3   OH281106   6.003   0.686   2.620
10213TIP3    H181107   5.973   0.765   2.666
10213TIP3    H281108   5.946   0.616   2.652
10214TIP3   OH281109   5.618   0.389   2.006
10214TIP3    H181110   5.667   0.415   2.084
10214TIP3    H281111   5.684   0.384   1.937
10215TIP3   OH281112   5.761   0.464   1.467
10215TIP3    H181113   5.825   0.408   1.510
10215TIP3    H281114   5.801   0.487   1.384
10216TIP3   OH281115   6.864   0.814   2.545
10216TIP3    H181116   6.874   0.759   2.468
10216TIP3    H281117   6.788   0.777   2.591
10217TIP3   OH281118   6.548   0.447   2.037
10217TIP3    H181119   6.460   0.416   2.060
10217TIP3    H281120   6.607   0.377   2.065
10218TIP3   OH281121   5.949   0.616   1.923
10218TIP3    H181122   5.885   0.645   1.858
10218TIP3    H281123   5.976   0.530   1.893
10219TIP3   OH281124   6.293   0.604   1.700
10219TIP3    H181125   6.387   0.596   1.715
10219TIP3    H281126   6.285   0.634   1.610
10220TIP3   OH281127   6.922   0.387   2.342
10220TIP3    H181128   6.873   0.389   2.424
10220TIP3    H281129   6.862   0.346   2.279
10221TIP3   OH281130   6.226   0.687   1.441
10221TIP3    H181131   6.158   0.742   1.480
10221TIP3    H281132   6.294   0.749   1.414
10222TIP3   OH281133   7.268   1.931   3.008
10222TIP3    H181134   7.290   1.965   2.921
10222TIP3    H281135   7.342   1.957   3.063
10223TIP3   OH281136   6.030   1.198   2.910
10223TIP3    H181137   6.095   1.201   2.979
10223TIP3    H281138   5.946   1.193   2.956
10224TIP3   OH281139   6.639   0.663   2.196
10224TIP3    H181140   6.611   0.599   2.130
10224TIP3    H281141   6.591   0.637   2.275
10225TIP3   OH281142   6.081   0.367   1.875
10225TIP3    H181143   6.006   0.309   1.885
10225TIP3    H281144   6.124   0.337   1.796
10226TIP3   OH281145   6.507   0.603   2.427
10226TIP3    H181146   6.422   0.643   2.446
10226TIP3    H281147   6.556   0.612   2.509
10227TIP3   OH281148   7.255   1.105   2.493
10227TIP3    H181149   7.307   1.142   2.422
10227TIP3    H281150   7.180   1.066   2.450
10228TIP3   OH281151   6.954   0.416   1.495
10228TIP3    H181152   6.871   0.399   1.449
10228TIP3    H281153   6.950   0.509   1.516
10229TIP3   OH281154   6.990   0.663   1.625
10229TIP3    H181155   7.069   0.628   1.667
10229TIP3    H281156   7.009   0.756   1.611
10230TIP3   OH281157   6.899   1.496   2.746
10230TIP3    H181158   6.808   1.495   2.715
10230TIP3    H281159   6.892   1.483   2.841
10231TIP3   OH281160   7.416   0.637   1.564
10231TIP3    H181161   7.389   0.590   1.485
10231TIP3    H281162   7.422   0.729   1.536
10232TIP3   OH281163   7.500   1.291   2.870
10232TIP3    H181164   7.405   1.279   2.875
10232TIP3    H281165   7.522   1.268   2.779
10233TIP3   OH281166   7.297   1.537   1.675
10233TIP3    H181167   7.223   1.481   1.697
10233TIP3    H281168   7.309   1.524   1.581
10234TIP3   OH281169   7.046   0.973   2.377
10234TIP3    H181170   6.982   0.926   2.430
10234TIP3    H281171   7.059   0.917   2.300
10235TIP3   OH281172   6.320   1.473   1.854
10235TIP3    H181173   6.321   1.567   1.837
10235TIP3    H281174   6.249   1.461   1.917
10236TIP3   OH281175   5.837   1.079   1.391
10236TIP3    H181176   5.876   1.079   1.478
10236TIP3    H281177   5.767   1.014   1.396
10237TIP3   OH281178   6.492   1.651   2.528
10237TIP3    H181179   6.559   1.710   2.493
10237TIP3    H281180   6.542   1.586   2.578
10238TIP3   OH281181   6.278   1.750   1.811
10238TIP3    H181182   6.194   1.736   1.855
10238TIP3    H281183   6.278   1.843   1.789
10239TIP3   OH281184   7.098   1.675   2.757
10239TIP3    H181185   7.028   1.609   2.753
10239TIP3    H281186   7.082   1.733   2.683
10240TIP3   OH281187   7.484   1.792   1.434
10240TIP3    H181188   7.533   1.844   1.371
10240TIP3    H281189   7.419   1.852   1.470
10241TIP3   OH281190   5.909   0.419   2.692
10241TIP3    H181191   5.851   0.463   2.753
10241TIP3    H281192   5.924   0.332   2.730
10242TIP3   OH281193   5.887   1.583   2.534
10242TIP3    H181194   5.911   1.505   2.585
10242TIP3    H281195   5.899   1.655   2.595
10243TIP3   OH281196   5.954   1.127   1.642
10243TIP3    H181197   5.881   1.182   1.673
10243TIP3    H281198   6.032   1.180   1.660
10244TIP3   OH281199   6.777   0.405   2.581
10244TIP3    H181200   6.851   0.431   2.636
10244TIP3    H281201   6.769   0.311   2.595
10245TIP3   OH281202   6.944   0.273   1.730
10245TIP3    H181203   6.941   0.329   1.652
10245TIP3    H281204   6.959   0.334   1.802
10246TIP3   OH281205   6.551   0.543   1.775
10246TIP3    H181206   6.625   0.603   1.775
10246TIP3    H281207   6.547   0.509   1.865
10247TIP3   OH281208   6.660   0.654   2.660
10247TIP3    H181209   6.678   0.671   2.753
10247TIP3    H281210   6.694   0.566   2.645
10248TIP3   OH281211   6.674   0.185   1.770
10248TIP3    H181212   6.647   0.161   1.859
10248TIP3    H281213   6.767   0.205   1.778
10249TIP3   OH281214   6.295   1.667   1.533
10249TIP3    H181215   6.347   1.739   1.497
10249TIP3    H281216   6.297   1.682   1.628
10250TIP3   OH281217   6.232   0.341   1.642
10250TIP3    H181218   6.240   0.434   1.665
10250TIP3    H281219   6.319   0.317   1.611
10251TIP3   OH281220   7.214   0.411   2.806
10251TIP3    H181221   7.125   0.431   2.775
10251TIP3    H281222   7.220   0.315   2.801
10252TIP3   OH281223   7.106   0.797   2.163
10252TIP3    H181224   7.025   0.757   2.131
10252TIP3    H281225   7.146   0.730   2.219
10253TIP3   OH281226   7.226   1.779   2.325
10253TIP3    H181227   7.230   1.844   2.255
10253TIP3    H281228   7.318   1.756   2.341
10254TIP3   OH281229   5.735   0.136   2.213
10254TIP3    H181230   5.746   0.147   2.118
10254TIP3    H281231   5.688   0.053   2.221
10255TIP3   OH281232   5.838   1.545   1.842
10255TIP3    H181233   5.786   1.574   1.916
10255TIP3    H281234   5.816   1.606   1.771
10256TIP3   OH281235   5.773   1.801   2.996
10256TIP3    H181236   5.832   1.761   3.060
10256TIP3    H281237   5.723   1.728   2.960
10257TIP3   OH281238   6.344   1.644   3.100
10257TIP3    H181239   6.373   1.559   3.133
10257TIP3    H281240   6.277   1.622   3.034
10258TIP3   OH281241   6.897   1.480   3.018
10258TIP3    H181242   6.883   1.397   3.064
10258TIP3    H281243   6.970   1.521   3.064
10259TIP3   OH281244   7.141   1.560   1.243
10259TIP3    H181245   7.088   1.499   1.294
10259TIP3    H281246   7.227   1.557   1.284
10260TIP3   OH281247   5.790   1.171   3.045
10260TIP3    H181248   5.783   1.075   3.038
10260TIP3    H281249   5.717   1.204   2.992
10261TIP3   OH281250   7.008   1.203   2.813
10261TIP3    H181251   7.097   1.225   2.787
10261TIP3    H281252   6.954   1.271   2.773
10262TIP3   OH281253   5.812   0.887   3.013
10262TIP3    H181254   5.783   0.799   2.988
10262TIP3    H281255   5.828   0.882   3.107
10263TIP3   OH281256   6.766   1.037   3.113
10263TIP3    H181257   6.775   0.999   3.026
10263TIP3    H281258   6.745   0.962   3.169
10264TIP3   OH281259   6.313   0.477   2.892
10264TIP3    H181260   6.300   0.387   2.862
10264TIP3    H281261   6.300   0.531   2.814
10265TIP3   OH281262   6.257   0.596   2.654
10265TIP3    H181263   6.275   0.511   2.612
10265TIP3    H281264   6.164   0.611   2.640
10266TIP3   OH281265   6.922   0.674   3.114
10266TIP3    H181266   6.925   0.598   3.171
10266TIP3    H281267   7.012   0.705   3.108
10267TIP3   OH281268   7.076   0.970   2.940
10267TIP3    H181269   7.040   1.052   2.905
10267TIP3    H281270   7.171   0.980   2.930
10268TIP3   OH281271   6.157   0.588   3.103
10268TIP3    H181272   6.071   0.548   3.089
10268TIP3    H281273   6.204   0.570   3.021
10269TIP3   OH281274   6.490   0.075   2.799
10269TIP3    H181275   6.413   0.131   2.793
10269TIP3    H281276   6.502   0.040   2.711
10270TIP3   OH281277   6.543   0.529   3.040
10270TIP3    H181278   6.517   0.490   3.123
10270TIP3    H281279   6.469   0.511   2.981
10271TIP3   OH281280   6.806   0.418   2.940
10271TIP3    H181281   6.722   0.424   2.985
10271TIP3    H281282   6.863   0.370   3.000
10272TIP3   OH281283   7.000   0.309   3.112
10272TIP3    H181284   6.997   0.215   3.130
10272TIP3    H281285   6.971   0.350   3.194
10273TIP3   OH281286   5.957   0.401   3.036
10273TIP3    H181287   5.959   0.327   2.976
10273TIP3    H281288   5.962   0.362   3.123
10274TIP3   OH281289   6.381   0.037   3.057
10274TIP3    H181290   6.372   8.090   3.086
10274TIP3    H281291   6.427   0.031   2.973
10275TIP3   OH281292   6.526   0.230   3.196
10275TIP3    H181293   6.488   0.154   3.152
10275TIP3    H281294   6.455   0.294   3.198
10276TIP3   OH281295   6.445   1.868   1.412
10276TIP3    H181296   6.535   1.839   1.425
10276TIP3    H281297   6.434   1.870   1.316
10277TIP3   OH281298   5.826   1.360   1.427
10277TIP3    H181299   5.919   1.380   1.428
10277TIP3    H281300   5.821   1.269   1.396
10278TIP3   OH281301   5.645   1.854   1.949
10278TIP3    H181302   5.596   1.818   1.875
10278TIP3    H281303   5.675   1.777   1.997
10279TIP3   OH281304   5.739   1.632   2.093
10279TIP3    H181305   5.697   1.560   2.140
10279TIP3    H281306   5.794   1.675   2.159
10280TIP3   OH281307   7.487   1.732   2.405
10280TIP3    H181308   7.485   1.740   2.500
10280TIP3    H281309   7.569   1.774   2.379
10281TIP3   OH281310   7.444   1.730   2.682
10281TIP3    H181311   7.392   1.654   2.656
10281TIP3    H281312   7.501   1.698   2.752
10282TIP3   OH281313   7.295   1.306   3.177
10282TIP3    H181314   7.221   1.318   3.236
10282TIP3    H281315   7.356   1.376   3.199
10283TIP3   OH281316   7.376   1.100   1.654
10283TIP3    H181317   7.436   1.174   1.660
10283TIP3    H281318   7.400   1.044   1.729
10284TIP3   OH281319   7.454   0.930   1.853
10284TIP3    H181320   7.370   0.893   1.879
10284TIP3    H281321   7.507   0.927   1.932
10285TIP3   OH281322   7.466   1.213   2.352
10285TIP3    H181323   7.523   1.156   2.301
10285TIP3    H281324   7.484   1.301   2.318
10286TIP3   OH281325   7.281   1.516   2.620
10286TIP3    H181326   7.217   1.557   2.677
10286TIP3    H281327   7.234   1.499   2.539
10287TIP3   OH281328   7.443   0.896   1.483
10287TIP3    H181329   7.423   0.924   1.394
10287TIP3    H281330   7.412   0.968   1.538
10288TIP3   OH281331   7.211   0.817   1.904
10288TIP3    H181332   7.201   0.727   1.872
10288TIP3    H281333   7.174   0.816   1.992
10289TIP3   OH281334   5.725   1.001   2.332
10289TIP3    H181335   5.731   0.984   2.238
10289TIP3    H281336   5.735   0.915   2.373
10290TIP3   OH281337   7.353   0.982   2.910
10290TIP3    H181338   7.402   0.900   2.914
10290TIP3    H281339   7.396   1.032   2.840
10291TIP3   OH281340   7.494   0.742   2.918
10291TIP3    H181341   7.407   0.703   2.923
10291TIP3    H281342   7.552   0.676   2.957
10292TIP3   OH281343   7.200   0.448   1.364
10292TIP3    H181344   7.266   0.380   1.378
10292TIP3    H281345   7.123   0.416   1.411
10293TIP3   OH281346   7.224   0.567   1.752
10293TIP3    H181347   7.236   0.472   1.742
10293TIP3    H281348   7.293   0.605   1.698
10294TIP3   OH281349   7.251   0.614   2.318
10294TIP3    H181350   7.345   0.626   2.302
10294TIP3    H281351   7.241   0.629   2.412
10295TIP3   OH281352   7.279   0.691   2.584
10295TIP3    H181353   7.204   0.720   2.637
10295TIP3    H281354   7.332   0.771   2.574
10296TIP3   OH281355   5.767   0.542   2.896
10296TIP3    H181356   5.828   0.509   2.962
10296TIP3    H281357   5.688   0.488   2.907
10297TIP3   OH281358   7.598   0.151   3.129
10297TIP3    H181359   7.585   0.060   3.102
10297TIP3    H281360   7.562   0.203   3.058
10298TIP3   OH281361   7.237   0.294   1.740
10298TIP3    H181362   7.258   0.263   1.828
10298TIP3    H281363   7.152   0.255   1.721
10299TIP3   OH281364   5.730   0.406   2.260
10299TIP3    H181365   5.725   0.311   2.254
10299TIP3    H281366   5.805   0.423   2.317
10300TIP3   OH281367   7.467   0.306   2.941
10300TIP3    H181368   7.393   0.338   2.992
10300TIP3    H281369   7.427   0.255   2.870
10301TIP3   OH281370   7.420   0.278   1.400
10301TIP3    H181371   7.465   0.296   1.318
10301TIP3    H281372   7.480   0.308   1.468
10302TIP3   OH281373   5.674   0.354   1.721
10302TIP3    H181374   5.580   0.338   1.735
10302TIP3    H281375   5.677   0.420   1.653
10303TIP3   OH281376   7.203   1.748   1.990
10303TIP3    H181377   7.258   1.753   1.912
10303TIP3    H281378   7.212   1.833   2.032
10304TIP3   OH281379   5.725   0.136   2.572
10304TIP3    H181380   5.644   0.138   2.623
10304TIP3    H281381   5.697   0.119   2.482
10305TIP3   OH281382   5.909   1.533   2.985
10305TIP3    H181383   5.825   1.532   2.940
10305TIP3    H281384   5.893   1.482   3.065
10306TIP3   OH281385   6.239   1.676   2.643
10306TIP3    H181386   6.204   1.747   2.589
10306TIP3    H281387   6.324   1.656   2.604
10307TIP3   OH281388   6.615   1.695   2.902
10307TIP3    H181389   6.620   1.650   2.987
10307TIP3    H281390   6.698   1.742   2.895
10308TIP3   OH281391   6.848   1.845   2.883
10308TIP3    H181392   6.917   1.788   2.849
10308TIP3    H281393   6.888   1.885   2.961
10309TIP3   OH281394   7.329   0.163   2.743
10309TIP3    H181395   7.291   0.181   2.657
10309TIP3    H281396   7.303   0.074   2.763
10310TIP3   OH281397   5.929   1.886   2.650
10310TIP3    H181398   5.847   1.923   2.617
10310TIP3    H281399   5.940   1.925   2.736
10311TIP3   OH281400   6.165   1.925   2.513
10311TIP3    H181401   6.082   1.902   2.554
10311TIP3    H281402   6.149   2.010   2.472
10312TIP3   OH281403   6.665   1.855   2.444
10312TIP3    H181404   6.616   1.911   2.385
10312TIP3    H281405   6.683   1.911   2.520
10313TIP3   OH281406   7.054   1.830   2.533
10313TIP3    H181407   7.019   1.915   2.557
10313TIP3    H281408   7.135   1.849   2.486
10314TIP3   OH281409   5.915   1.723   2.295
10314TIP3    H181410   5.899   1.680   2.379
10314TIP3    H281411   5.989   1.676   2.257
10315TIP3   OH281412   6.123   1.576   2.186
10315TIP3    H181413   6.101   1.483   2.192
10315TIP3    H281414   6.208   1.583   2.229
10316TIP3   OH281415   6.750   0.268   2.167
10316TIP3    H181416   6.678   0.240   2.224
10316TIP3    H281417   6.792   0.186   2.140
10317TIP3   OH281418   7.167   0.035   2.178
10317TIP3    H181419   7.206   0.090   2.110
10317TIP3    H281420   7.073   0.049   2.169
10318TIP3   OH281421   7.273   0.235   2.006
10318TIP3    H181422   7.360   0.216   2.041
10318TIP3    H281423   7.234   0.296   2.069
10319TIP3   OH281424   5.868   0.216   1.960
10319TIP3    H181425   5.842   0.126   1.939
10319TIP3    H281426   5.922   0.208   2.038
10320TIP3   OH281427   5.834   0.138   1.647
10320TIP3    H181428   5.896   0.191   1.597
10320TIP3    H281429   5.776   0.201   1.689
10321TIP3   OH281430   6.547   0.103   2.008
10321TIP3    H181431   6.476   0.072   1.952
10321TIP3    H281432   6.539   0.051   2.088
10322TIP3   OH281433   6.891   0.023   2.131
10322TIP3    H181434   6.898   8.118   2.049
10322TIP3    H281435   6.873   8.101   2.197
10323TIP3   OH281436   7.009   0.048   1.587
10323TIP3    H181437   6.972   0.124   1.632
10323TIP3    H281438   7.062   0.005   1.654
10324TIP3   OH281439   5.788   1.718   1.639
10324TIP3    H181440   5.724   1.714   1.567
10324TIP3    H281441   5.822   1.808   1.635
10325TIP3   OH281442   5.995   0.311   1.501
10325TIP3    H181443   6.020   0.338   1.413
10325TIP3    H281444   6.077   0.311   1.550
10326TIP3   OH281445   6.517   0.329   1.601
10326TIP3    H181446   6.567   0.266   1.652
10326TIP3    H281447   6.523   0.411   1.650
10327TIP3   OH281448   6.691   1.749   1.464
10327TIP3    H181449   6.785   1.752   1.444
10327TIP3    H281450   6.662   1.666   1.426
10328TIP3   OH281451   7.362   1.790   1.765
10328TIP3    H181452   7.339   1.703   1.732
10328TIP3    H281453   7.342   1.849   1.693
10329TIP3   OH281454   5.961   0.179   2.858
10329TIP3    H181455   5.890   0.122   2.831
10329TIP3    H281456   6.003   0.133   2.931
10330TIP3   OH281457   6.103   0.067   3.068
10330TIP3    H181458   6.198   0.059   3.059
10330TIP3    H281459   6.070   8.122   3.055
10331TIP3   OH281460   6.106   1.686   1.297
10331TIP3    H181461   6.036   1.742   1.332
10331TIP3    H281462   6.164   1.671   1.371
10332TIP3   OH281463   7.010   0.039   3.159
10332TIP3    H181464   6.970   8.129   3.227
10332TIP3    H281465   7.037   8.121   3.092
10333TIP3   OH281466   7.283   1.657   2.967
10333TIP3    H181467   7.219   1.654   2.896
10333TIP3    H281468   7.281   1.748   2.996
10334TIP3   OH281469   7.932   0.852   2.541
10334TIP3    H181470   7.879   0.786   2.587
10334TIP3    H281471   7.896   0.936   2.571
10335TIP3   OH281472   7.902   1.616   2.140
10335TIP3    H181473   7.851   1.566   2.204
10335TIP3    H281474   7.973   1.556   2.114
10336TIP3   OH281475   7.622   0.735   1.734
10336TIP3    H181476   7.577   0.809   1.775
10336TIP3    H281477   7.555   0.696   1.677
10337TIP3   OH281478   7.644   0.901   2.048
10337TIP3    H181479   7.672   0.814   2.076
10337TIP3    H281480   7.715   0.934   1.994
10338TIP3   OH281481   8.060   0.397   2.163
10338TIP3    H181482   8.061   0.474   2.107
10338TIP3    H281483   8.036   0.325   2.105
10339TIP3   OH281484   7.734   0.655   2.129
10339TIP3    H181485   7.809   0.633   2.182
10339TIP3    H281486   7.755   0.621   2.042
10340TIP3   OH281487   7.930   0.376   2.586
10340TIP3    H181488   7.898   0.403   2.500
10340TIP3    H281489   7.852   0.370   2.640
10341TIP3   OH281490   7.890   0.515   2.341
10341TIP3    H181491   7.940   0.576   2.395
10341TIP3    H281492   7.955   0.475   2.284
10342TIP3   OH281493   0.015   1.325   2.734
10342TIP3    H181494   8.126   1.354   2.649
10342TIP3    H281495   8.083   1.290   2.779
10343TIP3   OH281496   7.570   1.299   1.671
10343TIP3    H181497   7.578   1.352   1.592
10343TIP3    H281498   7.568   1.362   1.743
10344TIP3   OH281499   8.083   0.905   2.017
10344TIP3    H181500   7.996   0.942   2.003
10344TIP3    H281501   8.067   0.812   2.035
10345TIP3   OH281502   7.823   1.071   2.670
10345TIP3    H181503   7.866   1.120   2.739
10345TIP3    H281504   7.754   1.022   2.714
10346TIP3   OH281505   8.049   1.555   2.924
10346TIP3    H181506   8.078   1.565   2.833
10346TIP3    H281507   7.965   1.510   2.917
10347TIP3   OH281508   7.847   0.963   1.869
10347TIP3    H181509   7.812   1.019   1.800
10347TIP3    H281510   7.913   0.909   1.825
10348TIP3   OH281511   7.578   1.224   2.613
10348TIP3    H181512   7.532   1.222   2.529
10348TIP3    H281513   7.632   1.145   2.612
10349TIP3   OH281514   7.536   1.475   2.292
10349TIP3    H181515   7.629   1.465   2.313
10349TIP3    H281516   7.511   1.557   2.336
10350TIP3   OH281517   7.877   1.766   1.901
10350TIP3    H181518   7.858   1.721   1.983
10350TIP3    H281519   7.799   1.752   1.847
10351TIP3   OH281520   7.774   1.401   2.710
10351TIP3    H181521   7.829   1.345   2.764
10351TIP3    H281522   7.706   1.342   2.677
10352TIP3   OH281523   0.053   0.373   2.409
10352TIP3    H181524   0.069   0.279   2.406
10352TIP3    H281525   0.023   0.395   2.321
10353TIP3   OH281526   8.107   0.641   2.523
10353TIP3    H181527   8.053   0.720   2.530
10353TIP3    H281528   0.019   0.656   2.447
10354TIP3   OH281529   8.035   0.627   2.007
10354TIP3    H181530   7.966   0.617   1.942
10354TIP3    H281531   8.115   0.604   1.960
10355TIP3   OH281532   7.809   0.663   2.697
10355TIP3    H181533   7.839   0.675   2.787
10355TIP3    H281534   7.766   0.578   2.697
10356TIP3   OH281535   7.610   0.421   1.977
10356TIP3    H181536   7.637   0.415   2.069
10356TIP3    H281537   7.545   0.351   1.966
10357TIP3   OH281538   7.592   0.397   1.588
10357TIP3    H181539   7.637   0.439   1.514
10357TIP3    H281540   7.543   0.468   1.629
10358TIP3   OH281541   7.808   0.579   1.862
10358TIP3    H181542   7.755   0.639   1.810
10358TIP3    H281543   7.753   0.502   1.874
10359TIP3   OH281544   8.103   0.501   1.477
10359TIP3    H181545   8.037   0.568   1.491
10359TIP3    H281546   8.123   0.505   1.384
10360TIP3   OH281547   7.925   1.228   2.886
10360TIP3    H181548   7.996   1.207   2.946
10360TIP3    H281549   7.845   1.217   2.937
10361TIP3   OH281550   7.896   0.946   2.282
10361TIP3    H181551   7.963   0.998   2.239
10361TIP3    H281552   7.939   0.911   2.360
10362TIP3   OH281553   7.602   0.941   2.753
10362TIP3    H181554   7.592   0.870   2.817
10362TIP3    H281555   7.550   0.912   2.678
10363TIP3   OH281556   7.722   0.913   1.449
10363TIP3    H181557   7.743   0.966   1.525
10363TIP3    H281558   7.632   0.884   1.464
10364TIP3   OH281559   7.698   0.400   2.733
10364TIP3    H181560   7.608   0.426   2.714
10364TIP3    H281561   7.690   0.319   2.782
10365TIP3   OH281562   7.777   1.631   2.562
10365TIP3    H181563   7.778   1.556   2.623
10365TIP3    H281564   7.777   1.708   2.619
10366TIP3   OH281565   7.769   1.108   1.643
10366TIP3    H181566   7.694   1.164   1.666
10366TIP3    H281567   7.825   1.165   1.590
10367TIP3   OH281568   8.078   0.247   1.589
10367TIP3    H181569   8.070   0.339   1.563
10367TIP3    H281570   0.015   0.217   1.547
10368TIP3   OH281571   7.949   1.545   1.448
10368TIP3    H181572   8.044   1.535   1.452
10368TIP3    H281573   7.915   1.461   1.482
10369TIP3   OH281574   7.657   0.527   1.354
10369TIP3    H181575   7.729   0.569   1.307
10369TIP3    H281576   7.578   0.569   1.319
10370TIP3   OH281577   7.549   1.532   1.813
10370TIP3    H181578   7.457   1.540   1.789
10370TIP3    H281579   7.592   1.605   1.769
10371TIP3   OH281580   7.669   1.805   3.030
10371TIP3    H181581   7.691   1.754   3.108
10371TIP3    H281582   7.626   1.742   2.971
10372TIP3   OH281583   7.698   1.175   3.030
10372TIP3    H181584   7.704   1.080   3.024
10372TIP3    H281585   7.618   1.198   2.983
10373TIP3   OH281586   7.770   0.908   3.024
10373TIP3    H181587   7.807   0.827   2.988
10373TIP3    H281588   7.754   0.888   3.116
10374TIP3   OH281589   7.908   0.673   2.959
10374TIP3    H181590   7.895   0.580   2.973
10374TIP3    H281591   7.986   0.695   3.011
10375TIP3   OH281592   7.899   0.405   2.997
10375TIP3    H181593   7.873   0.329   2.944
10375TIP3    H281594   7.904   0.371   3.086
10376TIP3   OH281595   7.633   1.454   1.449
10376TIP3    H181596   7.679   1.538   1.456
10376TIP3    H281597   7.702   1.391   1.430
10377TIP3   OH281598   7.567   1.921   1.912
10377TIP3    H181599   7.504   1.878   1.854
10377TIP3    H281600   7.585   1.857   1.981
10378TIP3   OH281601   7.624   1.729   2.093
10378TIP3    H181602   7.588   1.641   2.096
10378TIP3    H281603   7.670   1.740   2.176
10379TIP3   OH281604   7.620   0.943   2.320
10379TIP3    H181605   7.603   0.931   2.226
10379TIP3    H281606   7.715   0.944   2.327
10380TIP3   OH281607   7.634   0.517   3.019
10380TIP3    H181608   7.717   0.479   2.990
10380TIP3    H281609   7.568   0.451   2.996
10381TIP3   OH281610   7.678   0.356   2.244
10381TIP3    H181611   7.614   0.349   2.314
10381TIP3    H281612   7.748   0.409   2.280
10382TIP3   OH281613   7.525   0.634   2.311
10382TIP3    H181614   7.587   0.630   2.238
10382TIP3    H281615   7.555   0.709   2.363
10383TIP3   OH281616   7.794   1.540   3.036
10383TIP3    H181617   7.717   1.542   2.979
10383TIP3    H281618   7.768   1.482   3.108
10384TIP3   OH281619   8.120   1.634   2.672
10384TIP3    H181620   8.092   1.720   2.638
10384TIP3    H281621   0.063   1.622   2.635
10385TIP3   OH281622   7.775   1.892   2.671
10385TIP3    H181623   7.710   1.950   2.630
10385TIP3    H281624   7.799   1.935   2.752
10386TIP3   OH281625   8.026   1.864   2.562
10386TIP3    H181626   7.935   1.878   2.589
10386TIP3    H281627   8.021   1.860   2.466
10387TIP3   OH281628   7.753   1.789   2.340
10387TIP3    H181629   7.761   1.731   2.417
10387TIP3    H281630   7.844   1.809   2.317
10388TIP3   OH281631   8.029   1.803   2.292
10388TIP3    H181632   7.995   1.752   2.219
10388TIP3    H281633   8.122   1.782   2.295
10389TIP3   OH281634   7.657   1.733   1.650
10389TIP3    H181635   7.590   1.731   1.581
10389TIP3    H281636   7.696   1.820   1.643
10390TIP3   OH281637   7.812   0.167   2.907
10390TIP3    H181638   7.818   0.087   2.855
10390TIP3    H281639   7.780   0.138   2.993
10391TIP3   OH281640   8.126   0.074   3.110
10391TIP3    H181641   0.009   0.038   3.026
10391TIP3    H281642   8.059   0.013   3.142
10392TIP3   OH281643   7.847   1.769   1.323
10392TIP3    H181644   7.834   1.831   1.395
10392TIP3    H281645   7.885   1.692   1.365
10393TIP3   OH281646   1.132   2.869   1.951
10393TIP3    H181647   1.139   2.963   1.934
10393TIP3    H281648   1.085   2.835   1.875
10394TIP3   OH281649   1.110   2.872   2.233
10394TIP3    H181650   1.105   2.781   2.262
10394TIP3    H281651   1.111   2.867   2.137
10395TIP3   OH281652   1.471   3.157   2.113
10395TIP3    H181653   1.441   3.082   2.164
10395TIP3    H281654   1.496   3.222   2.179
10396TIP3   OH281655   0.415   3.245   2.260
10396TIP3    H181656   0.409   3.159   2.217
10396TIP3    H281657   0.508   3.255   2.280
10397TIP3   OH281658   0.909   3.082   2.337
10397TIP3    H181659   0.957   3.021   2.281
10397TIP3    H281660   0.974   3.114   2.399
10398TIP3   OH281661   1.191   2.587   2.331
10398TIP3    H181662   1.169   2.499   2.362
10398TIP3    H281663   1.212   2.575   2.238
10399TIP3   OH281664   1.400   2.374   1.919
10399TIP3    H181665   1.359   2.293   1.891
10399TIP3    H281666   1.471   2.388   1.856
10400TIP3   OH281667   0.738   2.659   2.181
10400TIP3    H181668   0.820   2.610   2.172
10400TIP3    H281669   0.737   2.717   2.105
10401TIP3   OH281670   1.834   2.369   2.644
10401TIP3    H181671   1.783   2.448   2.626
10401TIP3    H281672   1.891   2.393   2.716
10402TIP3   OH281673   1.157   3.120   1.852
10402TIP3    H181674   1.113   3.154   1.774
10402TIP3    H281675   1.233   3.176   1.863
10403TIP3   OH281676   0.703   2.977   2.501
10403TIP3    H181677   0.649   3.051   2.528
10403TIP3    H281678   0.763   3.014   2.435
10404TIP3   OH281679   0.561   3.196   2.591
10404TIP3    H181680   0.578   3.290   2.590
10404TIP3    H281681   0.468   3.189   2.614
10405TIP3   OH281682   0.189   3.176   1.699
10405TIP3    H181683   0.168   3.174   1.605
10405TIP3    H281684   0.236   3.095   1.714
10406TIP3   OH281685   1.514   3.366   2.295
10406TIP3    H181686   1.439   3.371   2.353
10406TIP3    H281687   1.513   3.448   2.246
10407TIP3   OH281688   1.394   3.254   1.867
10407TIP3    H181689   1.449   3.207   1.805
10407TIP3    H281690   1.426   3.227   1.953
10408TIP3   OH281691   1.620   3.134   2.678
10408TIP3    H181692   1.612   3.080   2.599
10408TIP3    H281693   1.616   3.224   2.645
10409TIP3   OH281694   1.013   2.795   1.697
10409TIP3    H181695   0.922   2.824   1.696
10409TIP3    H281696   1.044   2.811   1.608
10410TIP3   OH281697   1.129   2.760   1.433
10410TIP3    H181698   1.213   2.769   1.477
10410TIP3    H281699   1.112   2.666   1.431
10411TIP3   OH281700   1.747   2.783   2.545
10411TIP3    H181701   1.697   2.855   2.506
10411TIP3    H281702   1.820   2.769   2.484
10412TIP3   OH281703   1.390   2.846   1.824
10412TIP3    H181704   1.316   2.854   1.885
10412TIP3    H281705   1.454   2.793   1.872
10413TIP3   OH281706   1.397   2.637   2.753
10413TIP3    H181707   1.413   2.710   2.813
10413TIP3    H281708   1.331   2.670   2.692
10414TIP3   OH281709   0.697   3.269   2.253
10414TIP3    H181710   0.698   3.276   2.158
10414TIP3    H281711   0.771   3.211   2.274
10415TIP3   OH281712   1.314   3.377   2.486
10415TIP3    H181713   1.287   3.354   2.575
10415TIP3    H281714   1.231   3.384   2.437
10416TIP3   OH281715   0.701   3.234   2.835
10416TIP3    H181716   0.632   3.276   2.885
10416TIP3    H281717   0.658   3.205   2.754
10417TIP3   OH281718   1.369   2.804   1.557
10417TIP3    H181719   1.368   2.822   1.652
10417TIP3    H281720   1.418   2.878   1.520
10418TIP3   OH281721   0.381   2.837   2.777
10418TIP3    H181722   0.393   2.922   2.818
10418TIP3    H281723   0.335   2.856   2.695
10419TIP3   OH281724   0.473   3.392   2.912
10419TIP3    H181725   0.486   3.419   2.821
10419TIP3    H281726   0.378   3.389   2.923
10420TIP3   OH281727   0.087   3.064   2.727
10420TIP3    H181728   0.027   3.105   2.666
10420TIP3    H281729   0.066   2.970   2.722
10421TIP3   OH281730   0.163   3.343   2.367
10421TIP3    H181731   0.242   3.293   2.346
10421TIP3    H281732   0.178   3.376   2.455
10422TIP3   OH281733   1.848   3.385   2.917
10422TIP3    H181734   1.832   3.291   2.908
10422TIP3    H281735   1.819   3.406   3.006
10423TIP3   OH281736   0.955   3.331   2.818
10423TIP3    H181737   0.951   3.421   2.850
10423TIP3    H281738   0.866   3.297   2.828
10424TIP3   OH281739   0.369   3.600   1.945
10424TIP3    H181740   0.367   3.560   2.032
10424TIP3    H281741   0.323   3.538   1.889
10425TIP3   OH281742   1.581   2.519   2.956
10425TIP3    H181743   1.503   2.541   2.906
10425TIP3    H281744   1.562   2.433   2.994
10426TIP3   OH281745   0.315   3.212   2.712
10426TIP3    H181746   0.354   3.181   2.794
10426TIP3    H281747   0.233   3.163   2.705
10427TIP3   OH281748   1.355   2.365   2.742
10427TIP3    H181749   1.287   2.347   2.806
10427TIP3    H281750   1.364   2.460   2.742
10428TIP3   OH281751   1.120   2.562   1.801
10428TIP3    H181752   1.077   2.639   1.766
10428TIP3    H281753   1.193   2.546   1.741
10429TIP3   OH281754   1.028   2.580   2.944
10429TIP3    H181755   0.984   2.506   2.986
10429TIP3    H281756   1.111   2.587   2.991
10430TIP3   OH281757   1.227   2.539   2.058
10430TIP3    H181758   1.185   2.572   1.979
10430TIP3    H281759   1.288   2.472   2.027
10431TIP3   OH281760   1.186   2.703   2.582
10431TIP3    H181761   1.203   2.677   2.491
10431TIP3    H281762   1.118   2.643   2.612
10432TIP3   OH281763   0.857   2.282   2.035
10432TIP3    H181764   0.872   2.366   2.077
10432TIP3    H281765   0.913   2.221   2.083
10433TIP3   OH281766   1.088   2.328   2.358
10433TIP3    H181767   1.101   2.290   2.445
10433TIP3    H281768   1.079   2.252   2.300
10434TIP3   OH281769   0.387   3.065   2.934
10434TIP3    H181770   0.452   3.056   3.004
10434TIP3    H281771   0.304   3.080   2.980
10435TIP3   OH281772   0.962   2.497   2.168
10435TIP3    H181773   1.043   2.517   2.120
10435TIP3    H281774   0.993   2.456   2.250
10436TIP3   OH281775   0.866   3.171   1.638
10436TIP3    H181776   0.827   3.085   1.624
10436TIP3    H281777   0.861   3.185   1.733
10437TIP3   OH281778   1.584   2.991   2.448
10437TIP3    H181779   1.653   3.039   2.401
10437TIP3    H281780   1.516   2.976   2.383
10438TIP3   OH281781   1.248   2.322   1.473
10438TIP3    H181782   1.258   2.340   1.379
10438TIP3    H281783   1.278   2.401   1.517
10439TIP3   OH281784   1.011   3.047   2.807
10439TIP3    H181785   1.031   3.018   2.896
10439TIP3    H281786   0.998   3.141   2.815
10440TIP3   OH281787   1.342   2.536   1.624
10440TIP3    H181788   1.424   2.504   1.661
10440TIP3    H281789   1.363   2.626   1.596
10441TIP3   OH281790   0.468   2.990   2.154
10441TIP3    H181791   0.491   2.947   2.072
10441TIP3    H281792   0.521   2.945   2.220
10442TIP3   OH281793   1.049   3.244   1.444
10442TIP3    H181794   1.092   3.314   1.494
10442TIP3    H281795   0.983   3.209   1.504
10443TIP3   OH281796   0.050   2.797   2.763
10443TIP3    H181797   0.088   2.765   2.845
10443TIP3    H281798   0.042   2.720   2.708
10444TIP3   OH281799   0.800   2.742   2.961
10444TIP3    H181800   0.755   2.737   2.877
10444TIP3    H281801   0.884   2.698   2.946
10445TIP3   OH281802   1.211   3.298   2.724
10445TIP3    H181803   1.127   3.321   2.764
10445TIP3    H281804   1.259   3.254   2.794
10446TIP3   OH281805   1.826   3.113   2.850
10446TIP3    H181806   1.740   3.123   2.810
10446TIP3    H281807   1.886   3.104   2.776
10447TIP3   OH281808   1.383   2.936   2.265
10447TIP3    H181809   1.288   2.930   2.262
10447TIP3    H281810   1.414   2.850   2.235
10448TIP3   OH281811   0.609   3.342   1.970
10448TIP3    H181812   0.634   3.422   1.924
10448TIP3    H281813   0.516   3.331   1.950
10449TIP3   OH281814   0.791   3.146   1.904
10449TIP3    H181815   0.723   3.209   1.930
10449TIP3    H281816   0.742   3.068   1.878
10450TIP3   OH281817   0.625   3.591   1.829
10450TIP3    H181818   0.541   3.616   1.866
10450TIP3    H281819   0.679   3.670   1.836
10451TIP3   OH281820   1.123   3.124   2.518
10451TIP3    H181821   1.124   3.189   2.589
10451TIP3    H281822   1.215   3.112   2.496
10452TIP3   OH281823   1.523   3.060   1.707
10452TIP3    H181824   1.474   2.993   1.754
10452TIP3    H281825   1.614   3.036   1.720
10453TIP3   OH281826   0.202   3.452   2.633
10453TIP3    H181827   0.246   3.376   2.672
10453TIP3    H281828   0.262   3.525   2.648
10454TIP3   OH281829   0.676   3.292   1.461
10454TIP3    H181830   0.737   3.252   1.523
10454TIP3    H281831   0.665   3.382   1.492
10455TIP3   OH281832   1.137   2.236   2.618
10455TIP3    H181833   1.227   2.267   2.621
10455TIP3    H281834   1.112   2.224   2.710
10456TIP3   OH281835   1.230   2.187   1.713
10456TIP3    H181836   1.242   2.222   1.625
10456TIP3    H281837   1.146   2.223   1.741
10457TIP3   OH281838   0.992   2.310   1.794
10457TIP3    H181839   1.023   2.401   1.794
10457TIP3    H281840   0.935   2.304   1.870
10458TIP3   OH281841   1.005   2.520   2.677
10458TIP3    H181842   1.010   2.540   2.770
10458TIP3    H281843   1.009   2.425   2.672
10459TIP3   OH281844   0.641   3.551   1.550
10459TIP3    H181845   0.697   3.625   1.525
10459TIP3    H281846   0.633   3.558   1.645
10460TIP3   OH281847   1.598   2.227   2.712
10460TIP3    H181848   1.517   2.278   2.713
10460TIP3    H281849   1.661   2.283   2.666
10461TIP3   OH281850   1.452   2.680   2.182
10461TIP3    H181851   1.377   2.628   2.153
10461TIP3    H281852   1.501   2.621   2.239
10462TIP3   OH281853   0.416   3.204   1.396
10462TIP3    H181854   0.497   3.238   1.435
10462TIP3    H281855   0.446   3.150   1.322
10463TIP3   OH281856   0.245   3.434   1.770
10463TIP3    H181857   0.222   3.342   1.759
10463TIP3    H281858   0.254   3.468   1.681
10464TIP3   OH281859   0.110   3.718   2.995
10464TIP3    H181860   0.166   3.689   3.067
10464TIP3    H281861   0.084   3.637   2.951
10465TIP3   OH281862   0.546   3.539   3.136
10465TIP3    H181863   0.622   3.493   3.171
10465TIP3    H281864   0.521   3.488   3.059
10466TIP3   OH281865   1.243   3.401   3.067
10466TIP3    H181866   1.258   3.313   3.034
10466TIP3    H281867   1.326   3.426   3.108
10467TIP3   OH281868   0.116   3.036   3.007
10467TIP3    H181869   0.139   2.944   3.001
10467TIP3    H281870   0.097   3.062   2.917
10468TIP3   OH281871   0.723   3.010   3.008
10468TIP3    H181872   0.752   3.075   2.944
10468TIP3    H281873   0.775   2.933   2.989
10469TIP3   OH281874   1.329   2.989   2.670
10469TIP3    H181875   1.420   2.981   2.641
10469TIP3    H281876   1.335   3.033   2.755
10470TIP3   OH281877   0.218   2.770   2.991
10470TIP3    H181878   0.284   2.781   2.923
10470TIP3    H281879   0.268   2.763   3.073
10471TIP3   OH281880   0.646   2.762   2.721
10471TIP3    H181881   0.556   2.770   2.752
10471TIP3    H281882   0.657   2.834   2.659
10472TIP3   OH281883   1.075   2.960   3.061
10472TIP3    H181884   1.164   2.993   3.049
10472TIP3    H281885   1.084   2.887   3.122
10473TIP3   OH281886   0.909   2.816   2.586
10473TIP3    H181887   0.868   2.735   2.616
10473TIP3    H281888   0.836   2.868   2.552
10474TIP3   OH281889   1.242   2.567   3.125
10474TIP3    H181890   1.247   2.490   3.182
10474TIP3    H281891   1.319   2.619   3.148
10475TIP3   OH281892   1.450   2.840   2.929
10475TIP3    H181893   1.412   2.927   2.937
10475TIP3    H281894   1.545   2.854   2.932
10476TIP3   OH281895   0.910   2.355   3.049
10476TIP3    H181896   0.924   2.326   3.139
10476TIP3    H281897   0.816   2.343   3.034
10477TIP3   OH281898   1.131   2.277   2.895
10477TIP3    H181899   1.050   2.299   2.940
10477TIP3    H281900   1.191   2.250   2.964
10478TIP3   OH281901   1.303   2.217   3.103
10478TIP3    H181902   1.318   2.124   3.120
10478TIP3    H281903   1.274   2.252   3.187
10479TIP3   OH281904   0.806   1.923   2.888
10479TIP3    H181905   0.863   1.847   2.880
10479TIP3    H281906   0.777   1.940   2.799
10480TIP3   OH281907   0.719   2.026   3.127
10480TIP3    H181908   0.758   1.992   3.046
10480TIP3    H281909   0.720   2.121   3.116
10481TIP3   OH281910   0.807   3.764   1.479
10481TIP3    H181911   0.881   3.804   1.525
10481TIP3    H281912   0.821   3.785   1.387
10482TIP3   OH281913   0.154   3.278   1.393
10482TIP3    H181914   0.246   3.253   1.400
10482TIP3    H281915   0.138   3.284   1.299
10483TIP3   OH281916   0.045   3.604   2.128
10483TIP3    H181917   8.125   3.627   2.061
10483TIP3    H281918   0.094   3.531   2.089
10484TIP3   OH281919   0.174   3.373   2.077
10484TIP3    H181920   0.172   3.293   2.024
10484TIP3    H281921   0.169   3.341   2.167
10485TIP3   OH281922   1.838   3.500   2.664
10485TIP3    H181923   1.755   3.466   2.631
10485TIP3    H281924   1.840   3.472   2.756
10486TIP3   OH281925   1.632   3.171   3.152
10486TIP3    H181926   1.552   3.187   3.103
10486TIP3    H281927   1.672   3.258   3.162
10487TIP3   OH281928   1.790   2.968   1.730
10487TIP3    H181929   1.853   3.039   1.722
10487TIP3    H281930   1.814   2.906   1.661
10488TIP3   OH281931   1.825   3.108   2.374
10488TIP3    H181932   1.865   3.044   2.315
10488TIP3    H281933   1.861   3.192   2.347
10489TIP3   OH281934   1.601   3.387   2.560
10489TIP3    H181935   1.506   3.396   2.568
10489TIP3    H281936   1.616   3.375   2.466
10490TIP3   OH281937   1.574   2.670   1.938
10490TIP3    H181938   1.549   2.579   1.925
10490TIP3    H281939   1.553   2.687   2.030
10491TIP3   OH281940   1.722   2.872   2.949
10491TIP3    H181941   1.764   2.797   2.907
10491TIP3    H281942   1.761   2.948   2.906
10492TIP3   OH281943   1.811   2.633   2.853
10492TIP3    H181944   1.727   2.596   2.882
10492TIP3    H281945   1.876   2.566   2.876
10493TIP3   OH281946   1.594   2.444   1.727
10493TIP3    H181947   1.630   2.372   1.676
10493TIP3    H281948   1.667   2.505   1.737
10494TIP3   OH281949   1.597   2.500   2.330
10494TIP3    H181950   1.662   2.432   2.313
10494TIP3    H281951   1.601   2.515   2.424
10495TIP3   OH281952   1.622   2.551   2.602
10495TIP3    H181953   1.547   2.575   2.657
10495TIP3    H281954   1.672   2.632   2.592
10496TIP3   OH281955   0.133   2.444   2.993
10496TIP3    H181956   0.179   2.506   2.936
10496TIP3    H281957   0.127   2.364   2.942
10497TIP3   OH281958   1.854   1.991   3.084
10497TIP3    H181959   1.927   1.932   3.063
10497TIP3    H281960   1.855   2.056   3.014
10498TIP3   OH281961   1.771   2.208   2.931
10498TIP3    H181962   1.707   2.233   2.998
10498TIP3    H281963   1.720   2.204   2.850
10499TIP3   OH281964   1.824   2.232   1.482
10499TIP3    H181965   1.876   2.153   1.468
10499TIP3    H281966   1.868   2.299   1.430
10500TIP3   OH281967   0.083   2.047   2.578
10500TIP3    H181968   0.011   1.984   2.589
10500TIP3    H281969   0.055   2.102   2.504
10501TIP3   OH281970   0.200   3.396   2.974
10501TIP3    H181971   0.107   3.392   2.951
10501TIP3    H281972   0.200   3.427   3.065
10502TIP3   OH281973   0.585   3.462   2.662
10502TIP3    H181974   0.565   3.537   2.606
10502TIP3    H281975   0.670   3.481   2.699
10503TIP3   OH281976   0.954   3.600   2.909
10503TIP3    H181977   0.964   3.572   3.000
10503TIP3    H281978   1.040   3.635   2.885
10504TIP3   OH281979   1.662   1.962   2.727
10504TIP3    H181980   1.628   2.050   2.709
10504TIP3    H281981   1.660   1.918   2.642
10505TIP3   OH281982   0.300   3.773   2.619
10505TIP3    H181983   0.267   3.844   2.563
10505TIP3    H281984   0.298   3.810   2.707
10506TIP3   OH281985   0.534   3.676   2.509
10506TIP3    H181986   0.457   3.710   2.554
10506TIP3    H281987   0.578   3.754   2.474
10507TIP3   OH281988   0.231   3.625   2.384
10507TIP3    H181989   0.269   3.679   2.453
10507TIP3    H281990   0.306   3.599   2.330
10508TIP3   OH281991   0.430   3.527   2.210
10508TIP3    H181992   0.409   3.434   2.217
10508TIP3    H281993   0.525   3.531   2.223
10509TIP3   OH281994   0.691   3.545   2.295
10509TIP3    H181995   0.706   3.451   2.301
10509TIP3    H281996   0.662   3.570   2.383
10510TIP3   OH281997   1.035   2.117   2.174
10510TIP3    H181998   1.008   2.035   2.215
10510TIP3    H281999   1.095   2.090   2.104
10511TIP3   OH282000   0.293   1.994   1.920
10511TIP3    H182001   0.258   2.013   2.006
10511TIP3    H282002   0.343   1.913   1.931
10512TIP3   OH282003   0.729   1.993   1.894
10512TIP3    H182004   0.784   2.019   1.820
10512TIP3    H282005   0.694   2.075   1.927
10513TIP3   OH282006   0.207   3.528   1.513
10513TIP3    H182007   0.175   3.449   1.470
10513TIP3    H282008   0.127   3.574   1.541
10514TIP3   OH282009   0.863   2.090   1.674
10514TIP3    H182010   0.938   2.052   1.628
10514TIP3    H282011   0.892   2.177   1.700
10515TIP3   OH282012   0.444   2.001   3.081
10515TIP3    H182013   0.539   2.005   3.089
10515TIP3    H282014   0.420   1.913   3.111
10516TIP3   OH282015   0.403   3.716   1.403
10516TIP3    H182016   0.315   3.684   1.423
10516TIP3    H282017   0.462   3.648   1.436
10517TIP3   OH282018   1.382   1.959   3.136
10517TIP3    H182019   1.372   1.896   3.208
10517TIP3    H282020   1.456   1.926   3.086
10518TIP3   OH282021   3.097   2.964   1.915
10518TIP3    H182022   3.071   3.055   1.900
10518TIP3    H282023   3.018   2.913   1.896
10519TIP3   OH282024   3.392   3.075   2.177
10519TIP3    H182025   3.358   2.988   2.199
10519TIP3    H282026   3.460   3.058   2.112
10520TIP3   OH282027   2.317   3.251   2.272
10520TIP3    H182028   2.314   3.233   2.366
10520TIP3    H282029   2.411   3.257   2.252
10521TIP3   OH282030   3.663   2.235   2.458
10521TIP3    H182031   3.670   2.282   2.541
10521TIP3    H282032   3.722   2.282   2.399
10522TIP3   OH282033   3.151   2.550   2.354
10522TIP3    H182034   3.159   2.459   2.382
10522TIP3    H282035   3.112   2.545   2.267
10523TIP3   OH282036   3.259   2.314   1.961
10523TIP3    H182037   3.308   2.281   2.037
10523TIP3    H282038   3.317   2.299   1.887
10524TIP3   OH282039   3.684   2.383   2.684
10524TIP3    H182040   3.636   2.461   2.656
10524TIP3    H282041   3.749   2.417   2.747
10525TIP3   OH282042   2.330   2.219   2.531
10525TIP3    H182043   2.292   2.175   2.455
10525TIP3    H282044   2.256   2.232   2.590
10526TIP3   OH282045   3.390   2.242   2.195
10526TIP3    H182046   3.313   2.244   2.251
10526TIP3    H282047   3.447   2.311   2.229
10527TIP3   OH282048   2.399   3.239   2.553
10527TIP3    H182049   2.424   3.331   2.563
10527TIP3    H282050   2.317   3.230   2.601
10528TIP3   OH282051   1.987   3.155   1.698
10528TIP3    H182052   2.010   3.177   1.608
10528TIP3    H282053   2.018   3.230   1.749
10529TIP3   OH282054   3.409   2.115   2.493
10529TIP3    H182055   3.339   2.171   2.460
10529TIP3    H282056   3.490   2.161   2.469
10530TIP3   OH282057   3.493   3.129   2.709
10530TIP3    H182058   3.481   3.067   2.638
10530TIP3    H282059   3.506   3.213   2.665
10531TIP3   OH282060   2.918   2.825   1.707
10531TIP3    H182061   2.885   2.914   1.694
10531TIP3    H282062   2.994   2.819   1.649
10532TIP3   OH282063   3.025   2.676   1.311
10532TIP3    H182064   3.051   2.715   1.395
10532TIP3    H282065   3.103   2.631   1.280
10533TIP3   OH282066   3.672   2.790   2.544
10533TIP3    H182067   3.605   2.858   2.535
10533TIP3    H282068   3.731   2.806   2.470
10534TIP3   OH282069   3.310   2.865   1.769
10534TIP3    H182070   3.247   2.898   1.833
10534TIP3    H282071   3.371   2.811   1.820
10535TIP3   OH282072   3.283   2.663   2.720
10535TIP3    H182073   3.294   2.735   2.782
10535TIP3    H282074   3.218   2.696   2.657
10536TIP3   OH282075   2.585   3.284   2.206
10536TIP3    H182076   2.590   3.290   2.110
10536TIP3    H282077   2.664   3.236   2.231
10537TIP3   OH282078   2.557   3.201   2.798
10537TIP3    H182079   2.507   3.267   2.846
10537TIP3    H282080   2.520   3.203   2.710
10538TIP3   OH282081   3.152   2.802   1.554
10538TIP3    H182082   3.215   2.827   1.621
10538TIP3    H282083   3.158   2.872   1.488
10539TIP3   OH282084   2.387   3.412   2.879
10539TIP3    H182085   2.391   3.453   2.793
10539TIP3    H282086   2.294   3.412   2.902
10540TIP3   OH282087   3.531   1.946   1.527
10540TIP3    H182088   3.450   1.967   1.574
10540TIP3    H282089   3.551   2.026   1.478
10541TIP3   OH282090   1.967   3.065   2.619
10541TIP3    H182091   1.912   3.067   2.541
10541TIP3    H282092   1.974   2.973   2.642
10542TIP3   OH282093   1.993   3.322   2.294
10542TIP3    H182094   2.081   3.303   2.263
10542TIP3    H282095   2.007   3.373   2.375
10543TIP3   OH282096   3.738   3.413   2.897
10543TIP3    H182097   3.725   3.318   2.907
10543TIP3    H282098   3.661   3.453   2.936
10544TIP3   OH282099   2.832   3.852   1.766
10544TIP3    H182100   2.817   3.862   1.672
10544TIP3    H282101   2.908   3.795   1.773
10545TIP3   OH282102   2.265   3.593   1.937
10545TIP3    H182103   2.278   3.572   2.029
10545TIP3    H282104   2.203   3.526   1.906
10546TIP3   OH282105   3.459   2.519   2.936
10546TIP3    H182106   3.392   2.549   2.874
10546TIP3    H282107   3.452   2.424   2.935
10547TIP3   OH282108   2.167   3.239   2.689
10547TIP3    H182109   2.195   3.207   2.775
10547TIP3    H282110   2.094   3.181   2.665
10548TIP3   OH282111   3.244   2.390   2.745
10548TIP3    H182112   3.169   2.372   2.801
10548TIP3    H282113   3.237   2.483   2.725
10549TIP3   OH282114   2.995   2.589   1.835
10549TIP3    H182115   2.961   2.667   1.793
10549TIP3    H282116   3.053   2.550   1.769
10550TIP3   OH282117   2.898   2.588   2.928
10550TIP3    H182118   2.857   2.513   2.971
10550TIP3    H282119   2.983   2.597   2.971
10551TIP3   OH282120   3.108   2.513   2.078
10551TIP3    H182121   3.056   2.551   2.008
10551TIP3    H282122   3.147   2.434   2.040
10552TIP3   OH282123   1.877   2.168   2.156
10552TIP3    H182124   1.922   2.236   2.206
10552TIP3    H282125   1.939   2.095   2.154
10553TIP3   OH282126   2.764   2.239   2.125
10553TIP3    H182127   2.695   2.199   2.178
10553TIP3    H282128   2.757   2.332   2.142
10554TIP3   OH282129   3.176   2.251   2.368
10554TIP3    H182130   3.119   2.256   2.446
10554TIP3    H282131   3.120   2.212   2.301
10555TIP3   OH282132   3.495   3.800   3.017
10555TIP3    H182133   3.514   3.832   2.929
10555TIP3    H282134   3.571   3.828   3.069
10556TIP3   OH282135   2.253   3.108   2.921
10556TIP3    H182136   2.316   3.098   2.993
10556TIP3    H282137   2.168   3.091   2.961
10557TIP3   OH282138   2.331   2.156   1.796
10557TIP3    H182139   2.254   2.114   1.834
10557TIP3    H282140   2.405   2.111   1.836
10558TIP3   OH282141   2.675   2.493   2.472
10558TIP3    H182142   2.689   2.556   2.402
10558TIP3    H282143   2.751   2.504   2.530
10559TIP3   OH282144   3.475   2.976   2.482
10559TIP3    H182145   3.542   3.022   2.432
10559TIP3    H282146   3.421   2.933   2.416
10560TIP3   OH282147   3.187   2.318   1.439
10560TIP3    H182148   3.094   2.298   1.431
10560TIP3    H282149   3.191   2.385   1.508
10561TIP3   OH282150   3.192   2.526   1.634
10561TIP3    H182151   3.277   2.512   1.675
10561TIP3    H282152   3.194   2.616   1.602
10562TIP3   OH282153   2.233   2.994   2.176
10562TIP3    H182154   2.232   3.089   2.186
10562TIP3    H282155   2.322   2.974   2.146
10563TIP3   OH282156   1.992   2.817   2.733
10563TIP3    H182157   2.036   2.807   2.818
10563TIP3    H282158   1.920   2.755   2.737
10564TIP3   OH282159   2.697   2.794   2.971
10564TIP3    H182160   2.639   2.799   2.894
10564TIP3    H282161   2.767   2.735   2.944
10565TIP3   OH282162   3.715   3.125   2.869
10565TIP3    H182163   3.626   3.132   2.835
10565TIP3    H282164   3.771   3.119   2.791
10566TIP3   OH282165   3.302   2.836   2.308
10566TIP3    H182166   3.222   2.803   2.349
10566TIP3    H282167   3.331   2.766   2.249
10567TIP3   OH282168   2.544   3.319   1.932
10567TIP3    H182169   2.572   3.406   1.905
10567TIP3    H282170   2.449   3.321   1.926
10568TIP3   OH282171   2.655   3.074   1.829
10568TIP3    H182172   2.649   3.167   1.852
10568TIP3    H282173   2.573   3.036   1.859
10569TIP3   OH282174   2.716   3.534   2.541
10569TIP3    H182175   2.764   3.608   2.505
10569TIP3    H282176   2.759   3.516   2.624
10570TIP3   OH282177   2.531   3.589   1.869
10570TIP3    H182178   2.436   3.596   1.881
10570TIP3    H282179   2.564   3.678   1.880
10571TIP3   OH282180   3.273   3.550   2.797
10571TIP3    H182181   3.232   3.464   2.807
10571TIP3    H282182   3.281   3.563   2.703
10572TIP3   OH282183   3.796   3.679   1.387
10572TIP3    H182184   3.846   3.755   1.414
10572TIP3    H282185   3.705   3.704   1.403
10573TIP3   OH282186   2.106   2.219   2.689
10573TIP3    H182187   2.021   2.192   2.654
10573TIP3    H282188   2.125   2.155   2.758
10574TIP3   OH282189   3.430   3.074   1.625
10574TIP3    H182190   3.385   3.007   1.676
10574TIP3    H282191   3.523   3.058   1.641
10575TIP3   OH282192   2.068   3.460   2.523
10575TIP3    H182193   2.115   3.402   2.583
10575TIP3    H282194   1.988   3.483   2.571
10576TIP3   OH282195   3.011   2.266   2.591
10576TIP3    H182196   3.058   2.254   2.674
10576TIP3    H282197   2.943   2.199   2.592
10577TIP3   OH282198   2.887   2.524   2.647
10577TIP3    H182199   2.897   2.540   2.740
10577TIP3    H282200   2.937   2.443   2.631
10578TIP3   OH282201   2.431   2.262   1.558
10578TIP3    H182202   2.396   2.239   1.645
10578TIP3    H282203   2.497   2.329   1.576
10579TIP3   OH282204   3.470   2.250   2.801
10579TIP3    H182205   3.385   2.284   2.769
10579TIP3    H282206   3.534   2.294   2.745
10580TIP3   OH282207   3.358   2.621   2.145
10580TIP3    H182208   3.270   2.585   2.131
10580TIP3    H282209   3.399   2.561   2.206
10581TIP3   OH282210   2.333   3.195   1.424
10581TIP3    H182211   2.381   3.262   1.473
10581TIP3    H282212   2.400   3.143   1.382
10582TIP3   OH282213   2.054   1.959   2.172
10582TIP3    H182214   2.107   1.970   2.094
10582TIP3    H282215   2.090   1.881   2.215
10583TIP3   OH282216   2.072   3.411   1.843
10583TIP3    H182217   2.015   3.446   1.911
10583TIP3    H282218   2.054   3.466   1.766
10584TIP3   OH282219   2.070   3.710   3.003
10584TIP3    H182220   2.127   3.706   3.079
10584TIP3    H282221   2.067   3.619   2.971
10585TIP3   OH282222   2.458   3.501   3.134
10585TIP3    H182223   2.533   3.448   3.161
10585TIP3    H282224   2.436   3.471   3.046
10586TIP3   OH282225   2.013   3.053   3.047
10586TIP3    H182226   2.029   2.959   3.037
10586TIP3    H282227   1.935   3.070   2.994
10587TIP3   OH282228   2.656   3.079   3.032
10587TIP3    H182229   2.640   3.115   2.944
10587TIP3    H282230   2.691   2.991   3.016
10588TIP3   OH282231   2.113   2.793   2.984
10588TIP3    H182232   2.203   2.770   2.964
10588TIP3    H282233   2.101   2.766   3.075
10589TIP3   OH282234   3.033   2.932   3.146
10589TIP3    H182235   3.122   2.896   3.143
10589TIP3    H282236   2.979   2.860   3.178
10590TIP3   OH282237   2.605   2.227   2.548
10590TIP3    H182238   2.628   2.315   2.518
10590TIP3    H282239   2.509   2.225   2.546
10591TIP3   OH282240   3.123   2.562   3.102
10591TIP3    H182241   3.131   2.480   3.150
10591TIP3    H282242   3.210   2.602   3.108
10592TIP3   OH282243   3.330   2.876   2.887
10592TIP3    H182244   3.300   2.958   2.848
10592TIP3    H282245   3.425   2.886   2.896
10593TIP3   OH282246   2.351   2.499   3.074
10593TIP3    H182247   2.283   2.436   3.050
10593TIP3    H282248   2.358   2.557   2.998
10594TIP3   OH282249   2.813   2.364   3.068
10594TIP3    H182250   2.842   2.337   3.156
10594TIP3    H282251   2.718   2.353   3.070
10595TIP3   OH282252   3.042   2.298   2.903
10595TIP3    H182253   2.962   2.313   2.954
10595TIP3    H282254   3.103   2.259   2.966
10596TIP3   OH282255   3.230   2.192   3.092
10596TIP3    H182256   3.214   2.098   3.101
10596TIP3    H282257   3.188   2.231   3.169
10597TIP3   OH282258   2.171   2.288   3.034
10597TIP3    H182259   2.173   2.216   2.971
10597TIP3    H282260   2.183   2.246   3.119
10598TIP3   OH282261   2.630   1.941   2.940
10598TIP3    H182262   2.685   1.866   2.918
10598TIP3    H282263   2.624   1.992   2.859
10599TIP3   OH282264   2.673   2.077   3.181
10599TIP3    H182265   2.669   2.023   3.102
10599TIP3    H282266   2.622   2.155   3.159
10600TIP3   OH282267   2.781   3.861   1.476
10600TIP3    H182268   2.819   3.800   1.413
10600TIP3    H282269   2.687   3.853   1.464
10601TIP3   OH282270   2.059   3.200   1.433
10601TIP3    H182271   2.155   3.199   1.433
10601TIP3    H282272   2.035   3.216   1.342
10602TIP3   OH282273   1.903   3.786   1.945
10602TIP3    H182274   1.817   3.782   1.902
10602TIP3    H282275   1.912   3.702   1.989
10603TIP3   OH282276   1.957   3.537   2.077
10603TIP3    H182277   1.913   3.462   2.117
10603TIP3    H282278   1.995   3.585   2.150
10604TIP3   OH282279   3.750   3.622   2.429
10604TIP3    H182280   3.751   3.712   2.460
10604TIP3    H282281   3.830   3.615   2.376
10605TIP3   OH282282   3.642   3.597   2.687
10605TIP3    H182283   3.681   3.587   2.600
10605TIP3    H282284   3.692   3.536   2.742
10606TIP3   OH282285   3.533   3.175   3.212
10606TIP3    H182286   3.446   3.204   3.240
10606TIP3    H282287   3.588   3.253   3.220
10607TIP3   OH282288   3.691   3.005   1.681
10607TIP3    H182289   3.764   3.068   1.687
10607TIP3    H282290   3.689   2.963   1.767
10608TIP3   OH282291   3.676   2.880   1.924
10608TIP3    H182292   3.618   2.804   1.927
10608TIP3    H282293   3.749   2.856   1.980
10609TIP3   OH282294   3.704   3.091   2.396
10609TIP3    H182295   3.763   3.032   2.348
10609TIP3    H282296   3.730   3.179   2.369
10610TIP3   OH282297   3.694   2.874   1.438
10610TIP3    H182298   3.600   2.858   1.435
10610TIP3    H282299   3.708   2.924   1.519
10611TIP3   OH282300   3.529   2.511   1.269
10611TIP3    H182301   3.601   2.568   1.296
10611TIP3    H282302   3.519   2.527   1.175
10612TIP3   OH282303   3.473   2.684   1.908
10612TIP3    H182304   3.463   2.603   1.857
10612TIP3    H282305   3.435   2.664   1.993
10613TIP3   OH282306   1.961   2.938   2.213
10613TIP3    H182307   1.934   2.897   2.130
10613TIP3    H282308   2.055   2.952   2.203
10614TIP3   OH282309   3.602   2.873   2.931
10614TIP3    H182310   3.651   2.794   2.908
10614TIP3    H282311   3.658   2.945   2.901
10615TIP3   OH282312   3.711   2.621   2.884
10615TIP3    H182313   3.624   2.586   2.905
10615TIP3    H282314   3.772   2.555   2.917
10616TIP3   OH282315   3.428   2.248   1.220
10616TIP3    H182316   3.472   2.327   1.251
10616TIP3    H282317   3.347   2.244   1.269
10617TIP3   OH282318   3.451   2.463   1.734
10617TIP3    H182319   3.457   2.369   1.751
10617TIP3    H282320   3.523   2.481   1.673
10618TIP3   OH282321   3.512   2.465   2.317
10618TIP3    H182322   3.607   2.477   2.305
10618TIP3    H282323   3.496   2.491   2.407
10619TIP3   OH282324   3.513   2.571   2.579
10619TIP3    H182325   3.433   2.600   2.623
10619TIP3    H282326   3.566   2.650   2.571
10620TIP3   OH282327   1.955   2.410   2.908
10620TIP3    H182328   2.039   2.376   2.940
10620TIP3    H282329   1.894   2.338   2.922
10621TIP3   OH282330   3.745   1.945   3.097
10621TIP3    H182331   3.819   1.951   3.158
10621TIP3    H282332   3.750   2.026   3.045
10622TIP3   OH282333   3.465   2.192   1.785
10622TIP3    H182334   3.541   2.143   1.816
10622TIP3    H282335   3.407   2.126   1.748
10623TIP3   OH282336   3.692   2.174   2.955
10623TIP3    H182337   3.626   2.212   3.013
10623TIP3    H282338   3.644   2.153   2.874
10624TIP3   OH282339   1.904   2.037   2.596
10624TIP3    H182340   1.837   2.011   2.659
10624TIP3    H282341   1.856   2.049   2.513
10625TIP3   OH282342   2.118   3.427   2.969
10625TIP3    H182343   2.032   3.409   2.931
10625TIP3    H282344   2.115   3.387   3.056
10626TIP3   OH282345   2.453   3.501   2.614
10626TIP3    H182346   2.422   3.590   2.600
10626TIP3    H282347   2.546   3.504   2.592
10627TIP3   OH282348   3.089   3.754   2.869
10627TIP3    H182349   3.152   3.686   2.847
10627TIP3    H282350   3.115   3.785   2.956
10628TIP3   OH282351   3.583   1.953   2.734
10628TIP3    H182352   3.513   1.993   2.682
10628TIP3    H282353   3.592   1.865   2.698
10629TIP3   OH282354   2.172   3.815   2.635
10629TIP3    H182355   2.083   3.779   2.624
10629TIP3    H282356   2.168   3.861   2.718
10630TIP3   OH282357   2.429   3.771   2.557
10630TIP3    H182358   2.339   3.789   2.585
10630TIP3    H282359   2.435   3.812   2.471
10631TIP3   OH282360   2.851   3.748   2.448
10631TIP3    H182361   2.842   3.811   2.377
10631TIP3    H282362   2.894   3.797   2.518
10632TIP3   OH282363   2.100   3.636   2.300
10632TIP3    H182364   2.086   3.592   2.384
10632TIP3    H282365   2.184   3.601   2.269
10633TIP3   OH282366   2.328   3.523   2.197
10633TIP3    H182367   2.322   3.431   2.223
10633TIP3    H282368   2.414   3.551   2.227
10634TIP3   OH282369   2.591   3.554   2.287
10634TIP3    H182370   2.603   3.464   2.257
10634TIP3    H282371   2.628   3.555   2.376
10635TIP3   OH282372   3.023   2.141   2.170
10635TIP3    H182373   2.936   2.177   2.151
10635TIP3    H282374   3.032   2.067   2.109
10636TIP3   OH282375   3.393   1.963   2.134
10636TIP3    H182376   3.411   2.055   2.154
10636TIP3    H282377   3.298   1.958   2.124
10637TIP3   OH282378   2.156   1.963   1.912
10637TIP3    H182379   2.071   1.962   1.869
10637TIP3    H282380   2.180   1.871   1.921
10638TIP3   OH282381   2.008   2.016   1.447
10638TIP3    H182382   2.098   2.048   1.441
10638TIP3    H282383   2.005   1.970   1.531
10639TIP3   OH282384   3.306   1.984   1.694
10639TIP3    H182385   3.214   1.985   1.668
10639TIP3    H282386   3.312   1.915   1.760
10640TIP3   OH282387   2.022   3.568   1.623
10640TIP3    H182388   1.952   3.534   1.566
10640TIP3    H282389   2.035   3.658   1.594
10641TIP3   OH282390   2.270   2.093   1.411
10641TIP3    H182391   2.344   2.048   1.371
10641TIP3    H282392   2.309   2.163   1.463
10642TIP3   OH282393   2.171   2.037   2.891
10642TIP3    H182394   2.116   1.966   2.924
10642TIP3    H282395   2.255   2.025   2.936
10643TIP3   OH282396   2.375   1.971   3.065
10643TIP3    H182397   2.462   1.947   3.033
10643TIP3    H282398   2.346   1.896   3.116
10644TIP3   OH282399   2.172   3.636   1.285
10644TIP3    H182400   2.139   3.722   1.309
10644TIP3    H282401   2.205   3.599   1.366
10645TIP3   OH282402   3.236   1.905   3.097
10645TIP3    H182403   3.240   1.867   3.184
10645TIP3    H282404   3.326   1.902   3.064
10646TIP3   OH282405   3.495   3.528   2.967
10646TIP3    H182406   3.422   3.531   2.905
10646TIP3    H282407   3.505   3.619   2.996
10647TIP3   OH282408   4.955   2.901   1.937
10647TIP3    H182409   4.897   2.967   1.975
10647TIP3    H282410   4.912   2.875   1.856
10648TIP3   OH282411   4.880   2.820   2.318
10648TIP3    H182412   4.895   2.777   2.403
10648TIP3    H282413   4.818   2.763   2.273
10649TIP3   OH282414   4.080   2.790   2.470
10649TIP3    H182415   4.113   2.799   2.559
10649TIP3    H282416   4.158   2.796   2.414
10650TIP3   OH282417   5.238   3.153   2.201
10650TIP3    H182418   5.197   3.067   2.212
10650TIP3    H282419   5.188   3.195   2.130
10651TIP3   OH282420   4.183   3.245   2.253
10651TIP3    H182421   4.151   3.161   2.222
10651TIP3    H282422   4.278   3.234   2.261
10652TIP3   OH282423   3.918   2.836   2.074
10652TIP3    H182424   3.974   2.774   2.027
10652TIP3    H282425   3.976   2.909   2.095
10653TIP3   OH282426   4.664   3.098   2.314
10653TIP3    H182427   4.698   3.060   2.234
10653TIP3    H282428   4.736   3.092   2.377
10654TIP3   OH282429   5.583   2.215   2.433
10654TIP3    H182430   5.603   2.295   2.482
10654TIP3    H282431   5.635   2.222   2.353
10655TIP3   OH282432   5.012   2.491   2.350
10655TIP3    H182433   5.040   2.400   2.360
10655TIP3    H282434   4.988   2.498   2.257
10656TIP3   OH282435   5.102   2.341   1.926
10656TIP3    H182436   5.171   2.323   1.991
10656TIP3    H282437   5.139   2.409   1.871
10657TIP3   OH282438   4.456   2.661   2.157
10657TIP3    H182439   4.550   2.654   2.175
10657TIP3    H282440   4.434   2.580   2.111
10658TIP3   OH282441   5.644   2.419   2.623
10658TIP3    H182442   5.565   2.472   2.611
10658TIP3    H282443   5.662   2.423   2.717
10659TIP3   OH282444   4.463   2.997   2.471
10659TIP3    H182445   4.415   3.070   2.510
10659TIP3    H282446   4.530   3.039   2.417
10660TIP3   OH282447   5.248   2.299   2.159
10660TIP3    H182448   5.191   2.261   2.226
10660TIP3    H282449   5.308   2.355   2.208
10661TIP3   OH282450   4.331   3.215   2.587
10661TIP3    H182451   4.340   3.310   2.583
10661TIP3    H282452   4.238   3.201   2.607
10662TIP3   OH282453   3.896   3.188   1.686
10662TIP3    H182454   3.899   3.216   1.595
10662TIP3    H282455   3.918   3.266   1.736
10663TIP3   OH282456   5.323   2.122   2.502
10663TIP3    H182457   5.256   2.162   2.447
10663TIP3    H282458   5.406   2.150   2.464
10664TIP3   OH282459   4.687   1.900   2.203
10664TIP3    H182460   4.752   1.836   2.175
10664TIP3    H282461   4.692   1.901   2.298
10665TIP3   OH282462   5.356   3.183   2.649
10665TIP3    H182463   5.343   3.112   2.586
10665TIP3    H282464   5.324   3.261   2.605
10666TIP3   OH282465   4.836   2.833   1.698
10666TIP3    H182466   4.770   2.901   1.685
10666TIP3    H282467   4.874   2.819   1.611
10667TIP3   OH282468   4.943   2.556   1.447
10667TIP3    H182469   5.002   2.622   1.483
10667TIP3    H282470   4.888   2.603   1.385
10668TIP3   OH282471   5.544   2.815   2.465
10668TIP3    H182472   5.459   2.858   2.462
10668TIP3    H282473   5.607   2.885   2.456
10669TIP3   OH282474   5.193   2.871   1.800
10669TIP3    H182475   5.116   2.884   1.856
10669TIP3    H282476   5.246   2.805   1.845
10670TIP3   OH282477   5.166   2.656   2.721
10670TIP3    H182478   5.159   2.726   2.786
10670TIP3    H282479   5.098   2.677   2.656
10671TIP3   OH282480   4.281   2.922   1.937
10671TIP3    H182481   4.291   2.990   1.869
10671TIP3    H282482   4.368   2.883   1.943
10672TIP3   OH282483   4.459   3.270   2.230
10672TIP3    H182484   4.461   3.281   2.135
10672TIP3    H282485   4.530   3.209   2.249
10673TIP3   OH282486   4.305   2.828   2.318
10673TIP3    H182487   4.359   2.773   2.261
10673TIP3    H282488   4.367   2.882   2.366
10674TIP3   OH282489   4.481   3.235   2.820
10674TIP3    H182490   4.416   3.291   2.861
10674TIP3    H282491   4.442   3.209   2.737
10675TIP3   OH282492   5.101   2.761   1.552
10675TIP3    H182493   5.134   2.822   1.618
10675TIP3    H282494   5.118   2.804   1.469
10676TIP3   OH282495   4.151   2.838   2.750
10676TIP3    H182496   4.161   2.920   2.798
10676TIP3    H282497   4.057   2.824   2.745
10677TIP3   OH282498   4.273   3.402   2.894
10677TIP3    H182499   4.277   3.439   2.805
10677TIP3    H282500   4.179   3.400   2.914
10678TIP3   OH282501   5.443   1.938   1.559
10678TIP3    H182502   5.359   1.959   1.602
10678TIP3    H282503   5.477   2.023   1.532
10679TIP3   OH282504   5.587   3.412   1.336
10679TIP3    H182505   5.585   3.496   1.382
10679TIP3    H282506   5.653   3.360   1.382
10680TIP3   OH282507   3.851   3.074   2.637
10680TIP3    H182508   3.803   3.077   2.554
10680TIP3    H282509   3.868   2.981   2.652
10681TIP3   OH282510   3.783   3.348   2.353
10681TIP3    H182511   3.876   3.362   2.337
10681TIP3    H282512   3.750   3.433   2.384
10682TIP3   OH282513   5.625   3.361   2.909
10682TIP3    H182514   5.584   3.277   2.889
10682TIP3    H282515   5.552   3.423   2.917
10683TIP3   OH282516   4.732   3.353   2.804
10683TIP3    H182517   4.721   3.448   2.803
10683TIP3    H282518   4.643   3.318   2.811
10684TIP3   OH282519   4.161   3.584   1.916
10684TIP3    H182520   4.173   3.553   2.006
10684TIP3    H282521   4.104   3.519   1.876
10685TIP3   OH282522   5.345   2.524   2.908
10685TIP3    H182523   5.281   2.562   2.848
10685TIP3    H282524   5.345   2.431   2.889
10686TIP3   OH282525   4.073   3.230   2.692
10686TIP3    H182526   4.097   3.190   2.775
10686TIP3    H282527   3.994   3.183   2.665
10687TIP3   OH282528   4.805   2.006   2.735
10687TIP3    H182529   4.867   1.951   2.784
10687TIP3    H282530   4.726   2.006   2.789
10688TIP3   OH282531   5.104   2.385   2.753
10688TIP3    H182532   5.035   2.375   2.819
10688TIP3    H282533   5.108   2.479   2.735
10689TIP3   OH282534   4.769   2.210   1.387
10689TIP3    H182535   4.699   2.240   1.445
10689TIP3    H282536   4.743   2.242   1.300
10690TIP3   OH282537   4.866   2.585   1.827
10690TIP3    H182538   4.841   2.667   1.784
10690TIP3    H282539   4.950   2.563   1.787
10691TIP3   OH282540   4.780   2.602   2.951
10691TIP3    H182541   4.731   2.525   2.981
10691TIP3    H282542   4.867   2.592   2.991
10692TIP3   OH282543   4.955   2.515   2.082
10692TIP3    H182544   4.919   2.570   2.012
10692TIP3    H282545   4.992   2.439   2.038
10693TIP3   OH282546   4.944   2.663   2.546
10693TIP3    H182547   4.975   2.607   2.476
10693TIP3    H282548   4.883   2.608   2.596
10694TIP3   OH282549   5.080   2.219   2.369
10694TIP3    H182550   5.041   2.216   2.457
10694TIP3    H282551   5.014   2.182   2.312
10695TIP3   OH282552   5.381   3.807   3.070
10695TIP3    H182553   5.306   3.865   3.052
10695TIP3    H282554   5.390   3.809   3.165
10696TIP3   OH282555   4.137   3.066   2.916
10696TIP3    H182556   4.204   3.072   2.984
10696TIP3    H282557   4.054   3.071   2.965
10697TIP3   OH282558   4.718   2.600   2.231
10697TIP3    H182559   4.788   2.552   2.187
10697TIP3    H282560   4.694   2.545   2.305
10698TIP3   OH282561   4.611   2.506   2.479
10698TIP3    H182562   4.583   2.596   2.498
10698TIP3    H282563   4.674   2.486   2.548
10699TIP3   OH282564   4.638   3.032   1.672
10699TIP3    H182565   4.599   2.960   1.622
10699TIP3    H282566   4.566   3.093   1.687
10700TIP3   OH282567   5.334   2.992   2.445
10700TIP3    H182568   5.383   3.049   2.385
10700TIP3    H282569   5.259   2.962   2.394
10701TIP3   OH282570   5.014   2.292   1.480
10701TIP3    H182571   4.935   2.252   1.442
10701TIP3    H282572   5.000   2.386   1.470
10702TIP3   OH282573   4.844   3.098   2.801
10702TIP3    H182574   4.829   3.054   2.885
10702TIP3    H282575   4.800   3.183   2.810
10703TIP3   OH282576   5.128   2.548   1.731
10703TIP3    H182577   5.218   2.517   1.717
10703TIP3    H282578   5.116   2.617   1.666
10704TIP3   OH282579   4.138   2.984   2.160
10704TIP3    H182580   4.185   2.974   2.077
10704TIP3    H282581   4.189   2.932   2.223
10705TIP3   OH282582   4.865   3.251   1.716
10705TIP3    H182583   4.829   3.330   1.676
10705TIP3    H282584   4.808   3.180   1.685
10706TIP3   OH282585   3.875   2.812   2.735
10706TIP3    H182586   3.860   2.766   2.817
10706TIP3    H282587   3.805   2.780   2.677
10707TIP3   OH282588   4.571   2.788   2.987
10707TIP3    H182589   4.507   2.759   2.923
10707TIP3    H282590   4.649   2.736   2.967
10708TIP3   OH282591   5.015   3.372   2.786
10708TIP3    H182592   4.922   3.360   2.767
10708TIP3    H282593   5.019   3.369   2.882
10709TIP3   OH282594   5.577   2.546   1.571
10709TIP3    H182595   5.572   2.518   1.480
10709TIP3    H282596   5.579   2.642   1.567
10710TIP3   OH282597   5.567   3.099   2.808
10710TIP3    H182598   5.488   3.129   2.762
10710TIP3    H282599   5.631   3.085   2.739
10711TIP3   OH282600   5.142   2.896   2.269
10711TIP3    H182601   5.048   2.882   2.277
10711TIP3    H282602   5.174   2.819   2.222
10712TIP3   OH282603   4.447   3.334   1.959
10712TIP3    H182604   4.456   3.420   1.917
10712TIP3    H282605   4.404   3.280   1.893
10713TIP3   OH282606   3.982   2.898   1.388
10713TIP3    H182607   4.027   2.923   1.469
10713TIP3    H282608   3.892   2.880   1.416
10714TIP3   OH282609   4.598   3.092   1.989
10714TIP3    H182610   4.559   3.179   1.978
10714TIP3    H282611   4.591   3.051   1.903
10715TIP3   OH282612   4.631   3.501   2.573
10715TIP3    H182613   4.588   3.510   2.488
10715TIP3    H282614   4.673   3.416   2.570
10716TIP3   OH282615   4.425   3.596   1.833
10716TIP3    H182616   4.331   3.597   1.851
10716TIP3    H282617   4.459   3.674   1.876
10717TIP3   OH282618   4.852   3.078   2.518
10717TIP3    H182619   4.850   3.081   2.614
10717TIP3    H282620   4.939   3.043   2.498
10718TIP3   OH282621   5.190   3.579   2.754
10718TIP3    H182622   5.138   3.499   2.755
10718TIP3    H282623   5.128   3.648   2.778
10719TIP3   OH282624   5.603   3.669   1.459
10719TIP3    H182625   5.653   3.750   1.471
10719TIP3    H282626   5.514   3.698   1.438
10720TIP3   OH282627   5.280   3.033   1.597
10720TIP3    H182628   5.251   2.986   1.675
10720TIP3    H282629   5.374   3.045   1.610
10721TIP3   OH282630   4.019   3.481   2.551
10721TIP3    H182631   4.042   3.405   2.605
10721TIP3    H282632   4.022   3.555   2.611
10722TIP3   OH282633   4.456   3.302   1.465
10722TIP3    H182634   4.437   3.245   1.540
10722TIP3    H282635   4.479   3.386   1.504
10723TIP3   OH282636   4.093   2.994   1.624
10723TIP3    H182637   4.028   3.055   1.659
10723TIP3    H282638   4.178   3.031   1.650
10724TIP3   OH282639   4.950   2.202   2.605
10724TIP3    H182640   4.999   2.255   2.668
10724TIP3    H282641   4.897   2.143   2.659
10725TIP3   OH282642   5.010   2.172   1.728
10725TIP3    H182643   5.012   2.220   1.645
10725TIP3    H282644   5.034   2.236   1.794
10726TIP3   OH282645   4.773   3.492   1.612
10726TIP3    H182646   4.680   3.508   1.593
10726TIP3    H282647   4.816   3.576   1.596
10727TIP3   OH282648   4.691   2.367   1.839
10727TIP3    H182649   4.749   2.443   1.835
10727TIP3    H282650   4.620   2.394   1.898
10728TIP3   OH282651   4.788   2.490   2.695
10728TIP3    H182652   4.777   2.537   2.777
10728TIP3    H282653   4.812   2.401   2.720
10729TIP3   OH282654   4.753   2.100   1.799
10729TIP3    H182655   4.725   2.188   1.825
10729TIP3    H282656   4.844   2.110   1.771
10730TIP3   OH282657   4.508   3.569   1.565
10730TIP3    H182658   4.529   3.661   1.549
10730TIP3    H282659   4.471   3.568   1.654
10731TIP3   OH282660   5.345   2.258   2.747
10731TIP3    H182661   5.257   2.296   2.751
10731TIP3    H282662   5.347   2.210   2.665
10732TIP3   OH282663   5.213   2.642   2.160
10732TIP3    H182664   5.126   2.604   2.145
10732TIP3    H282665   5.254   2.582   2.223
10733TIP3   OH282666   4.178   3.311   1.477
10733TIP3    H182667   4.194   3.275   1.564
10733TIP3    H282668   4.264   3.312   1.435
10734TIP3   OH282669   3.930   3.432   1.825
10734TIP3    H182670   3.898   3.476   1.904
10734TIP3    H282671   3.923   3.497   1.756
10735TIP3   OH282672   3.929   3.701   3.051
10735TIP3    H182673   3.994   3.679   3.118
10735TIP3    H282674   3.898   3.617   3.019
10736TIP3   OH282675   4.356   3.490   3.142
10736TIP3    H182676   4.435   3.440   3.160
10736TIP3    H282677   4.328   3.461   3.055
10737TIP3   OH282678   5.022   3.376   3.061
10737TIP3    H182679   5.004   3.294   3.107
10737TIP3    H282680   5.103   3.409   3.101
10738TIP3   OH282681   3.900   3.054   3.062
10738TIP3    H182682   3.904   2.960   3.049
10738TIP3    H282683   3.826   3.083   3.009
10739TIP3   OH282684   4.566   3.076   3.030
10739TIP3    H182685   4.547   3.114   2.945
10739TIP3    H282686   4.577   2.983   3.013
10740TIP3   OH282687   5.118   3.062   2.785
10740TIP3    H182688   5.170   3.135   2.752
10740TIP3    H282689   5.028   3.093   2.783
10741TIP3   OH282690   3.957   2.786   3.016
10741TIP3    H182691   4.045   2.763   2.989
10741TIP3    H282692   3.953   2.761   3.109
10742TIP3   OH282693   4.482   2.840   1.555
10742TIP3    H182694   4.393   2.877   1.555
10742TIP3    H282695   4.495   2.808   1.466
10743TIP3   OH282696   4.400   2.701   2.779
10743TIP3    H182697   4.316   2.743   2.765
10743TIP3    H282698   4.452   2.724   2.702
10744TIP3   OH282699   4.522   2.758   1.294
10744TIP3    H182700   4.521   2.669   1.259
10744TIP3    H282701   4.615   2.783   1.291
10745TIP3   OH282702   4.892   2.924   3.060
10745TIP3    H182703   4.963   2.878   3.015
10745TIP3    H282704   4.853   2.858   3.117
10746TIP3   OH282705   4.427   2.432   2.840
10746TIP3    H182706   4.415   2.385   2.757
10746TIP3    H282707   4.419   2.525   2.815
10747TIP3   OH282708   4.398   2.348   2.575
10747TIP3    H182709   4.469   2.391   2.528
10747TIP3    H282710   4.318   2.377   2.530
10748TIP3   OH282711   4.575   2.768   2.572
10748TIP3    H182712   4.666   2.797   2.584
10748TIP3    H282713   4.531   2.845   2.534
10749TIP3   OH282714   5.014   2.561   3.098
10749TIP3    H182715   5.017   2.482   3.153
10749TIP3    H282716   5.106   2.585   3.087
10750TIP3   OH282717   5.180   2.844   2.928
10750TIP3    H182718   5.152   2.923   2.881
10750TIP3    H282719   5.276   2.849   2.927
10751TIP3   OH282720   4.266   2.447   3.068
10751TIP3    H182721   4.193   2.389   3.047
10751TIP3    H282722   4.315   2.453   2.986
10752TIP3   OH282723   4.641   2.372   3.006
10752TIP3    H182724   4.599   2.338   3.085
10752TIP3    H282725   4.569   2.383   2.943
10753TIP3   OH282726   4.897   2.309   2.911
10753TIP3    H182727   4.812   2.312   2.954
10753TIP3    H282728   4.954   2.263   2.973
10754TIP3   OH282729   5.101   2.202   3.085
10754TIP3    H182730   5.093   2.107   3.097
10754TIP3    H282731   5.067   2.240   3.165
10755TIP3   OH282732   4.090   2.239   3.000
10755TIP3    H182733   4.117   2.173   2.937
10755TIP3    H282734   4.097   2.196   3.085
10756TIP3   OH282735   4.580   1.948   2.898
10756TIP3    H182736   4.617   1.860   2.897
10756TIP3    H282737   4.493   1.937   2.859
10757TIP3   OH282738   4.606   2.060   3.158
10757TIP3    H182739   4.603   2.022   3.070
10757TIP3    H282740   4.543   2.132   3.155
10758TIP3   OH282741   3.920   3.242   1.417
10758TIP3    H182742   4.011   3.271   1.427
10758TIP3    H282743   3.920   3.191   1.336
10759TIP3   OH282744   3.836   3.574   2.047
10759TIP3    H182745   3.751   3.531   2.054
10759TIP3    H282746   3.874   3.565   2.135
10760TIP3   OH282747   5.568   3.623   2.628
10760TIP3    H182748   5.518   3.608   2.548
10760TIP3    H282749   5.652   3.580   2.612
10761TIP3   OH282750   5.407   3.161   3.217
10761TIP3    H182751   5.324   3.180   3.262
10761TIP3    H282752   5.456   3.243   3.223
10762TIP3   OH282753   5.552   3.020   1.673
10762TIP3    H182754   5.630   3.074   1.687
10762TIP3    H282755   5.566   2.943   1.729
10763TIP3   OH282756   5.581   2.814   1.861
10763TIP3    H182757   5.496   2.774   1.878
10763TIP3    H282758   5.599   2.866   1.940
10764TIP3   OH282759   5.617   3.095   2.392
10764TIP3    H182760   5.708   3.073   2.411
10764TIP3    H282761   5.620   3.186   2.363
10765TIP3   OH282762   5.354   2.679   1.925
10765TIP3    H182763   5.357   2.595   1.881
10765TIP3    H282764   5.307   2.662   2.007
10766TIP3   OH282765   3.847   2.855   2.342
10766TIP3    H182766   3.865   2.841   2.249
10766TIP3    H282767   3.930   2.834   2.385
10767TIP3   OH282768   5.455   2.872   2.925
10767TIP3    H182769   5.512   2.799   2.899
10767TIP3    H282770   5.492   2.948   2.879
10768TIP3   OH282771   5.593   2.641   2.877
10768TIP3    H182772   5.506   2.602   2.886
10768TIP3    H282773   5.654   2.569   2.892
10769TIP3   OH282774   5.270   2.210   1.285
10769TIP3    H182775   5.207   2.202   1.356
10769TIP3    H282776   5.251   2.294   1.244
10770TIP3   OH282777   5.386   2.452   1.757
10770TIP3    H182778   5.399   2.358   1.769
10770TIP3    H282779   5.451   2.478   1.692
10771TIP3   OH282780   5.383   2.476   2.324
10771TIP3    H182781   5.472   2.501   2.300
10771TIP3    H282782   5.377   2.495   2.418
10772TIP3   OH282783   5.417   2.583   2.582
10772TIP3    H182784   5.336   2.612   2.625
10772TIP3    H282785   5.460   2.664   2.555
10773TIP3   OH282786   3.862   2.391   2.942
10773TIP3    H182787   3.949   2.352   2.950
10773TIP3    H282788   3.802   2.316   2.948
10774TIP3   OH282789   5.629   2.011   3.106
10774TIP3    H182790   5.679   1.936   3.075
10774TIP3    H282791   5.624   2.070   3.031
10775TIP3   OH282792   5.421   2.176   1.798
10775TIP3    H182793   5.447   2.150   1.887
10775TIP3    H282794   5.352   2.114   1.774
10776TIP3   OH282795   5.549   2.200   2.924
10776TIP3    H182796   5.490   2.227   2.994
10776TIP3    H282797   5.494   2.196   2.846
10777TIP3   OH282798   5.559   2.175   1.437
10777TIP3    H182799   5.539   2.116   1.364
10777TIP3    H282800   5.531   2.261   1.407
10778TIP3   OH282801   3.776   1.993   2.524
10778TIP3    H182802   3.734   1.987   2.610
10778TIP3    H282803   3.741   2.073   2.485
10779TIP3   OH282804   4.006   3.400   2.978
10779TIP3    H182805   3.918   3.403   2.941
10779TIP3    H282806   3.993   3.367   3.067
10780TIP3   OH282807   4.353   3.490   2.637
10780TIP3    H182808   4.311   3.564   2.593
10780TIP3    H282809   4.447   3.508   2.631
10781TIP3   OH282810   4.753   3.642   2.879
10781TIP3    H182811   4.760   3.595   2.962
10781TIP3    H282812   4.840   3.682   2.868
10782TIP3   OH282813   5.462   1.947   2.739
10782TIP3    H182814   5.391   1.964   2.678
10782TIP3    H282815   5.491   1.858   2.718
10783TIP3   OH282816   4.022   3.762   2.650
10783TIP3    H182817   3.946   3.801   2.608
10783TIP3    H282818   4.035   3.814   2.729
10784TIP3   OH282819   4.254   3.710   2.506
10784TIP3    H182820   4.172   3.727   2.552
10784TIP3    H282821   4.269   3.790   2.455
10785TIP3   OH282822   3.982   3.560   2.293
10785TIP3    H182823   4.005   3.535   2.382
10785TIP3    H282824   4.065   3.561   2.245
10786TIP3   OH282825   4.224   3.502   2.172
10786TIP3    H182826   4.202   3.413   2.197
10786TIP3    H282827   4.319   3.501   2.159
10787TIP3   OH282828   4.477   3.515   2.351
10787TIP3    H182829   4.469   3.428   2.311
10787TIP3    H282830   4.387   3.542   2.369
10788TIP3   OH282831   4.880   2.106   2.226
10788TIP3    H182832   4.794   2.070   2.204
10788TIP3    H282833   4.938   2.070   2.159
10789TIP3   OH282834   5.317   1.951   2.137
10789TIP3    H182835   5.376   2.020   2.107
10789TIP3    H282836   5.230   1.984   2.115
10790TIP3   OH282837   5.538   2.090   2.036
10790TIP3    H182838   5.580   2.010   2.007
10790TIP3    H282839   5.600   2.129   2.098
10791TIP3   OH282840   4.548   2.005   1.978
10791TIP3    H182841   4.618   2.025   1.917
10791TIP3    H282842   4.592   1.965   2.053
10792TIP3   OH282843   5.045   1.963   2.059
10792TIP3    H182844   5.040   1.953   1.964
10792TIP3    H282845   5.007   1.883   2.095
10793TIP3   OH282846   5.217   1.993   1.711
10793TIP3    H182847   5.147   2.057   1.707
10793TIP3    H282848   5.173   1.909   1.723
10794TIP3   OH282849   3.900   3.632   1.645
10794TIP3    H182850   3.855   3.613   1.562
10794TIP3    H282851   3.937   3.719   1.632
10795TIP3   OH282852   4.587   2.260   1.604
10795TIP3    H182853   4.605   2.173   1.640
10795TIP3    H282854   4.624   2.320   1.669
10796TIP3   OH282855   4.071   3.609   1.273
10796TIP3    H182856   3.987   3.623   1.315
10796TIP3    H282857   4.112   3.539   1.324
10797TIP3   OH282858   5.120   1.925   3.105
10797TIP3    H182859   5.114   1.872   3.185
10797TIP3    H282860   5.211   1.916   3.077
10798TIP3   OH282861   5.416   3.555   2.920
10798TIP3    H182862   5.354   3.553   2.847
10798TIP3    H282863   5.362   3.570   2.997
10799TIP3   OH282864   6.849   2.882   1.902
10799TIP3    H182865   6.812   2.949   1.960
10799TIP3    H282866   6.784   2.872   1.833
10800TIP3   OH282867   6.716   2.843   2.314
10800TIP3    H182868   6.750   2.803   2.394
10800TIP3    H282869   6.651   2.780   2.281
10801TIP3   OH282870   7.092   3.179   2.142
10801TIP3    H182871   7.045   3.104   2.179
10801TIP3    H282872   7.109   3.236   2.218
10802TIP3   OH282873   5.721   2.579   1.822
10802TIP3    H182874   5.674   2.662   1.825
10802TIP3    H282875   5.691   2.538   1.741
10803TIP3   OH282876   5.855   2.692   2.037
10803TIP3    H182877   5.805   2.644   1.971
10803TIP3    H282878   5.929   2.728   1.989
10804TIP3   OH282879   6.539   3.077   2.355
10804TIP3    H182880   6.587   3.003   2.318
10804TIP3    H282881   6.603   3.120   2.411
10805TIP3   OH282882   6.876   2.494   2.314
10805TIP3    H182883   6.877   2.399   2.320
10805TIP3    H282884   6.857   2.512   2.221
10806TIP3   OH282885   7.010   2.325   1.941
10806TIP3    H182886   7.065   2.273   1.999
10806TIP3    H282887   7.071   2.366   1.879
10807TIP3   OH282888   6.342   2.966   2.526
10807TIP3    H182889   6.279   3.038   2.535
10807TIP3    H282890   6.405   2.997   2.462
10808TIP3   OH282891   7.142   2.246   2.185
10808TIP3    H182892   7.055   2.240   2.226
10808TIP3    H282893   7.166   2.338   2.191
10809TIP3   OH282894   6.169   3.176   2.577
10809TIP3    H182895   6.189   3.269   2.566
10809TIP3    H282896   6.082   3.175   2.617
10810TIP3   OH282897   5.785   3.179   1.703
10810TIP3    H182898   5.772   3.223   1.619
10810TIP3    H282899   5.805   3.250   1.764
10811TIP3   OH282900   7.124   3.387   2.357
10811TIP3    H182901   7.028   3.385   2.350
10811TIP3    H282902   7.148   3.478   2.337
10812TIP3   OH282903   7.182   2.108   2.552
10812TIP3    H182904   7.089   2.130   2.560
10812TIP3    H282905   7.207   2.141   2.465
10813TIP3   OH282906   6.458   1.951   2.260
10813TIP3    H182907   6.442   1.894   2.185
10813TIP3    H282908   6.401   1.916   2.329
10814TIP3   OH282909   7.129   3.229   1.871
10814TIP3    H182910   7.070   3.304   1.868
10814TIP3    H282911   7.130   3.202   1.963
10815TIP3   OH282912   6.675   2.834   1.691
10815TIP3    H182913   6.600   2.890   1.670
10815TIP3    H282914   6.704   2.800   1.606
10816TIP3   OH282915   6.767   2.722   1.459
10816TIP3    H182916   6.860   2.745   1.464
10816TIP3    H282917   6.756   2.682   1.373
10817TIP3   OH282918   7.084   2.856   1.763
10817TIP3    H182919   7.004   2.878   1.811
10817TIP3    H282920   7.134   2.801   1.822
10818TIP3   OH282921   7.004   2.660   2.736
10818TIP3    H182922   6.995   2.736   2.794
10818TIP3    H282923   6.952   2.682   2.659
10819TIP3   OH282924   6.310   3.229   2.257
10819TIP3    H182925   6.252   3.153   2.250
10819TIP3    H282926   6.394   3.193   2.285
10820TIP3   OH282927   6.359   3.217   2.803
10820TIP3    H182928   6.298   3.284   2.833
10820TIP3    H282929   6.317   3.179   2.726
10821TIP3   OH282930   7.035   2.763   1.512
10821TIP3    H182931   7.046   2.805   1.598
10821TIP3    H282932   7.104   2.802   1.458
10822TIP3   OH282933   6.174   3.417   2.861
10822TIP3    H182934   6.191   3.445   2.771
10822TIP3    H282935   6.078   3.416   2.868
10823TIP3   OH282936   7.284   1.949   1.553
10823TIP3    H182937   7.193   1.936   1.577
10823TIP3    H282938   7.293   2.043   1.541
10824TIP3   OH282939   7.469   3.403   1.429
10824TIP3    H182940   7.468   3.498   1.427
10824TIP3    H282941   7.556   3.380   1.393
10825TIP3   OH282942   5.705   3.368   2.331
10825TIP3    H182943   5.786   3.354   2.281
10825TIP3    H282944   5.730   3.430   2.400
10826TIP3   OH282945   7.543   3.379   2.915
10826TIP3    H182946   7.513   3.290   2.899
10826TIP3    H282947   7.464   3.431   2.928
10827TIP3   OH282948   6.622   3.316   2.806
10827TIP3    H182949   6.610   3.409   2.828
10827TIP3    H282950   6.533   3.285   2.790
10828TIP3   OH282951   6.047   3.572   1.934
10828TIP3    H182952   6.065   3.531   2.019
10828TIP3    H282953   5.985   3.513   1.892
10829TIP3   OH282954   7.152   2.544   2.954
10829TIP3    H182955   7.121   2.580   2.871
10829TIP3    H282956   7.210   2.472   2.929
10830TIP3   OH282957   5.922   3.167   2.705
10830TIP3    H182958   5.955   3.120   2.781
10830TIP3    H282959   5.886   3.248   2.740
10831TIP3   OH282960   6.701   2.002   2.679
10831TIP3    H182961   6.732   1.953   2.755
10831TIP3    H282962   6.607   2.009   2.692
10832TIP3   OH282963   6.965   2.383   2.723
10832TIP3    H182964   6.900   2.365   2.791
10832TIP3    H282965   6.971   2.478   2.720
10833TIP3   OH282966   6.661   2.274   1.334
10833TIP3    H182967   6.580   2.323   1.321
10833TIP3    H282968   6.633   2.189   1.367
10834TIP3   OH282969   6.754   2.586   1.797
10834TIP3    H182970   6.718   2.669   1.768
10834TIP3    H282971   6.818   2.562   1.730
10835TIP3   OH282972   6.682   2.610   2.974
10835TIP3    H182973   6.625   2.535   2.992
10835TIP3    H282974   6.766   2.586   3.011
10836TIP3   OH282975   6.899   2.558   2.036
10836TIP3    H182976   6.836   2.592   1.972
10836TIP3    H282977   6.921   2.471   2.005
10837TIP3   OH282978   6.828   2.676   2.514
10837TIP3    H182979   6.843   2.607   2.448
10837TIP3    H282980   6.768   2.637   2.577
10838TIP3   OH282981   6.898   2.220   2.309
10838TIP3    H182982   6.892   2.189   2.400
10838TIP3    H282983   6.828   2.174   2.263
10839TIP3   OH282984   7.274   3.779   3.012
10839TIP3    H182985   7.285   3.810   2.923
10839TIP3    H282986   7.348   3.815   3.060
10840TIP3   OH282987   6.001   3.128   2.970
10840TIP3    H182988   6.077   3.095   3.018
10840TIP3    H282989   5.926   3.085   3.010
10841TIP3   OH282990   6.882   2.287   1.504
10841TIP3    H182991   6.811   2.294   1.441
10841TIP3    H282992   6.903   2.377   1.527
10842TIP3   OH282993   6.766   3.081   2.786
10842TIP3    H182994   6.751   3.030   2.866
10842TIP3    H282995   6.714   3.161   2.799
10843TIP3   OH282996   6.963   2.522   1.620
10843TIP3    H182997   7.044   2.496   1.663
10843TIP3    H282998   6.984   2.603   1.573
10844TIP3   OH282999   6.904   3.381   2.778
10844TIP3    H183000   6.814   3.361   2.753
10844TIP3    H283001   6.902   3.383   2.874
10845TIP3   OH283002   7.449   3.110   2.902
10845TIP3    H183003   7.378   3.127   2.963
10845TIP3    H283004   7.413   3.045   2.841
10846TIP3   OH283005   7.298   3.406   1.650
10846TIP3    H183006   7.270   3.320   1.682
10846TIP3    H283007   7.349   3.386   1.571
10847TIP3   OH283008   6.965   2.953   2.246
10847TIP3    H183009   6.874   2.929   2.263
10847TIP3    H283010   7.010   2.869   2.239
10848TIP3   OH283011   6.766   3.137   2.506
10848TIP3    H183012   6.763   3.110   2.598
10848TIP3    H283013   6.851   3.107   2.475
10849TIP3   OH283014   7.042   3.139   1.409
10849TIP3    H183015   7.099   3.113   1.481
10849TIP3    H283016   7.020   3.231   1.428
10850TIP3   OH283017   7.129   3.534   2.721
10850TIP3    H183018   7.042   3.496   2.730
10850TIP3    H283019   7.115   3.616   2.673
10851TIP3   OH283020   7.483   3.684   1.432
10851TIP3    H183021   7.523   3.765   1.464
10851TIP3    H283022   7.423   3.713   1.363
10852TIP3   OH283023   5.891   2.292   2.595
10852TIP3    H183024   5.813   2.347   2.597
10852TIP3    H283025   5.860   2.206   2.623
10853TIP3   OH283026   7.185   3.087   1.645
10853TIP3    H183027   7.162   2.998   1.670
10853TIP3    H283028   7.171   3.139   1.725
10854TIP3   OH283029   5.838   3.530   2.531
10854TIP3    H183030   5.895   3.470   2.578
10854TIP3    H283031   5.859   3.617   2.566
10855TIP3   OH283032   6.321   3.313   1.540
10855TIP3    H183033   6.354   3.288   1.626
10855TIP3    H283034   6.375   3.387   1.514
10856TIP3   OH283035   5.987   3.035   1.565
10856TIP3    H183036   5.916   3.064   1.623
10856TIP3    H283037   6.015   3.114   1.520
10857TIP3   OH283038   6.912   2.151   2.578
10857TIP3    H183039   6.919   2.233   2.628
10857TIP3    H283040   6.836   2.107   2.615
10858TIP3   OH283041   6.919   2.158   1.739
10858TIP3    H183042   6.904   2.203   1.656
10858TIP3    H283043   6.941   2.228   1.801
10859TIP3   OH283044   6.594   2.365   1.852
10859TIP3    H183045   6.646   2.443   1.833
10859TIP3    H283046   6.503   2.394   1.846
10860TIP3   OH283047   6.690   2.543   2.706
10860TIP3    H183048   6.682   2.586   2.791
10860TIP3    H283049   6.680   2.450   2.726
10861TIP3   OH283050   6.693   2.113   1.894
10861TIP3    H183051   6.648   2.197   1.880
10861TIP3    H283052   6.770   2.118   1.837
10862TIP3   OH283053   7.226   2.306   2.764
10862TIP3    H183054   7.135   2.334   2.759
10862TIP3    H283055   7.235   2.240   2.696
10863TIP3   OH283056   7.062   2.688   2.228
10863TIP3    H183057   7.004   2.659   2.158
10863TIP3    H283058   7.030   2.643   2.307
10864TIP3   OH283059   6.073   3.250   1.414
10864TIP3    H183060   6.157   3.274   1.453
10864TIP3    H283061   6.092   3.241   1.320
10865TIP3   OH283062   7.217   3.656   2.332
10865TIP3    H183063   7.202   3.713   2.257
10865TIP3    H283064   7.311   3.661   2.348
10866TIP3   OH283065   5.953   1.993   2.234
10866TIP3    H183066   5.950   1.987   2.139
10866TIP3    H283067   5.941   1.903   2.265
10867TIP3   OH283068   5.836   3.418   1.843
10867TIP3    H183069   5.777   3.454   1.910
10867TIP3    H283070   5.821   3.473   1.766
10868TIP3   OH283071   5.799   3.644   2.954
10868TIP3    H183072   5.851   3.656   3.033
10868TIP3    H283073   5.831   3.562   2.917
10869TIP3   OH283074   6.223   3.497   3.124
10869TIP3    H183075   6.305   3.457   3.152
10869TIP3    H283076   6.213   3.470   3.032
10870TIP3   OH283077   6.897   3.371   3.058
10870TIP3    H183078   6.881   3.287   3.101
10870TIP3    H283079   6.980   3.402   3.096
10871TIP3   OH283080   5.743   3.074   3.070
10871TIP3    H183081   5.771   2.983   3.061
10871TIP3    H283082   5.671   3.083   3.007
10872TIP3   OH283083   6.453   3.097   3.031
10872TIP3    H183084   6.426   3.135   2.948
10872TIP3    H283085   6.528   3.041   3.008
10873TIP3   OH283086   7.038   3.097   2.761
10873TIP3    H183087   7.056   3.190   2.747
10873TIP3    H283088   6.942   3.091   2.761
10874TIP3   OH283089   5.881   2.841   3.042
10874TIP3    H183090   5.937   2.789   2.985
10874TIP3    H283091   5.890   2.800   3.129
10875TIP3   OH283092   6.777   2.921   3.027
10875TIP3    H183093   6.864   2.893   3.000
10875TIP3    H283094   6.737   2.842   3.065
10876TIP3   OH283095   6.279   2.399   2.859
10876TIP3    H183096   6.252   2.349   2.782
10876TIP3    H283097   6.221   2.475   2.860
10877TIP3   OH283098   6.916   2.547   3.105
10877TIP3    H183099   6.923   2.471   3.164
10877TIP3    H283100   7.001   2.550   3.061
10878TIP3   OH283101   7.055   2.874   2.925
10878TIP3    H183102   7.049   2.958   2.880
10878TIP3    H283103   7.141   2.839   2.901
10879TIP3   OH283104   6.401   2.020   2.633
10879TIP3    H183105   6.400   2.103   2.584
10879TIP3    H283106   6.324   1.973   2.602
10880TIP3   OH283107   6.517   2.386   3.004
10880TIP3    H183108   6.468   2.370   3.084
10880TIP3    H283109   6.450   2.393   2.936
10881TIP3   OH283110   6.779   2.310   2.908
10881TIP3    H183111   6.698   2.321   2.957
10881TIP3    H283112   6.840   2.273   2.971
10882TIP3   OH283113   6.983   2.204   3.081
10882TIP3    H183114   6.981   2.109   3.093
10882TIP3    H283115   6.954   2.239   3.165
10883TIP3   OH283116   5.931   2.269   3.029
10883TIP3    H183117   5.929   2.197   2.966
10883TIP3    H283118   5.953   2.228   3.112
10884TIP3   OH283119   6.439   1.907   2.889
10884TIP3    H183120   6.488   1.827   2.870
10884TIP3    H283121   6.413   1.941   2.803
10885TIP3   OH283122   6.456   2.092   3.128
10885TIP3    H183123   6.495   2.101   3.041
10885TIP3    H283124   6.401   2.169   3.138
10886TIP3   OH283125   5.796   3.260   1.439
10886TIP3    H183126   5.890   3.269   1.426
10886TIP3    H283127   5.774   3.176   1.399
10887TIP3   OH283128   5.699   3.757   1.918
10887TIP3    H183129   5.617   3.763   1.870
10887TIP3    H283130   5.690   3.678   1.972
10888TIP3   OH283131   5.720   3.533   2.079
10888TIP3    H183132   5.666   3.481   2.139
10888TIP3    H283133   5.792   3.564   2.133
10889TIP3   OH283134   7.479   3.671   2.406
10889TIP3    H183135   7.473   3.625   2.490
10889TIP3    H283136   7.557   3.635   2.364
10890TIP3   OH283137   7.461   3.553   2.655
10890TIP3    H183138   7.407   3.476   2.640
10890TIP3    H283139   7.550   3.519   2.664
10891TIP3   OH283140   7.311   3.145   3.142
10891TIP3    H183141   7.230   3.146   3.194
10891TIP3    H283142   7.359   3.223   3.170
10892TIP3   OH283143   7.277   3.350   2.581
10892TIP3    H183144   7.226   3.406   2.639
10892TIP3    H283145   7.233   3.356   2.496
10893TIP3   OH283146   7.152   2.662   1.953
10893TIP3    H183147   7.059   2.642   1.966
10893TIP3    H283148   7.179   2.707   2.033
10894TIP3   OH283149   7.182   2.457   1.773
10894TIP3    H183150   7.251   2.401   1.811
10894TIP3    H283151   7.190   2.539   1.821
10895TIP3   OH283152   5.728   2.403   2.895
10895TIP3    H183153   5.809   2.374   2.935
10895TIP3    H283154   5.667   2.330   2.908
10896TIP3   OH283155   7.509   2.018   3.117
10896TIP3    H183156   7.569   1.947   3.094
10896TIP3    H283157   7.519   2.082   3.047
10897TIP3   OH283158   5.761   2.193   2.214
10897TIP3    H183159   5.825   2.129   2.246
10897TIP3    H283160   5.797   2.225   2.132
10898TIP3   OH283161   5.633   2.600   2.299
10898TIP3    H183162   5.675   2.635   2.221
10898TIP3    H283163   5.603   2.677   2.348
10899TIP3   OH283164   7.458   2.213   2.930
10899TIP3    H183165   7.386   2.247   2.983
10899TIP3    H283166   7.416   2.184   2.849
10900TIP3   OH283167   5.681   2.178   1.690
10900TIP3    H183168   5.598   2.178   1.739
10900TIP3    H283169   5.655   2.189   1.599
10901TIP3   OH283170   7.102   3.762   1.871
10901TIP3    H183171   7.182   3.722   1.836
10901TIP3    H283172   7.121   3.776   1.964
10902TIP3   OH283173   5.696   2.019   2.591
10902TIP3    H183174   5.626   2.002   2.653
10902TIP3    H283175   5.659   2.081   2.528
10903TIP3   OH283176   5.895   3.377   2.896
10903TIP3    H183177   5.800   3.372   2.910
10903TIP3    H283178   5.930   3.302   2.943
10904TIP3   OH283179   6.241   3.444   2.590
10904TIP3    H183180   6.203   3.525   2.555
10904TIP3    H283181   6.331   3.444   2.557
10905TIP3   OH283182   6.590   3.582   2.882
10905TIP3    H183183   6.614   3.570   2.974
10905TIP3    H283184   6.632   3.665   2.858
10906TIP3   OH283185   7.358   1.996   2.739
10906TIP3    H183186   7.293   2.020   2.673
10906TIP3    H283187   7.385   1.907   2.716
10907TIP3   OH283188   5.916   3.771   2.643
10907TIP3    H183189   5.848   3.831   2.612
10907TIP3    H283190   5.943   3.807   2.728
10908TIP3   OH283191   6.134   3.677   2.502
10908TIP3    H183192   6.064   3.719   2.553
10908TIP3    H283193   6.172   3.747   2.450
10909TIP3   OH283194   7.146   3.778   2.571
10909TIP3    H183195   7.134   3.871   2.551
10909TIP3    H283196   7.159   3.737   2.485
10910TIP3   OH283197   5.932   3.591   2.256
10910TIP3    H183198   5.920   3.586   2.351
10910TIP3    H283199   6.019   3.553   2.240
10911TIP3   OH283200   6.172   3.464   2.181
10911TIP3    H183201   6.210   3.384   2.216
10911TIP3    H283202   6.238   3.499   2.122
10912TIP3   OH283203   6.700   2.083   2.169
10912TIP3    H183204   6.615   2.053   2.201
10912TIP3    H283205   6.685   2.103   2.077
10913TIP3   OH283206   7.184   1.978   2.139
10913TIP3    H183207   7.196   2.072   2.152
10913TIP3    H283208   7.093   1.969   2.111
10914TIP3   OH283209   5.860   1.981   1.607
10914TIP3    H183210   5.944   2.021   1.630
10914TIP3    H283211   5.794   2.045   1.634
10915TIP3   OH283212   6.926   1.961   2.058
10915TIP3    H183213   6.897   1.950   1.968
10915TIP3    H283214   6.851   1.999   2.103
10916TIP3   OH283215   7.021   1.923   1.636
10916TIP3    H183216   7.002   2.013   1.663
10916TIP3    H283217   6.948   1.871   1.671
10917TIP3   OH283218   5.805   3.582   1.628
10917TIP3    H183219   5.727   3.577   1.573
10917TIP3    H283220   5.832   3.674   1.624
10918TIP3   OH283221   7.332   3.661   1.739
10918TIP3    H183222   7.318   3.569   1.718
10918TIP3    H283223   7.331   3.706   1.654
10919TIP3   OH283224   5.938   2.006   2.910
10919TIP3    H183225   5.868   1.946   2.932
10919TIP3    H283226   6.014   1.975   2.959
10920TIP3   OH283227   6.134   1.869   3.069
10920TIP3    H183228   6.141   1.804   2.999
10920TIP3    H283229   6.070   1.832   3.130
10921TIP3   OH283230   5.967   3.654   1.365
10921TIP3    H183231   5.931   3.729   1.413
10921TIP3    H283232   5.941   3.578   1.417
10922TIP3   OH283233   7.005   1.927   3.104
10922TIP3    H183234   7.002   1.876   3.185
10922TIP3    H283235   7.096   1.921   3.075
10923TIP3   OH283236   7.291   3.513   2.944
10923TIP3    H183237   7.240   3.516   2.863
10923TIP3    H283238   7.294   3.603   2.974
10924TIP3   OH283239   7.795   2.795   2.489
10924TIP3    H183240   7.858   2.726   2.509
10924TIP3    H283241   7.835   2.842   2.415
10925TIP3   OH283242   7.972   3.197   2.313
10925TIP3    H183243   7.944   3.109   2.290
10925TIP3    H283244   8.016   3.187   2.398
10926TIP3   OH283245   8.043   2.182   2.089
10926TIP3    H183246   8.051   2.263   2.040
10926TIP3    H283247   7.972   2.134   2.047
10927TIP3   OH283248   8.060   3.224   2.578
10927TIP3    H183249   8.078   3.316   2.561
10927TIP3    H283250   7.975   3.223   2.621
10928TIP3   OH283251   7.992   2.861   2.012
10928TIP3    H183252   7.960   2.888   1.926
10928TIP3    H283253   8.043   2.782   1.996
10929TIP3   OH283254   8.071   3.407   2.904
10929TIP3    H183255   8.053   3.349   2.830
10929TIP3    H283256   7.986   3.424   2.943
10930TIP3   OH283257   7.942   2.818   1.727
10930TIP3    H183258   8.002   2.833   1.654
10930TIP3    H283259   7.969   2.733   1.763
10931TIP3   OH283260   7.828   3.244   2.720
10931TIP3    H183261   7.847   3.209   2.806
10931TIP3    H283262   7.746   3.201   2.694
10932TIP3   OH283263   8.077   2.136   2.360
10932TIP3    H183264   7.981   2.130   2.367
10932TIP3    H283265   8.094   2.152   2.267
10933TIP3   OH283266   0.028   2.578   2.603
10933TIP3    H183267   8.079   2.554   2.606
10933TIP3    H283268   0.043   2.605   2.512
10934TIP3   OH283269   8.005   2.581   1.849
10934TIP3    H183270   7.926   2.527   1.855
10934TIP3    H283271   8.073   2.520   1.818
10935TIP3   OH283272   7.904   2.529   2.602
10935TIP3    H183273   7.846   2.509   2.676
10935TIP3    H283274   7.881   2.464   2.535
10936TIP3   OH283275   8.078   2.487   1.474
10936TIP3    H183276   7.998   2.515   1.428
10936TIP3    H283277   0.005   2.518   1.418
10937TIP3   OH283278   7.867   3.120   2.959
10937TIP3    H183279   7.938   3.092   3.017
10937TIP3    H283280   7.787   3.108   3.010
10938TIP3   OH283281   7.884   2.936   2.257
10938TIP3    H183282   7.931   2.910   2.177
10938TIP3    H283283   7.793   2.942   2.231
10939TIP3   OH283284   7.725   3.477   2.596
10939TIP3    H183285   7.775   3.409   2.640
10939TIP3    H283286   7.773   3.558   2.614
10940TIP3   OH283287   8.119   2.230   1.581
10940TIP3    H183288   8.123   2.321   1.551
10940TIP3    H283289   0.067   2.206   1.598
10941TIP3   OH283290   7.792   2.097   2.279
10941TIP3    H183291   7.812   2.074   2.188
10941TIP3    H283292   7.749   2.020   2.315
10942TIP3   OH283293   7.792   3.507   1.835
10942TIP3    H183294   7.721   3.510   1.899
10942TIP3    H283295   7.756   3.547   1.756
10943TIP3   OH283296   7.698   3.694   3.032
10943TIP3    H183297   7.759   3.676   3.104
10943TIP3    H283298   7.691   3.611   2.985
10944TIP3   OH283299   7.639   3.059   3.104
10944TIP3    H183300   7.646   2.964   3.112
10944TIP3    H283301   7.578   3.073   3.032
10945TIP3   OH283302   8.139   3.040   1.243
10945TIP3    H183303   8.122   3.078   1.329
10945TIP3    H283304   0.052   3.103   1.199
10946TIP3   OH283305   8.031   2.483   3.121
10946TIP3    H183306   7.967   2.433   3.070
10946TIP3    H283307   8.113   2.473   3.072
10947TIP3   OH283308   7.860   2.276   2.996
10947TIP3    H183309   7.853   2.198   2.941
10947TIP3    H283310   7.865   2.242   3.086
10948TIP3   OH283311   7.542   3.747   1.897
10948TIP3    H183312   7.474   3.710   1.841
10948TIP3    H283313   7.571   3.674   1.951
10949TIP3   OH283314   7.616   3.532   2.058
10949TIP3    H183315   7.567   3.451   2.071
10949TIP3    H283316   7.651   3.554   2.144
10950TIP3   OH283317   7.628   2.423   3.006
10950TIP3    H183318   7.713   2.381   2.992
10950TIP3    H283319   7.564   2.359   2.973
10951TIP3   OH283320   7.586   2.065   2.569
10951TIP3    H183321   7.512   2.064   2.630
10951TIP3    H283322   7.583   2.152   2.529
10952TIP3   OH283323   7.803   3.428   2.994
10952TIP3    H183324   7.719   3.401   2.957
10952TIP3    H283325   7.796   3.406   3.087
10953TIP3   OH283326   8.086   3.506   2.571
10953TIP3    H183327   8.042   3.580   2.614
10953TIP3    H283328   0.026   3.499   2.615
10954TIP3   OH283329   7.831   3.726   2.628
10954TIP3    H183330   7.759   3.777   2.591
10954TIP3    H283331   7.852   3.772   2.710
10955TIP3   OH283332   7.714   3.550   2.326
10955TIP3    H183333   7.713   3.517   2.416
10955TIP3    H283334   7.803   3.535   2.296
10956TIP3   OH283335   7.966   3.462   2.253
10956TIP3    H183336   7.962   3.368   2.272
10956TIP3    H283337   7.969   3.466   2.157
10957TIP3   OH283338   7.823   2.021   2.006
10957TIP3    H183339   7.733   2.007   1.975
10957TIP3    H283340   7.873   1.948   1.969
10958TIP3   OH283341   7.719   1.990   1.581
10958TIP3    H183342   7.788   2.032   1.530
10958TIP3    H283343   7.671   2.063   1.621
10959TIP3   OH283344   7.706   3.654   1.615
10959TIP3    H183345   7.636   3.618   1.561
10959TIP3    H283346   7.683   3.746   1.625
10960TIP3   OH283347   7.925   2.099   1.438
10960TIP3    H183348   7.973   2.096   1.355
10960TIP3    H283349   7.986   2.140   1.500
10961TIP3   OH283350   7.847   1.992   2.930
10961TIP3    H183351   7.781   1.932   2.965
10961TIP3    H283352   7.922   1.982   2.989
10962TIP3   OH283353   8.085   1.950   3.127
10962TIP3    H183354   0.011   1.948   3.062
10962TIP3    H283355   8.131   1.950   3.211
10963TIP3   OH283356   1.215   4.817   1.880
10963TIP3    H183357   1.230   4.910   1.866
10963TIP3    H283358   1.133   4.798   1.835
10964TIP3   OH283359   1.145   4.732   2.361
10964TIP3    H183360   1.162   4.668   2.430
10964TIP3    H283361   1.080   4.690   2.304
10965TIP3   OH283362   0.305   4.750   2.422
10965TIP3    H183363   0.332   4.678   2.480
10965TIP3    H283364   0.350   4.827   2.457
10966TIP3   OH283365   1.452   5.064   2.069
10966TIP3    H183366   1.439   4.983   2.118
10966TIP3    H283367   1.431   5.134   2.131
10967TIP3   OH283368   0.131   4.564   1.819
10967TIP3    H183369   0.132   4.622   1.895
10967TIP3    H283370   0.065   4.498   1.840
10968TIP3   OH283371   0.167   4.713   2.055
10968TIP3    H183372   0.188   4.626   2.088
10968TIP3    H283373   0.246   4.765   2.071
10969TIP3   OH283374   1.227   4.367   2.346
10969TIP3    H183375   1.216   4.280   2.385
10969TIP3    H283376   1.215   4.353   2.252
10970TIP3   OH283377   0.565   4.238   2.098
10970TIP3    H183378   0.600   4.308   2.043
10970TIP3    H283379   0.566   4.161   2.041
10971TIP3   OH283380   1.352   4.227   1.910
10971TIP3    H183381   1.403   4.200   1.987
10971TIP3    H283382   1.416   4.266   1.851
10972TIP3   OH283383   0.267   4.471   2.141
10972TIP3    H183384   0.326   4.435   2.207
10972TIP3    H283385   0.306   4.447   2.057
10973TIP3   OH283386   0.711   4.599   2.140
10973TIP3    H183387   0.800   4.571   2.160
10973TIP3    H283388   0.688   4.552   2.060
10974TIP3   OH283389   1.853   4.258   2.654
10974TIP3    H183390   1.779   4.313   2.629
10974TIP3    H283391   1.873   4.285   2.744
10975TIP3   OH283392   0.479   4.134   2.519
10975TIP3    H183393   0.450   4.200   2.455
10975TIP3    H283394   0.400   4.114   2.570
10976TIP3   OH283395   1.217   5.080   1.777
10976TIP3    H183396   1.156   5.087   1.703
10976TIP3    H283397   1.194   5.153   1.834
10977TIP3   OH283398   1.521   4.187   2.119
10977TIP3    H183399   1.606   4.146   2.106
10977TIP3    H283400   1.534   4.248   2.192
10978TIP3   OH283401   0.439   4.329   2.319
10978TIP3    H183402   0.505   4.381   2.365
10978TIP3    H283403   0.485   4.291   2.244
10979TIP3   OH283404   1.040   4.718   1.685
10979TIP3    H183405   0.954   4.731   1.645
10979TIP3    H283406   1.102   4.743   1.617
10980TIP3   OH283407   1.100   4.564   1.359
10980TIP3    H183408   1.145   4.626   1.416
10980TIP3    H283409   1.158   4.488   1.357
10981TIP3   OH283410   1.746   4.683   2.522
10981TIP3    H183411   1.679   4.750   2.512
10981TIP3    H283412   1.816   4.709   2.462
10982TIP3   OH283413   1.387   4.655   1.747
10982TIP3    H183414   1.332   4.714   1.799
10982TIP3    H283415   1.467   4.643   1.799
10983TIP3   OH283416   1.394   4.512   2.736
10983TIP3    H183417   1.395   4.590   2.793
10983TIP3    H283418   1.329   4.532   2.669
10984TIP3   OH283419   0.645   4.713   2.383
10984TIP3    H183420   0.682   4.688   2.298
10984TIP3    H283421   0.721   4.737   2.436
10985TIP3   OH283422   0.659   5.105   2.790
10985TIP3    H183423   0.572   5.114   2.829
10985TIP3    H283424   0.643   5.088   2.698
10986TIP3   OH283425   1.266   4.735   1.510
10986TIP3    H183426   1.310   4.704   1.589
10986TIP3    H283427   1.316   4.812   1.483
10987TIP3   OH283428   0.393   4.752   2.785
10987TIP3    H183429   0.404   4.836   2.830
10987TIP3    H283430   0.300   4.750   2.762
10988TIP3   OH283431   0.129   4.967   2.647
10988TIP3    H183432   0.051   4.994   2.598
10988TIP3    H283433   0.109   4.877   2.674
10989TIP3   OH283434   0.034   5.311   2.314
10989TIP3    H183435   8.124   5.233   2.299
10989TIP3    H283436   0.031   5.324   2.408
10990TIP3   OH283437   0.906   5.224   2.728
10990TIP3    H183438   0.935   5.301   2.777
10990TIP3    H283439   0.821   5.202   2.766
10991TIP3   OH283440   1.570   4.411   2.942
10991TIP3    H183441   1.499   4.425   2.879
10991TIP3    H283442   1.559   4.320   2.970
10992TIP3   OH283443   0.347   5.123   2.694
10992TIP3    H183444   0.367   5.082   2.778
10992TIP3    H283445   0.266   5.080   2.665
10993TIP3   OH283446   0.610   3.917   2.412
10993TIP3    H183447   0.558   3.897   2.334
10993TIP3    H283448   0.569   3.996   2.448
10994TIP3   OH283449   1.329   4.241   2.711
10994TIP3    H183450   1.270   4.227   2.785
10994TIP3    H283451   1.360   4.331   2.721
10995TIP3   OH283452   0.603   4.469   2.492
10995TIP3    H183453   0.523   4.478   2.545
10995TIP3    H283454   0.616   4.555   2.452
10996TIP3   OH283455   0.627   4.437   1.914
10996TIP3    H183456   0.532   4.448   1.911
10996TIP3    H283457   0.650   4.397   1.830
10997TIP3   OH283458   1.111   4.480   1.813
10997TIP3    H183459   1.084   4.566   1.780
10997TIP3    H283460   1.186   4.455   1.759
10998TIP3   OH283461   1.012   4.503   2.960
10998TIP3    H183462   0.967   4.424   2.989
10998TIP3    H283463   1.100   4.495   2.998
10999TIP3   OH283464   1.190   4.395   2.071
10999TIP3    H183465   1.154   4.450   2.001
10999TIP3    H283466   1.235   4.324   2.024
11000TIP3   OH283467   0.351   4.523   2.590
11000TIP3    H183468   0.320   4.548   2.677
11000TIP3    H283469   0.292   4.453   2.563
11001TIP3   OH283470   0.016   4.339   1.961
11001TIP3    H183471   0.011   4.305   2.050
11001TIP3    H283472   0.086   4.289   1.920
11002TIP3   OH283473   0.164   4.254   1.528
11002TIP3    H183474   0.228   4.256   1.458
11002TIP3    H283475   0.079   4.259   1.484
11003TIP3   OH283476   1.180   4.534   2.553
11003TIP3    H183477   1.204   4.477   2.480
11003TIP3    H283478   1.117   4.483   2.604
11004TIP3   OH283479   0.356   4.422   1.883
11004TIP3    H183480   0.291   4.481   1.843
11004TIP3    H283481   0.328   4.334   1.856
11005TIP3   OH283482   0.673   4.309   1.666
11005TIP3    H183483   0.766   4.308   1.687
11005TIP3    H283484   0.667   4.363   1.587
11006TIP3   OH283485   0.641   4.452   1.432
11006TIP3    H183486   0.573   4.446   1.364
11006TIP3    H283487   0.710   4.504   1.391
11007TIP3   OH283488   1.600   5.719   3.018
11007TIP3    H183489   1.624   5.749   2.931
11007TIP3    H283490   1.683   5.713   3.066
11008TIP3   OH283491   0.401   4.999   2.934
11008TIP3    H183492   0.443   4.966   3.014
11008TIP3    H283493   0.336   5.062   2.965
11009TIP3   OH283494   0.960   4.506   2.233
11009TIP3    H183495   1.034   4.460   2.195
11009TIP3    H283496   0.934   4.452   2.308
11010TIP3   OH283497   0.551   4.039   1.905
11010TIP3    H183498   0.482   3.979   1.933
11010TIP3    H283499   0.538   4.049   1.811
11011TIP3   OH283500   0.865   4.379   2.464
11011TIP3    H183501   0.776   4.410   2.480
11011TIP3    H283502   0.907   4.382   2.550
11012TIP3   OH283503   1.576   4.888   2.450
11012TIP3    H183504   1.632   4.939   2.391
11012TIP3    H283505   1.500   4.865   2.397
11013TIP3   OH283506   0.970   4.954   2.710
11013TIP3    H183507   1.005   4.946   2.799
11013TIP3    H283508   0.952   5.048   2.700
11014TIP3   OH283509   1.339   4.406   1.650
11014TIP3    H183510   1.425   4.364   1.660
11014TIP3    H283511   1.355   4.498   1.670
11015TIP3   OH283512   0.418   4.762   2.162
11015TIP3    H183513   0.508   4.731   2.169
11015TIP3    H283514   0.384   4.757   2.252
11016TIP3   OH283515   1.050   5.110   1.562
11016TIP3    H183516   1.060   5.181   1.499
11016TIP3    H283517   0.967   5.068   1.538
11017TIP3   OH283518   0.105   4.713   2.773
11017TIP3    H183519   0.128   4.684   2.862
11017TIP3    H283520   0.010   4.708   2.771
11018TIP3   OH283521   0.802   4.685   2.985
11018TIP3    H183522   0.744   4.657   2.915
11018TIP3    H283523   0.883   4.635   2.971
11019TIP3   OH283524   1.783   4.429   1.543
11019TIP3    H183525   1.771   4.419   1.448
11019TIP3    H283526   1.797   4.522   1.556
11020TIP3   OH283527   1.827   4.994   2.854
11020TIP3    H183528   1.790   5.082   2.858
11020TIP3    H283529   1.879   4.994   2.773
11021TIP3   OH283530   1.392   4.814   2.251
11021TIP3    H183531   1.302   4.798   2.280
11021TIP3    H283532   1.418   4.732   2.208
11022TIP3   OH283533   0.176   4.664   1.329
11022TIP3    H183534   0.247   4.654   1.393
11022TIP3    H283535   0.098   4.635   1.375
11023TIP3   OH283536   0.839   5.393   2.507
11023TIP3    H183537   0.911   5.397   2.444
11023TIP3    H283538   0.868   5.328   2.571
11024TIP3   OH283539   1.215   4.923   2.571
11024TIP3    H183540   1.126   4.938   2.606
11024TIP3    H283541   1.200   4.878   2.488
11025TIP3   OH283542   0.250   4.076   2.672
11025TIP3    H183543   0.157   4.053   2.665
11025TIP3    H283544   0.280   4.029   2.750
11026TIP3   OH283545   1.194   4.141   2.499
11026TIP3    H183546   1.246   4.174   2.573
11026TIP3    H283547   1.123   4.091   2.540
11027TIP3   OH283548   1.201   4.160   1.675
11027TIP3    H183549   1.230   4.245   1.642
11027TIP3    H283550   1.237   4.156   1.764
11028TIP3   OH283551   0.908   4.294   1.818
11028TIP3    H183552   0.983   4.353   1.811
11028TIP3    H283553   0.866   4.319   1.900
11029TIP3   OH283554   1.005   4.386   2.708
11029TIP3    H183555   0.997   4.444   2.784
11029TIP3    H283556   1.039   4.304   2.744
11030TIP3   OH283557   0.563   4.059   1.626
11030TIP3    H183558   0.590   4.150   1.636
11030TIP3    H283559   0.645   4.011   1.614
11031TIP3   OH283560   1.440   4.540   2.157
11031TIP3    H183561   1.353   4.502   2.153
11031TIP3    H283562   1.487   4.487   2.222
11032TIP3   OH283563   0.426   3.813   2.232
11032TIP3    H183564   0.410   3.844   2.143
11032TIP3    H283565   0.438   3.718   2.223
11033TIP3   OH283566   0.056   5.552   2.992
11033TIP3    H183567   0.135   5.542   3.044
11033TIP3    H283568   0.032   5.463   2.967
11034TIP3   OH283569   0.542   5.438   3.114
11034TIP3    H183570   0.613   5.375   3.123
11034TIP3    H283571   0.516   5.431   3.022
11035TIP3   OH283572   1.223   5.297   3.057
11035TIP3    H183573   1.211   5.208   3.091
11035TIP3    H283574   1.309   5.323   3.090
11036TIP3   OH283575   0.128   4.913   3.095
11036TIP3    H183576   0.163   4.832   3.059
11036TIP3    H283577   0.149   4.980   3.030
11037TIP3   OH283578   0.761   4.967   3.018
11037TIP3    H183579   0.744   4.999   2.930
11037TIP3    H283580   0.792   4.877   3.005
11038TIP3   OH283581   0.205   4.655   3.027
11038TIP3    H183582   0.291   4.615   3.021
11038TIP3    H283583   0.180   4.647   3.119
11039TIP3   OH283584   0.805   4.742   1.544
11039TIP3    H183585   0.715   4.727   1.572
11039TIP3    H283586   0.810   4.702   1.458
11040TIP3   OH283587   0.647   4.618   2.764
11040TIP3    H183588   0.560   4.659   2.762
11040TIP3    H283589   0.695   4.659   2.693
11041TIP3   OH283590   0.832   4.605   1.307
11041TIP3    H183591   0.825   4.608   1.212
11041TIP3    H283592   0.925   4.588   1.324
11042TIP3   OH283593   1.124   4.808   3.096
11042TIP3    H183594   1.186   4.758   3.043
11042TIP3    H283595   1.085   4.743   3.155
11043TIP3   OH283596   0.679   4.344   2.832
11043TIP3    H183597   0.696   4.288   2.756
11043TIP3    H283598   0.671   4.432   2.796
11044TIP3   OH283599   0.730   4.173   2.618
11044TIP3    H183600   0.780   4.207   2.543
11044TIP3    H283601   0.642   4.160   2.583
11045TIP3   OH283602   0.840   4.738   2.587
11045TIP3    H183603   0.919   4.689   2.566
11045TIP3    H283604   0.871   4.821   2.624
11046TIP3   OH283605   1.240   4.462   3.110
11046TIP3    H183606   1.247   4.379   3.157
11046TIP3    H283607   1.322   4.508   3.129
11047TIP3   OH283608   1.406   4.746   2.896
11047TIP3    H183609   1.375   4.819   2.842
11047TIP3    H283610   1.501   4.759   2.900
11048TIP3   OH283611   0.503   4.342   3.045
11048TIP3    H183612   0.424   4.293   3.022
11048TIP3    H283613   0.553   4.347   2.964
11049TIP3   OH283614   0.759   3.901   2.680
11049TIP3    H183615   0.752   3.996   2.671
11049TIP3    H283616   0.772   3.869   2.590
11050TIP3   OH283617   0.882   4.267   3.008
11050TIP3    H183618   0.838   4.233   3.086
11050TIP3    H283619   0.811   4.284   2.946
11051TIP3   OH283620   1.131   4.200   2.897
11051TIP3    H183621   1.049   4.207   2.945
11051TIP3    H283622   1.190   4.155   2.958
11052TIP3   OH283623   1.319   4.086   3.079
11052TIP3    H183624   1.305   3.992   3.096
11052TIP3    H283625   1.285   4.129   3.158
11053TIP3   OH283626   0.284   4.156   3.032
11053TIP3    H183627   0.281   4.085   2.968
11053TIP3    H283628   0.319   4.116   3.111
11054TIP3   OH283629   0.760   3.804   2.935
11054TIP3    H183630   0.818   3.728   2.928
11054TIP3    H283631   0.757   3.840   2.846
11055TIP3   OH283632   0.814   3.944   3.171
11055TIP3    H183633   0.804   3.897   3.088
11055TIP3    H283634   0.764   4.025   3.159
11056TIP3   OH283635   0.064   5.568   1.843
11056TIP3    H183636   8.114   5.553   1.843
11056TIP3    H283637   0.096   5.524   1.922
11057TIP3   OH283638   0.097   5.410   2.069
11057TIP3    H183639   0.094   5.322   2.031
11057TIP3    H283640   0.081   5.397   2.162
11058TIP3   OH283641   1.925   5.604   2.358
11058TIP3    H183642   1.913   5.654   2.438
11058TIP3    H283643   1.961   5.666   2.295
11059TIP3   OH283644   1.638   5.066   3.191
11059TIP3    H183645   1.562   5.087   3.245
11059TIP3    H283646   1.696   5.141   3.201
11060TIP3   OH283647   1.837   4.664   1.865
11060TIP3    H183648   1.746   4.642   1.887
11060TIP3    H283649   1.873   4.699   1.947
11061TIP3   OH283650   1.828   4.700   1.590
11061TIP3    H183651   1.763   4.770   1.584
11061TIP3    H283652   1.848   4.695   1.684
11062TIP3   OH283653   1.585   4.564   1.920
11062TIP3    H183654   1.584   4.471   1.896
11062TIP3    H283655   1.541   4.567   2.005
11063TIP3   OH283656   0.048   4.744   2.311
11063TIP3    H183657   0.081   4.765   2.224
11063TIP3    H283658   0.124   4.749   2.368
11064TIP3   OH283659   1.678   4.772   2.921
11064TIP3    H183660   1.730   4.697   2.894
11064TIP3    H283661   1.728   4.848   2.890
11065TIP3   OH283662   1.807   4.532   2.872
11065TIP3    H183663   1.721   4.493   2.890
11065TIP3    H283664   1.870   4.463   2.896
11066TIP3   OH283665   1.594   4.319   1.740
11066TIP3    H183666   1.642   4.241   1.769
11066TIP3    H283667   1.652   4.360   1.676
11067TIP3   OH283668   1.594   4.365   2.317
11067TIP3    H183669   1.684   4.388   2.294
11067TIP3    H283670   1.590   4.375   2.412
11068TIP3   OH283671   1.639   4.437   2.587
11068TIP3    H183672   1.562   4.461   2.639
11068TIP3    H283673   1.682   4.520   2.569
11069TIP3   OH283674   0.076   4.313   3.122
11069TIP3    H183675   0.145   4.258   3.086
11069TIP3    H283676   8.140   4.285   3.076
11070TIP3   OH283677   1.917   3.925   3.101
11070TIP3    H183678   1.949   3.838   3.076
11070TIP3    H283679   1.876   3.959   3.022
11071TIP3   OH283680   0.214   4.306   2.498
11071TIP3    H183681   0.217   4.218   2.534
11071TIP3    H283682   0.264   4.301   2.416
11072TIP3   OH283683   0.009   4.476   2.243
11072TIP3    H183684   0.095   4.457   2.206
11072TIP3    H283685   0.012   4.569   2.266
11073TIP3   OH283686   1.776   4.071   2.913
11073TIP3    H183687   1.708   4.099   2.974
11073TIP3    H283688   1.728   4.052   2.832
11074TIP3   OH283689   0.206   4.208   1.796
11074TIP3    H183690   0.161   4.124   1.801
11074TIP3    H283691   0.200   4.233   1.704
11075TIP3   OH283692   8.126   4.003   2.657
11075TIP3    H183693   8.075   4.019   2.736
11075TIP3    H283694   8.080   4.051   2.588
11076TIP3   OH283695   0.190   5.168   2.999
11076TIP3    H183696   0.131   5.217   2.943
11076TIP3    H283697   0.169   5.198   3.088
11077TIP3   OH283698   0.977   5.452   2.868
11077TIP3    H183699   0.964   5.440   2.963
11077TIP3    H283700   1.057   5.504   2.861
11078TIP3   OH283701   1.220   5.583   2.885
11078TIP3    H183702   1.256   5.496   2.900
11078TIP3    H283703   1.254   5.635   2.958
11079TIP3   OH283704   0.349   3.867   1.981
11079TIP3    H183705   0.265   3.895   1.945
11079TIP3    H283706   0.355   3.774   1.959
11080TIP3   OH283707   0.113   3.796   1.379
11080TIP3    H183708   0.133   3.887   1.359
11080TIP3    H283709   0.030   3.800   1.427
11081TIP3   OH283710   0.072   5.470   1.551
11081TIP3    H183711   0.129   5.527   1.500
11081TIP3    H283712   0.082   5.500   1.641
11082TIP3   OH283713   0.393   3.993   1.412
11082TIP3    H183714   0.398   3.898   1.402
11082TIP3    H283715   0.445   4.012   1.490
11083TIP3   OH283716   0.296   3.901   2.889
11083TIP3    H183717   0.224   3.849   2.924
11083TIP3    H283718   0.372   3.875   2.940
11084TIP3   OH283719   0.510   3.813   3.055
11084TIP3    H183720   0.594   3.822   3.011
11084TIP3    H283721   0.511   3.724   3.091
11085TIP3   OH283722   2.125   4.627   2.523
11085TIP3    H183723   2.165   4.548   2.560
11085TIP3    H283724   2.076   4.666   2.596
11086TIP3   OH283725   3.346   5.025   2.190
11086TIP3    H183726   3.252   5.037   2.177
11086TIP3    H283727   3.374   5.104   2.236
11087TIP3   OH283728   2.001   4.463   1.766
11087TIP3    H183729   1.944   4.530   1.805
11087TIP3    H283730   1.947   4.421   1.700
11088TIP3   OH283731   2.005   4.710   2.097
11088TIP3    H183732   2.031   4.619   2.113
11088TIP3    H283733   2.077   4.747   2.046
11089TIP3   OH283734   3.090   5.538   2.197
11089TIP3    H183735   3.117   5.472   2.132
11089TIP3    H283736   3.082   5.489   2.279
11090TIP3   OH283737   3.675   4.100   2.420
11090TIP3    H183738   3.701   4.150   2.497
11090TIP3    H283739   3.635   4.165   2.362
11091TIP3   OH283740   2.101   4.456   2.141
11091TIP3    H183741   2.156   4.406   2.202
11091TIP3    H283742   2.123   4.421   2.055
11092TIP3   OH283743   3.703   4.246   2.645
11092TIP3    H183744   3.640   4.317   2.636
11092TIP3    H283745   3.756   4.271   2.721
11093TIP3   OH283746   2.341   4.137   2.483
11093TIP3    H183747   2.304   4.180   2.406
11093TIP3    H283748   2.271   4.138   2.548
11094TIP3   OH283749   3.393   4.125   2.208
11094TIP3    H183750   3.299   4.133   2.220
11094TIP3    H283751   3.429   4.205   2.245
11095TIP3   OH283752   2.297   4.269   2.234
11095TIP3    H183753   2.330   4.345   2.282
11095TIP3    H283754   2.356   4.260   2.160
11096TIP3   OH283755   2.013   5.110   1.622
11096TIP3    H183756   2.087   5.120   1.561
11096TIP3    H283757   2.033   5.171   1.693
11097TIP3   OH283758   3.379   5.252   2.343
11097TIP3    H183759   3.286   5.266   2.359
11097TIP3    H283760   3.413   5.338   2.319
11098TIP3   OH283761   3.441   4.003   2.549
11098TIP3    H183762   3.360   4.022   2.502
11098TIP3    H283763   3.511   4.029   2.488
11099TIP3   OH283764   2.655   3.828   2.202
11099TIP3    H183765   2.647   3.735   2.223
11099TIP3    H283766   2.580   3.869   2.244
11100TIP3   OH283767   3.188   5.358   2.002
11100TIP3    H183768   3.217   5.271   1.974
11100TIP3    H283769   3.260   5.416   1.977
11101TIP3   OH283770   3.302   5.124   1.911
11101TIP3    H183771   3.326   5.083   1.828
11101TIP3    H283772   3.349   5.073   1.978
11102TIP3   OH283773   3.482   5.026   2.687
11102TIP3    H183774   3.478   4.975   2.607
11102TIP3    H283775   3.501   5.115   2.658
11103TIP3   OH283776   3.624   4.676   2.514
11103TIP3    H183777   3.570   4.752   2.492
11103TIP3    H283778   3.708   4.693   2.471
11104TIP3   OH283779   3.270   4.754   1.787
11104TIP3    H183780   3.197   4.763   1.849
11104TIP3    H283781   3.327   4.689   1.826
11105TIP3   OH283782   3.269   4.515   2.711
11105TIP3    H183783   3.263   4.593   2.766
11105TIP3    H283784   3.217   4.536   2.633
11106TIP3   OH283785   3.117   5.288   2.406
11106TIP3    H183786   3.076   5.356   2.459
11106TIP3    H283787   3.087   5.206   2.444
11107TIP3   OH283788   2.554   5.135   2.739
11107TIP3    H183789   2.508   5.180   2.809
11107TIP3    H283790   2.512   5.049   2.735
11108TIP3   OH283791   3.147   4.678   1.548
11108TIP3    H183792   3.186   4.702   1.632
11108TIP3    H283793   3.220   4.676   1.487
11109TIP3   OH283794   2.969   5.443   1.860
11109TIP3    H183795   3.036   5.407   1.917
11109TIP3    H283796   2.894   5.384   1.869
11110TIP3   OH283797   2.357   5.286   2.887
11110TIP3    H183798   2.328   5.256   2.800
11110TIP3    H283799   2.275   5.295   2.937
11111TIP3   OH283800   3.578   3.822   1.499
11111TIP3    H183801   3.579   3.795   1.591
11111TIP3    H283802   3.624   3.906   1.497
11112TIP3   OH283803   2.260   4.674   1.622
11112TIP3    H183804   2.326   4.715   1.677
11112TIP3    H283805   2.218   4.609   1.678
11113TIP3   OH283806   3.648   5.298   1.398
11113TIP3    H183807   3.696   5.381   1.401
11113TIP3    H283808   3.715   5.232   1.384
11114TIP3   OH283809   1.993   4.938   2.634
11114TIP3    H183810   1.974   4.916   2.543
11114TIP3    H283811   1.995   4.854   2.679
11115TIP3   OH283812   3.706   5.280   2.897
11115TIP3    H183813   3.697   5.185   2.901
11115TIP3    H283814   3.626   5.313   2.936
11116TIP3   OH283815   2.303   5.416   1.942
11116TIP3    H183816   2.263   5.444   2.024
11116TIP3    H283817   2.229   5.385   1.889
11117TIP3   OH283818   3.235   5.576   1.445
11117TIP3    H183819   3.281   5.498   1.414
11117TIP3    H283820   3.202   5.551   1.532
11118TIP3   OH283821   3.179   5.559   1.721
11118TIP3    H183822   3.096   5.525   1.755
11118TIP3    H283823   3.243   5.537   1.789
11119TIP3   OH283824   3.438   4.406   2.915
11119TIP3    H183825   3.379   4.441   2.848
11119TIP3    H283826   3.447   4.313   2.892
11120TIP3   OH283827   2.217   5.095   2.706
11120TIP3    H183828   2.241   5.053   2.789
11120TIP3    H283829   2.142   5.044   2.674
11121TIP3   OH283830   2.426   3.924   2.325
11121TIP3    H183831   2.345   3.910   2.276
11121TIP3    H283832   2.408   3.999   2.381
11122TIP3   OH283833   2.940   3.882   2.672
11122TIP3    H183834   2.989   3.842   2.744
11122TIP3    H283835   2.850   3.886   2.704
11123TIP3   OH283836   3.175   4.246   2.727
11123TIP3    H183837   3.119   4.244   2.804
11123TIP3    H283838   3.199   4.338   2.717
11124TIP3   OH283839   2.895   4.120   1.445
11124TIP3    H183840   2.841   4.176   1.501
11124TIP3    H283841   2.861   4.032   1.458
11125TIP3   OH283842   2.333   4.485   2.393
11125TIP3    H183843   2.331   4.447   2.481
11125TIP3    H283844   2.268   4.554   2.396
11126TIP3   OH283845   3.001   4.510   2.973
11126TIP3    H183846   2.907   4.510   2.986
11126TIP3    H283847   3.025   4.418   2.967
11127TIP3   OH283848   2.258   4.419   2.647
11127TIP3    H183849   2.308   4.452   2.722
11127TIP3    H283850   2.219   4.338   2.678
11128TIP3   OH283851   1.900   4.070   1.946
11128TIP3    H183852   1.950   4.109   2.018
11128TIP3    H283853   1.904   3.976   1.962
11129TIP3   OH283854   1.980   4.228   1.524
11129TIP3    H183855   2.007   4.220   1.433
11129TIP3    H283856   1.914   4.297   1.524
11130TIP3   OH283857   2.199   4.344   1.911
11130TIP3    H183858   2.132   4.378   1.851
11130TIP3    H283859   2.225   4.260   1.873
11131TIP3   OH283860   3.101   4.153   2.271
11131TIP3    H183861   3.109   4.113   2.358
11131TIP3    H283862   3.025   4.112   2.232
11132TIP3   OH283863   3.492   5.673   3.003
11132TIP3    H183864   3.515   5.705   2.916
11132TIP3    H283865   3.568   5.695   3.058
11133TIP3   OH283866   2.254   4.968   2.948
11133TIP3    H183867   2.317   4.966   3.020
11133TIP3    H283868   2.170   4.946   2.988
11134TIP3   OH283869   2.396   4.028   1.848
11134TIP3    H183870   2.315   3.984   1.875
11134TIP3    H283871   2.466   3.969   1.878
11135TIP3   OH283872   3.475   4.905   2.437
11135TIP3    H183873   3.563   4.939   2.417
11135TIP3    H283874   3.423   4.924   2.359
11136TIP3   OH283875   3.159   4.190   1.386
11136TIP3    H183876   3.070   4.158   1.400
11136TIP3    H283877   3.165   4.270   1.437
11137TIP3   OH283878   2.004   4.694   2.761
11137TIP3    H183879   2.061   4.672   2.835
11137TIP3    H283880   1.925   4.642   2.775
11138TIP3   OH283881   3.106   5.245   2.788
11138TIP3    H183882   3.014   5.260   2.765
11138TIP3    H283883   3.109   5.252   2.883
11139TIP3   OH283884   3.695   4.996   2.858
11139TIP3    H183885   3.612   5.010   2.811
11139TIP3    H283886   3.761   4.991   2.789
11140TIP3   OH283887   3.541   5.317   1.653
11140TIP3    H183888   3.475   5.248   1.665
11140TIP3    H283889   3.574   5.304   1.565
11141TIP3   OH283890   2.519   5.300   1.790
11141TIP3    H183891   2.563   5.380   1.817
11141TIP3    H283892   2.439   5.297   1.842
11142TIP3   OH283893   2.013   4.758   1.382
11142TIP3    H183894   2.102   4.768   1.417
11142TIP3    H283895   1.960   4.735   1.459
11143TIP3   OH283896   3.068   5.037   2.519
11143TIP3    H183897   3.117   5.008   2.595
11143TIP3    H283898   3.043   4.956   2.474
11144TIP3   OH283899   3.272   5.127   1.462
11144TIP3    H183900   3.309   5.075   1.533
11144TIP3    H283901   3.180   5.102   1.459
11145TIP3   OH283902   3.311   5.424   2.725
11145TIP3    H183903   3.233   5.369   2.725
11145TIP3    H283904   3.296   5.488   2.655
11146TIP3   OH283905   3.791   5.535   1.435
11146TIP3    H183906   3.847   5.580   1.371
11146TIP3    H283907   3.725   5.600   1.458
11147TIP3   OH283908   2.132   4.166   2.675
11147TIP3    H183909   2.040   4.184   2.656
11147TIP3    H283910   2.129   4.094   2.739
11148TIP3   OH283911   3.384   4.982   1.678
11148TIP3    H183912   3.340   4.902   1.707
11148TIP3    H283913   3.476   4.957   1.670
11149TIP3   OH283914   2.536   5.227   1.522
11149TIP3    H183915   2.533   5.244   1.616
11149TIP3    H283916   2.599   5.291   1.488
11150TIP3   OH283917   3.107   4.063   2.531
11150TIP3    H183918   3.131   4.127   2.598
11150TIP3    H283919   3.052   3.999   2.576
11151TIP3   OH283920   2.448   4.079   1.580
11151TIP3    H183921   2.419   4.060   1.669
11151TIP3    H283922   2.528   4.131   1.591
11152TIP3   OH283923   3.430   4.158   2.794
11152TIP3    H183924   3.336   4.168   2.778
11152TIP3    H283925   3.463   4.115   2.715
11153TIP3   OH283926   2.297   5.129   1.406
11153TIP3    H183927   2.375   5.160   1.452
11153TIP3    H283928   2.318   5.039   1.381
11154TIP3   OH283929   3.492   5.503   2.320
11154TIP3    H183930   3.470   5.568   2.253
11154TIP3    H283931   3.587   5.500   2.321
11155TIP3   OH283932   2.182   3.884   2.203
11155TIP3    H183933   2.181   3.872   2.108
11155TIP3    H283934   2.141   3.805   2.238
11156TIP3   OH283935   2.077   5.331   1.797
11156TIP3    H183936   2.022   5.355   1.872
11156TIP3    H283937   2.047   5.388   1.726
11157TIP3   OH283938   2.066   5.587   3.019
11157TIP3    H183939   2.142   5.604   3.075
11157TIP3    H283940   2.070   5.493   3.003
11158TIP3   OH283941   2.452   5.427   3.116
11158TIP3    H183942   2.547   5.416   3.126
11158TIP3    H283943   2.431   5.380   3.035
11159TIP3   OH283944   3.116   5.250   3.063
11159TIP3    H183945   3.080   5.174   3.109
11159TIP3    H283946   3.195   5.273   3.113
11160TIP3   OH283947   3.372   5.358   1.346
11160TIP3    H183948   3.332   5.277   1.377
11160TIP3    H283949   3.466   5.341   1.348
11161TIP3   OH283950   2.006   4.920   3.061
11161TIP3    H183951   1.983   4.837   3.102
11161TIP3    H283952   1.935   4.935   2.998
11162TIP3   OH283953   3.218   4.984   2.755
11162TIP3    H183954   3.311   5.000   2.740
11162TIP3    H283955   3.181   5.070   2.777
11163TIP3   OH283956   2.139   4.599   2.985
11163TIP3    H183957   2.200   4.531   3.011
11163TIP3    H283958   2.100   4.629   3.068
11164TIP3   OH283959   2.449   4.553   2.816
11164TIP3    H183960   2.426   4.532   2.906
11164TIP3    H283961   2.519   4.618   2.824
11165TIP3   OH283962   3.000   4.800   3.132
11165TIP3    H183963   2.984   4.893   3.148
11165TIP3    H283964   2.943   4.755   3.194
11166TIP3   OH283965   3.641   4.826   1.248
11166TIP3    H183966   3.653   4.804   1.156
11166TIP3    H283967   3.614   4.917   1.248
11167TIP3   OH283968   2.562   4.294   2.834
11167TIP3    H183969   2.579   4.232   2.763
11167TIP3    H283970   2.542   4.377   2.790
11168TIP3   OH283971   2.597   4.145   2.601
11168TIP3    H183972   2.654   4.198   2.546
11168TIP3    H283973   2.513   4.144   2.555
11169TIP3   OH283974   3.256   4.446   3.132
11169TIP3    H183975   3.221   4.373   3.183
11169TIP3    H283976   3.328   4.408   3.082
11170TIP3   OH283977   3.280   4.737   2.885
11170TIP3    H183978   3.251   4.819   2.846
11170TIP3    H283979   3.374   4.748   2.900
11171TIP3   OH283980   2.363   4.369   3.018
11171TIP3    H183981   2.290   4.308   3.027
11171TIP3    H283982   2.426   4.323   2.961
11172TIP3   OH283983   2.648   3.883   2.699
11172TIP3    H183984   2.636   3.974   2.672
11172TIP3    H283985   2.580   3.834   2.652
11173TIP3   OH283986   2.732   4.362   3.046
11173TIP3    H183987   2.698   4.298   3.109
11173TIP3    H283988   2.686   4.342   2.964
11174TIP3   OH283989   3.039   4.236   2.964
11174TIP3    H183990   2.959   4.209   3.008
11174TIP3    H283991   3.108   4.184   3.005
11175TIP3   OH283992   3.231   4.087   3.095
11175TIP3    H183993   3.222   3.992   3.102
11175TIP3    H283994   3.196   4.120   3.178
11176TIP3   OH283995   2.162   4.178   3.038
11176TIP3    H183996   2.153   4.102   2.981
11176TIP3    H283997   2.180   4.142   3.124
11177TIP3   OH283998   2.626   3.817   2.967
11177TIP3    H183999   2.661   3.728   2.976
11177TIP3    H284000   2.637   3.837   2.874
11178TIP3   OH284001   2.703   3.990   3.169
11178TIP3    H184002   2.681   3.933   3.095
11178TIP3    H284003   2.640   4.061   3.164
11179TIP3   OH284004   1.922   5.641   1.834
11179TIP3    H184005   1.929   5.597   1.750
11179TIP3    H284006   1.928   5.571   1.899
11180TIP3   OH284007   1.962   5.442   2.026
11180TIP3    H184008   1.887   5.409   2.075
11180TIP3    H284009   2.029   5.459   2.092
11181TIP3   OH284010   3.680   5.480   2.698
11181TIP3    H184011   3.635   5.417   2.641
11181TIP3    H284012   3.708   5.428   2.773
11182TIP3   OH284013   3.504   5.048   3.224
11182TIP3    H184014   3.423   5.071   3.268
11182TIP3    H284015   3.558   5.127   3.231
11183TIP3   OH284016   3.647   4.892   1.691
11183TIP3    H184017   3.723   4.947   1.673
11183TIP3    H284018   3.665   4.854   1.777
11184TIP3   OH284019   3.735   4.970   2.401
11184TIP3    H184020   3.782   4.905   2.349
11184TIP3    H284021   3.768   5.054   2.369
11185TIP3   OH284022   3.508   5.281   2.589
11185TIP3    H184023   3.440   5.330   2.634
11185TIP3    H284024   3.474   5.267   2.501
11186TIP3   OH284025   3.721   4.700   1.495
11186TIP3    H184026   3.695   4.737   1.410
11186TIP3    H284027   3.686   4.762   1.559
11187TIP3   OH284028   3.414   4.561   1.916
11187TIP3    H184029   3.444   4.491   1.859
11187TIP3    H284030   3.427   4.527   2.005
11188TIP3   OH284031   1.960   4.793   2.365
11188TIP3    H184032   1.961   4.771   2.272
11188TIP3    H284033   2.026   4.737   2.404
11189TIP3   OH284034   3.558   4.758   2.926
11189TIP3    H184035   3.610   4.682   2.900
11189TIP3    H284036   3.610   4.833   2.898
11190TIP3   OH284037   3.687   4.517   2.874
11190TIP3    H184038   3.601   4.477   2.890
11190TIP3    H284039   3.749   4.446   2.890
11191TIP3   OH284040   3.348   4.111   1.195
11191TIP3    H184041   3.417   4.075   1.251
11191TIP3    H284042   3.280   4.140   1.256
11192TIP3   OH284043   3.521   4.354   1.773
11192TIP3    H184044   3.503   4.261   1.780
11192TIP3    H284045   3.608   4.359   1.734
11193TIP3   OH284046   3.541   4.331   2.327
11193TIP3    H184047   3.606   4.394   2.295
11193TIP3    H284048   3.519   4.363   2.415
11194TIP3   OH284049   3.513   4.439   2.582
11194TIP3    H184050   3.431   4.463   2.626
11194TIP3    H284051   3.557   4.522   2.565
11195TIP3   OH284052   1.937   4.293   2.921
11195TIP3    H184053   2.020   4.271   2.964
11195TIP3    H284054   1.884   4.214   2.930
11196TIP3   OH284055   3.738   3.894   3.123
11196TIP3    H184056   3.803   3.827   3.105
11196TIP3    H284057   3.741   3.953   3.047
11197TIP3   OH284058   3.521   4.079   1.788
11197TIP3    H184059   3.546   4.051   1.876
11197TIP3    H284060   3.461   4.011   1.757
11198TIP3   OH284061   2.060   4.129   2.166
11198TIP3    H184062   2.088   4.043   2.196
11198TIP3    H284063   2.133   4.187   2.187
11199TIP3   OH284064   1.857   4.430   2.284
11199TIP3    H184065   1.931   4.432   2.223
11199TIP3    H284066   1.897   4.424   2.371
11200TIP3   OH284067   3.672   4.058   2.912
11200TIP3    H184068   3.590   4.107   2.921
11200TIP3    H284069   3.655   3.994   2.843
11201TIP3   OH284070   3.742   4.044   1.392
11201TIP3    H184071   3.729   4.024   1.299
11201TIP3    H284072   3.737   4.139   1.397
11202TIP3   OH284073   1.913   4.008   1.673
11202TIP3    H184074   1.908   4.035   1.764
11202TIP3    H284075   1.940   4.086   1.625
11203TIP3   OH284076   3.376   5.540   1.917
11203TIP3    H184077   3.458   5.542   1.868
11203TIP3    H284078   3.394   5.589   1.997
11204TIP3   OH284079   2.101   5.307   2.992
11204TIP3    H184080   2.040   5.269   2.929
11204TIP3    H284081   2.086   5.258   3.072
11205TIP3   OH284082   3.149   5.630   2.857
11205TIP3    H184083   3.211   5.559   2.843
11205TIP3    H284084   3.163   5.656   2.948
11206TIP3   OH284085   3.578   3.858   2.745
11206TIP3    H184086   3.516   3.890   2.680
11206TIP3    H284087   3.588   3.765   2.726
11207TIP3   OH284088   3.060   5.540   2.511
11207TIP3    H184089   3.024   5.609   2.567
11207TIP3    H284090   3.152   5.564   2.501
11208TIP3   OH284091   3.326   5.608   2.515
11208TIP3    H184092   3.360   5.697   2.526
11208TIP3    H284093   3.384   5.568   2.449
11209TIP3   OH284094   2.152   5.475   2.228
11209TIP3    H184095   2.094   5.477   2.304
11209TIP3    H284096   2.233   5.435   2.260
11210TIP3   OH284097   2.875   4.009   2.171
11210TIP3    H184098   2.789   3.971   2.187
11210TIP3    H284099   2.924   3.941   2.126
11211TIP3   OH284100   3.574   3.999   2.042
11211TIP3    H184101   3.629   3.947   2.101
11211TIP3    H284102   3.508   4.039   2.099
11212TIP3   OH284103   2.179   3.855   1.926
11212TIP3    H184104   2.086   3.845   1.909
11212TIP3    H284105   2.215   3.767   1.915
11213TIP3   OH284106   2.039   3.821   1.514
11213TIP3    H184107   2.115   3.872   1.485
11213TIP3    H284108   1.990   3.880   1.571
11214TIP3   OH284109   2.603   3.856   1.924
11214TIP3    H184110   2.686   3.858   1.876
11214TIP3    H284111   2.629   3.852   2.017
11215TIP3   OH284112   1.985   5.501   1.595
11215TIP3    H184113   1.938   5.447   1.532
11215TIP3    H284114   2.037   5.561   1.541
11216TIP3   OH284115   2.257   3.958   1.414
11216TIP3    H184116   2.287   3.990   1.329
11216TIP3    H284117   2.315   4.001   1.477
11217TIP3   OH284118   3.604   5.561   1.763
11217TIP3    H184119   3.592   5.472   1.732
11217TIP3    H284120   3.617   5.613   1.684
11218TIP3   OH284121   2.164   3.943   2.882
11218TIP3    H184122   2.109   3.873   2.919
11218TIP3    H284123   2.248   3.933   2.926
11219TIP3   OH284124   2.371   3.884   3.056
11219TIP3    H184125   2.460   3.860   3.029
11219TIP3    H284126   2.339   3.807   3.103
11220TIP3   OH284127   3.232   3.812   3.109
11220TIP3    H184128   3.227   3.764   3.192
11220TIP3    H284129   3.321   3.796   3.078
11221TIP3   OH284130   3.464   5.403   2.955
11221TIP3    H184131   3.416   5.406   2.872
11221TIP3    H284132   3.480   5.496   2.976
11222TIP3   OH284133   4.982   4.826   1.962
11222TIP3    H184134   4.990   4.915   1.928
11222TIP3    H284135   4.915   4.786   1.907
11223TIP3   OH284136   4.119   5.083   2.276
11223TIP3    H184137   4.120   5.041   2.362
11223TIP3    H284138   4.168   5.164   2.289
11224TIP3   OH284139   4.989   5.551   2.205
11224TIP3    H184140   5.017   5.463   2.179
11224TIP3    H284141   4.953   5.540   2.293
11225TIP3   OH284142   5.605   4.126   2.426
11225TIP3    H184143   5.620   4.214   2.460
11225TIP3    H284144   5.664   4.119   2.351
11226TIP3   OH284145   5.025   4.345   2.394
11226TIP3    H184146   4.967   4.269   2.382
11226TIP3    H284147   5.023   4.390   2.310
11227TIP3   OH284148   5.650   4.317   2.653
11227TIP3    H184149   5.573   4.366   2.624
11227TIP3    H284150   5.661   4.341   2.744
11228TIP3   OH284151   5.202   4.233   2.139
11228TIP3    H184152   5.222   4.139   2.140
11228TIP3    H284153   5.262   4.271   2.203
11229TIP3   OH284154   3.871   5.045   1.647
11229TIP3    H184155   3.863   5.094   1.565
11229TIP3    H284156   3.906   5.108   1.710
11230TIP3   OH284157   5.368   4.031   2.540
11230TIP3    H184158   5.297   4.040   2.476
11230TIP3    H284159   5.446   4.062   2.493
11231TIP3   OH284160   4.865   4.724   1.721
11231TIP3    H184161   4.814   4.780   1.662
11231TIP3    H284162   4.955   4.732   1.690
11232TIP3   OH284163   5.536   4.679   2.555
11232TIP3    H184164   5.527   4.771   2.582
11232TIP3    H284165   5.589   4.682   2.476
11233TIP3   OH284166   5.147   4.723   1.759
11233TIP3    H184167   5.108   4.754   1.840
11233TIP3    H284168   5.223   4.672   1.786
11234TIP3   OH284169   5.177   4.530   2.759
11234TIP3    H184170   5.166   4.614   2.804
11234TIP3    H284171   5.089   4.504   2.734
11235TIP3   OH284172   4.485   5.123   2.873
11235TIP3    H184173   4.482   5.148   2.966
11235TIP3    H284174   4.398   5.085   2.855
11236TIP3   OH284175   5.421   3.916   1.529
11236TIP3    H184176   5.342   3.903   1.476
11236TIP3    H284177   5.483   3.959   1.470
11237TIP3   OH284178   3.862   4.949   2.647
11237TIP3    H184179   3.815   4.953   2.565
11237TIP3    H284180   3.865   4.856   2.669
11238TIP3   OH284181   3.865   5.199   2.326
11238TIP3    H184182   3.944   5.170   2.280
11238TIP3    H284183   3.897   5.250   2.400
11239TIP3   OH284184   5.627   5.305   2.918
11239TIP3    H184185   5.625   5.239   2.987
11239TIP3    H284186   5.544   5.352   2.927
11240TIP3   OH284187   4.672   5.289   2.721
11240TIP3    H184188   4.651   5.375   2.757
11240TIP3    H284189   4.615   5.228   2.769
11241TIP3   OH284190   4.928   5.664   1.721
11241TIP3    H184191   4.885   5.610   1.655
11241TIP3    H284192   4.861   5.726   1.749
11242TIP3   OH284193   5.346   4.410   2.949
11242TIP3    H184194   5.278   4.458   2.900
11242TIP3    H284195   5.343   4.322   2.913
11243TIP3   OH284196   4.097   5.090   2.674
11243TIP3    H184197   4.138   5.065   2.757
11243TIP3    H284198   4.016   5.040   2.672
11244TIP3   OH284199   4.945   4.488   1.858
11244TIP3    H184200   4.893   4.559   1.821
11244TIP3    H284201   5.010   4.468   1.791
11245TIP3   OH284202   4.837   4.453   2.927
11245TIP3    H184203   4.769   4.402   2.971
11245TIP3    H284204   4.910   4.454   2.988
11246TIP3   OH284205   5.005   4.425   2.118
11246TIP3    H184206   4.984   4.448   2.028
11246TIP3    H284207   5.063   4.349   2.110
11247TIP3   OH284208   4.590   4.231   1.992
11247TIP3    H184209   4.503   4.253   2.026
11247TIP3    H284210   4.650   4.286   2.042
11248TIP3   OH284211   5.370   5.688   3.025
11248TIP3    H184212   5.400   5.709   2.936
11248TIP3    H284213   5.446   5.706   3.081
11249TIP3   OH284214   4.174   5.003   2.932
11249TIP3    H184215   4.226   4.965   3.002
11249TIP3    H284216   4.084   4.999   2.965
11250TIP3   OH284217   4.729   4.400   2.175
11250TIP3    H184218   4.819   4.423   2.155
11250TIP3    H284219   4.689   4.481   2.207
11251TIP3   OH284220   4.678   4.894   1.584
11251TIP3    H184221   4.603   4.915   1.527
11251TIP3    H284222   4.645   4.907   1.673
11252TIP3   OH284223   4.097   4.825   2.152
11252TIP3    H184224   4.095   4.919   2.171
11252TIP3    H284225   4.153   4.818   2.074
11253TIP3   OH284226   3.863   4.698   2.750
11253TIP3    H184227   3.920   4.691   2.827
11253TIP3    H284228   3.796   4.631   2.764
11254TIP3   OH284229   5.533   4.428   1.550
11254TIP3    H184230   5.449   4.441   1.507
11254TIP3    H284231   5.568   4.517   1.562
11255TIP3   OH284232   5.577   5.002   2.880
11255TIP3    H184233   5.509   5.069   2.876
11255TIP3    H284234   5.621   5.008   2.796
11256TIP3   OH284235   4.419   5.155   1.914
11256TIP3    H184236   4.424   5.211   1.992
11256TIP3    H284237   4.381   5.212   1.847
11257TIP3   OH284238   4.546   4.929   1.818
11257TIP3    H184239   4.504   5.007   1.855
11257TIP3    H284240   4.505   4.856   1.864
11258TIP3   OH284241   5.207   5.499   2.720
11258TIP3    H184242   5.183   5.425   2.665
11258TIP3    H284243   5.246   5.562   2.659
11259TIP3   OH284244   5.697   5.615   1.419
11259TIP3    H184245   5.745   5.674   1.477
11259TIP3    H284246   5.610   5.609   1.458
11260TIP3   OH284247   4.004   5.308   2.537
11260TIP3    H184248   4.043   5.236   2.587
11260TIP3    H284249   3.982   5.374   2.602
11261TIP3   OH284250   4.047   4.934   1.443
11261TIP3    H184251   4.009   4.930   1.531
11261TIP3    H284252   4.137   4.905   1.454
11262TIP3   OH284253   4.406   4.130   1.517
11262TIP3    H184254   4.399   4.222   1.493
11262TIP3    H284255   4.478   4.127   1.580
11263TIP3   OH284256   5.378   4.201   2.761
11263TIP3    H184257   5.359   4.133   2.695
11263TIP3    H284258   5.389   4.281   2.709
11264TIP3   OH284259   5.259   4.555   2.150
11264TIP3    H184260   5.167   4.530   2.144
11264TIP3    H284261   5.298   4.491   2.209
11265TIP3   OH284262   3.965   5.249   1.803
11265TIP3    H184263   3.942   5.285   1.888
11265TIP3    H284264   3.969   5.325   1.745
11266TIP3   OH284265   3.948   5.597   3.048
11266TIP3    H184266   4.010   5.594   3.121
11266TIP3    H284267   3.943   5.507   3.017
11267TIP3   OH284268   4.383   5.422   3.133
11267TIP3    H184269   4.420   5.334   3.142
11267TIP3    H284270   4.444   5.468   3.075
11268TIP3   OH284271   3.913   4.947   3.029
11268TIP3    H184272   3.934   4.855   3.015
11268TIP3    H284273   3.832   4.960   2.981
11269TIP3   OH284274   4.550   4.877   3.010
11269TIP3    H184275   4.555   4.949   2.947
11269TIP3    H284276   4.641   4.858   3.032
11270TIP3   OH284277   4.006   4.686   2.987
11270TIP3    H184278   4.100   4.671   2.976
11270TIP3    H284279   3.987   4.656   3.076
11271TIP3   OH284280   4.816   4.818   3.072
11271TIP3    H184281   4.863   4.775   3.000
11271TIP3    H284282   4.819   4.754   3.144
11272TIP3   OH284283   5.027   4.455   3.126
11272TIP3    H184284   5.044   4.373   3.172
11272TIP3    H284285   5.104   4.510   3.145
11273TIP3   OH284286   5.190   4.773   2.899
11273TIP3    H184287   5.176   4.867   2.898
11273TIP3    H284288   5.285   4.762   2.905
11274TIP3   OH284289   4.664   4.307   3.098
11274TIP3    H184290   4.711   4.263   3.169
11274TIP3    H284291   4.575   4.272   3.102
11275TIP3   OH284292   5.156   4.008   3.179
11275TIP3    H184293   5.096   3.937   3.201
11275TIP3    H284294   5.111   4.087   3.208
11276TIP3   OH284295   4.042   4.155   3.038
11276TIP3    H184296   4.042   4.084   2.974
11276TIP3    H284297   4.062   4.112   3.121
11277TIP3   OH284298   4.526   3.803   2.953
11277TIP3    H184299   4.590   3.732   2.944
11277TIP3    H284300   4.525   3.845   2.867
11278TIP3   OH284301   4.574   3.966   3.176
11278TIP3    H184302   4.564   3.908   3.101
11278TIP3    H284303   4.515   4.040   3.158
11279TIP3   OH284304   3.885   5.148   1.377
11279TIP3    H184305   3.941   5.205   1.325
11279TIP3    H284306   3.933   5.065   1.381
11280TIP3   OH284307   5.600   5.490   2.700
11280TIP3    H184308   5.669   5.472   2.637
11280TIP3    H284309   5.610   5.423   2.767
11281TIP3   OH284310   5.412   5.068   3.183
11281TIP3    H184311   5.335   5.070   3.240
11281TIP3    H284312   5.462   5.145   3.208
11282TIP3   OH284313   5.625   4.687   1.588
11282TIP3    H184314   5.593   4.777   1.578
11282TIP3    H284315   5.643   4.678   1.681
11283TIP3   OH284316   5.341   4.573   1.883
11283TIP3    H184317   5.382   4.488   1.869
11283TIP3    H284318   5.324   4.576   1.977
11284TIP3   OH284319   3.860   4.754   2.288
11284TIP3    H184320   3.826   4.668   2.263
11284TIP3    H284321   3.937   4.766   2.232
11285TIP3   OH284322   5.459   4.761   2.921
11285TIP3    H184323   5.517   4.689   2.894
11285TIP3    H284324   5.510   4.840   2.902
11286TIP3   OH284325   5.584   4.524   2.870
11286TIP3    H184326   5.501   4.488   2.900
11286TIP3    H284327   5.650   4.469   2.912
11287TIP3   OH284328   5.473   4.337   1.808
11287TIP3    H184329   5.460   4.242   1.809
11287TIP3    H284330   5.493   4.358   1.717
11288TIP3   OH284331   5.375   4.359   2.321
11288TIP3    H184332   5.469   4.374   2.307
11288TIP3    H284333   5.361   4.378   2.414
11289TIP3   OH284334   5.399   4.443   2.606
11289TIP3    H184335   5.318   4.471   2.649
11289TIP3    H284336   5.445   4.525   2.588
11290TIP3   OH284337   3.832   4.282   2.900
11290TIP3    H184338   3.914   4.259   2.943
11290TIP3    H284339   3.777   4.204   2.910
11291TIP3   OH284340   5.685   3.892   3.057
11291TIP3    H184341   5.718   3.899   3.146
11291TIP3    H284342   5.648   3.979   3.038
11292TIP3   OH284343   5.428   4.053   1.765
11292TIP3    H184344   5.338   4.050   1.799
11292TIP3    H284345   5.424   4.000   1.685
11293TIP3   OH284346   3.775   4.478   2.262
11293TIP3    H184347   3.812   4.459   2.176
11293TIP3    H284348   3.826   4.423   2.323
11294TIP3   OH284349   5.551   4.116   2.963
11294TIP3    H184350   5.493   4.125   3.039
11294TIP3    H284351   5.495   4.129   2.887
11295TIP3   OH284352   5.623   4.050   1.387
11295TIP3    H184353   5.662   4.087   1.309
11295TIP3    H284354   5.660   4.102   1.459
11296TIP3   OH284355   3.784   3.874   2.544
11296TIP3    H184356   3.728   3.881   2.621
11296TIP3    H284357   3.761   3.949   2.490
11297TIP3   OH284358   3.957   5.330   2.994
11297TIP3    H184359   3.873   5.308   2.954
11297TIP3    H284360   3.962   5.274   3.072
11298TIP3   OH284361   4.979   5.656   2.808
11298TIP3    H184362   5.053   5.599   2.785
11298TIP3    H284363   4.992   5.676   2.901
11299TIP3   OH284364   5.483   3.856   2.734
11299TIP3    H184365   5.427   3.910   2.678
11299TIP3    H284366   5.495   3.775   2.685
11300TIP3   OH284367   3.998   5.731   2.655
11300TIP3    H184368   3.926   5.670   2.671
11300TIP3    H284369   4.022   5.764   2.742
11301TIP3   OH284370   5.320   5.671   2.537
11301TIP3    H184371   5.308   5.765   2.523
11301TIP3    H284372   5.381   5.644   2.468
11302TIP3   OH284373   3.999   3.805   1.989
11302TIP3    H184374   3.928   3.743   2.006
11302TIP3    H284375   4.070   3.751   1.953
11303TIP3   OH284376   3.941   3.885   1.499
11303TIP3    H184377   4.026   3.928   1.492
11303TIP3    H284378   3.878   3.950   1.468
11304TIP3   OH284379   4.494   3.834   1.962
11304TIP3    H184380   4.561   3.903   1.960
11304TIP3    H284381   4.420   3.874   2.008
11305TIP3   OH284382   3.957   5.476   1.651
11305TIP3    H184383   3.901   5.482   1.574
11305TIP3    H284384   3.947   5.561   1.694
11306TIP3   OH284385   4.618   4.128   1.701
11306TIP3    H184386   4.648   4.047   1.743
11306TIP3    H284387   4.613   4.191   1.773
11307TIP3   OH284388   4.058   3.896   2.906
11307TIP3    H184389   4.000   3.833   2.948
11307TIP3    H284390   4.142   3.883   2.949
11308TIP3   OH284391   4.271   3.835   3.075
11308TIP3    H184392   4.356   3.808   3.041
11308TIP3    H284393   4.237   3.758   3.121
11309TIP3   OH284394   5.383   5.423   2.929
11309TIP3    H184395   5.319   5.442   2.862
11309TIP3    H284396   5.367   5.489   2.997
11310TIP3   OH284397   5.956   4.654   2.440
11310TIP3    H184398   5.962   4.583   2.504
11310TIP3    H284399   6.046   4.667   2.410
11311TIP3   OH284400   6.072   5.126   2.247
11311TIP3    H184401   6.041   5.037   2.227
11311TIP3    H284402   6.167   5.118   2.253
11312TIP3   OH284403   5.707   4.513   1.843
11312TIP3    H184404   5.713   4.569   1.921
11312TIP3    H284405   5.631   4.457   1.861
11313TIP3   OH284406   5.819   4.687   2.064
11313TIP3    H184407   5.848   4.602   2.097
11313TIP3    H284408   5.887   4.748   2.093
11314TIP3   OH284409   6.886   5.470   2.193
11314TIP3    H184410   6.933   5.421   2.126
11314TIP3    H284411   6.795   5.439   2.186
11315TIP3   OH284412   6.572   5.001   2.301
11315TIP3    H184413   6.627   4.986   2.224
11315TIP3    H284414   6.635   5.011   2.373
11316TIP3   OH284415   6.203   4.202   2.049
11316TIP3    H184416   6.209   4.287   2.005
11316TIP3    H284417   6.155   4.147   1.987
11317TIP3   OH284418   6.977   4.157   1.925
11317TIP3    H184419   7.018   4.131   2.008
11317TIP3    H284420   7.033   4.228   1.892
11318TIP3   OH284421   5.877   4.428   2.147
11318TIP3    H184422   5.939   4.378   2.200
11318TIP3    H284423   5.887   4.391   2.059
11319TIP3   OH284424   6.338   4.569   2.107
11319TIP3    H184425   6.414   4.514   2.126
11319TIP3    H284426   6.290   4.521   2.040
11320TIP3   OH284427   6.109   4.115   2.516
11320TIP3    H184428   6.091   4.169   2.439
11320TIP3    H284429   6.037   4.134   2.576
11321TIP3   OH284430   6.364   4.888   2.457
11321TIP3    H184431   6.313   4.958   2.498
11321TIP3    H284432   6.429   4.934   2.403
11322TIP3   OH284433   7.096   4.100   2.178
11322TIP3    H184434   7.014   4.115   2.223
11322TIP3    H284435   7.160   4.152   2.226
11323TIP3   OH284436   6.058   4.255   2.275
11323TIP3    H184437   6.111   4.319   2.323
11323TIP3    H284438   6.113   4.227   2.202
11324TIP3   OH284439   6.217   5.087   2.588
11324TIP3    H184440   6.219   5.182   2.579
11324TIP3    H284441   6.127   5.068   2.615
11325TIP3   OH284442   7.141   4.056   2.530
11325TIP3    H184443   7.074   4.116   2.563
11325TIP3    H284444   7.184   4.104   2.460
11326TIP3   OH284445   7.011   5.346   1.975
11326TIP3    H184446   7.056   5.271   1.936
11326TIP3    H284447   7.076   5.416   1.976
11327TIP3   OH284448   7.131   5.119   1.851
11327TIP3    H184449   7.070   5.074   1.793
11327TIP3    H284450   7.199   5.054   1.869
11328TIP3   OH284451   6.964   4.560   2.708
11328TIP3    H184452   7.011   4.634   2.747
11328TIP3    H284453   6.886   4.550   2.761
11329TIP3   OH284454   6.204   4.790   1.980
11329TIP3    H184455   6.181   4.769   1.890
11329TIP3    H284456   6.262   4.718   2.007
11330TIP3   OH284457   6.348   5.149   2.230
11330TIP3    H184458   6.346   5.164   2.136
11330TIP3    H284459   6.427   5.097   2.244
11331TIP3   OH284460   6.213   4.690   2.334
11331TIP3    H184461   6.261   4.660   2.257
11331TIP3    H284462   6.269   4.757   2.373
11332TIP3   OH284463   6.929   5.196   2.449
11332TIP3    H184464   6.916   5.288   2.471
11332TIP3    H284465   6.857   5.150   2.493
11333TIP3   OH284466   6.369   5.112   2.821
11333TIP3    H184467   6.304   5.168   2.862
11333TIP3    H284468   6.328   5.084   2.739
11334TIP3   OH284469   6.049   4.698   2.799
11334TIP3    H184470   6.061   4.784   2.840
11334TIP3    H284471   5.968   4.706   2.749
11335TIP3   OH284472   6.747   5.292   1.889
11335TIP3    H184473   6.835   5.317   1.917
11335TIP3    H284474   6.713   5.368   1.842
11336TIP3   OH284475   6.169   5.288   2.890
11336TIP3    H184476   6.172   5.322   2.801
11336TIP3    H284477   6.075   5.285   2.911
11337TIP3   OH284478   6.112   4.732   1.721
11337TIP3    H184479   6.059   4.800   1.680
11337TIP3    H284480   6.057   4.654   1.719
11338TIP3   OH284481   5.713   4.953   2.648
11338TIP3    H184482   5.707   4.973   2.554
11338TIP3    H284483   5.748   4.864   2.651
11339TIP3   OH284484   7.534   5.317   2.870
11339TIP3    H184485   7.503   5.227   2.861
11339TIP3    H284486   7.454   5.370   2.872
11340TIP3   OH284487   6.606   5.247   2.780
11340TIP3    H184488   6.597   5.333   2.822
11340TIP3    H284489   6.522   5.204   2.795
11341TIP3   OH284490   6.698   5.536   1.745
11341TIP3    H184491   6.705   5.554   1.651
11341TIP3    H284492   6.690   5.623   1.785
11342TIP3   OH284493   6.006   5.489   1.976
11342TIP3    H184494   6.046   5.461   2.058
11342TIP3    H284495   5.924   5.439   1.971
11343TIP3   OH284496   7.161   4.397   2.984
11343TIP3    H184497   7.156   4.380   2.890
11343TIP3    H284498   7.199   4.318   3.021
11344TIP3   OH284499   5.967   5.065   2.701
11344TIP3    H184500   5.991   5.035   2.789
11344TIP3    H284501   5.875   5.041   2.691
11345TIP3   OH284502   6.206   3.903   2.366
11345TIP3    H184503   6.139   3.904   2.298
11345TIP3    H284504   6.183   3.977   2.423
11346TIP3   OH284505   7.005   4.271   2.707
11346TIP3    H184506   6.939   4.237   2.767
11346TIP3    H284507   6.978   4.361   2.689
11347TIP3   OH284508   6.192   4.427   2.435
11347TIP3    H184509   6.136   4.438   2.512
11347TIP3    H284510   6.217   4.516   2.410
11348TIP3   OH284511   6.206   4.436   1.904
11348TIP3    H184512   6.112   4.424   1.894
11348TIP3    H284513   6.243   4.417   1.818
11349TIP3   OH284514   6.702   4.504   2.927
11349TIP3    H184515   6.650   4.424   2.933
11349TIP3    H284516   6.778   4.489   2.983
11350TIP3   OH284517   6.002   4.447   2.633
11350TIP3    H184518   5.988   4.498   2.713
11350TIP3    H284519   5.961   4.362   2.651
11351TIP3   OH284520   5.760   4.176   1.979
11351TIP3    H184521   5.757   4.143   2.069
11351TIP3    H284522   5.736   4.101   1.925
11352TIP3   OH284523   5.733   4.240   1.562
11352TIP3    H184524   5.815   4.288   1.546
11352TIP3    H284525   5.665   4.307   1.560
11353TIP3   OH284526   6.478   4.243   2.067
11353TIP3    H184527   6.386   4.218   2.074
11353TIP3    H284528   6.514   4.184   2.001
11354TIP3   OH284529   5.945   4.366   1.875
11354TIP3    H184530   5.863   4.408   1.850
11354TIP3    H284531   5.923   4.273   1.881
11355TIP3   OH284532   6.313   4.379   1.651
11355TIP3    H184533   6.393   4.431   1.661
11355TIP3    H284534   6.277   4.407   1.567
11356TIP3   OH284535   6.246   4.466   1.397
11356TIP3    H184536   6.182   4.460   1.326
11356TIP3    H284537   6.326   4.497   1.355
11357TIP3   OH284538   6.027   4.935   2.942
11357TIP3    H184539   6.092   4.941   3.012
11357TIP3    H284540   5.943   4.949   2.986
11358TIP3   OH284541   6.064   4.079   1.848
11358TIP3    H184542   6.020   3.998   1.873
11358TIP3    H284543   6.084   4.069   1.756
11359TIP3   OH284544   6.698   4.966   2.805
11359TIP3    H184545   6.718   4.925   2.889
11359TIP3    H284546   6.665   5.053   2.827
11360TIP3   OH284547   6.026   4.850   2.176
11360TIP3    H184548   6.086   4.842   2.102
11360TIP3    H284549   6.067   4.800   2.246
11361TIP3   OH284550   5.778   4.692   2.731
11361TIP3    H184551   5.777   4.678   2.826
11361TIP3    H284552   5.703   4.641   2.698
11362TIP3   OH284553   6.475   4.663   2.987
11362TIP3    H184554   6.411   4.628   2.926
11362TIP3    H284555   6.558   4.623   2.961
11363TIP3   OH284556   6.888   5.247   2.779
11363TIP3    H184557   6.794   5.239   2.765
11363TIP3    H284558   6.898   5.245   2.875
11364TIP3   OH284559   7.367   5.330   1.552
11364TIP3    H184560   7.320   5.297   1.628
11364TIP3    H284561   7.348   5.267   1.483
11365TIP3   OH284562   6.317   5.219   1.969
11365TIP3    H184563   6.314   5.309   1.936
11365TIP3    H284564   6.278   5.166   1.899
11366TIP3   OH284565   5.880   4.650   1.473
11366TIP3    H184566   5.913   4.737   1.497
11366TIP3    H284567   5.790   4.649   1.504
11367TIP3   OH284568   6.501   5.384   2.551
11367TIP3    H184569   6.560   5.456   2.528
11367TIP3    H284570   6.552   5.330   2.611
11368TIP3   OH284571   6.270   5.472   1.860
11368TIP3    H184572   6.181   5.493   1.887
11368TIP3    H284573   6.323   5.543   1.894
11369TIP3   OH284574   6.739   4.987   2.531
11369TIP3    H184575   6.721   4.993   2.625
11369TIP3    H284576   6.761   4.895   2.517
11370TIP3   OH284577   7.041   5.464   2.722
11370TIP3    H184578   6.994   5.383   2.743
11370TIP3    H284579   7.015   5.484   2.632
11371TIP3   OH284580   5.890   4.186   2.672
11371TIP3    H184581   5.805   4.225   2.654
11371TIP3    H284582   5.869   4.096   2.699
11372TIP3   OH284583   5.822   5.424   2.542
11372TIP3    H184584   5.874   5.346   2.564
11372TIP3    H284585   5.868   5.496   2.586
11373TIP3   OH284586   6.351   5.162   1.460
11373TIP3    H184587   6.443   5.146   1.483
11373TIP3    H284588   6.330   5.244   1.504
11374TIP3   OH284589   5.947   4.902   1.578
11374TIP3    H184590   5.871   4.959   1.590
11374TIP3    H284591   6.005   4.952   1.520
11375TIP3   OH284592   6.605   5.240   1.555
11375TIP3    H184593   6.535   5.291   1.597
11375TIP3    H284594   6.673   5.304   1.537
11376TIP3   OH284595   6.374   5.396   1.613
11376TIP3    H184596   6.391   5.479   1.569
11376TIP3    H284597   6.339   5.421   1.698
11377TIP3   OH284598   6.257   4.121   1.545
11377TIP3    H184599   6.270   4.201   1.596
11377TIP3    H284600   6.334   4.117   1.487
11378TIP3   OH284601   7.257   4.172   2.760
11378TIP3    H184602   7.170   4.210   2.759
11378TIP3    H284603   7.260   4.117   2.682
11379TIP3   OH284604   6.105   5.047   1.404
11379TIP3    H184605   6.188   5.086   1.430
11379TIP3    H284606   6.125   5.000   1.323
11380TIP3   OH284607   5.976   3.870   2.201
11380TIP3    H184608   5.977   3.873   2.105
11380TIP3    H284609   5.952   3.779   2.222
11381TIP3   OH284610   5.817   5.597   3.020
11381TIP3    H184611   5.888   5.577   3.081
11381TIP3    H284612   5.778   5.512   3.000
11382TIP3   OH284613   6.244   5.378   3.143
11382TIP3    H184614   6.320   5.325   3.165
11382TIP3    H284615   6.220   5.351   3.054
11383TIP3   OH284616   6.917   5.263   3.053
11383TIP3    H184617   6.895   5.185   3.104
11383TIP3    H284618   6.992   5.301   3.099
11384TIP3   OH284619   7.133   5.375   1.283
11384TIP3    H184620   7.067   5.360   1.351
11384TIP3    H284621   7.196   5.304   1.296
11385TIP3   OH284622   5.776   4.938   3.059
11385TIP3    H184623   5.778   4.843   3.052
11385TIP3    H284624   5.699   4.964   3.008
11386TIP3   OH284625   6.447   4.949   3.033
11386TIP3    H184626   6.430   4.991   2.949
11386TIP3    H284627   6.468   4.858   3.012
11387TIP3   OH284628   5.838   4.670   3.004
11387TIP3    H184629   5.931   4.667   2.982
11387TIP3    H284630   5.835   4.648   3.098
11388TIP3   OH284631   6.331   4.694   1.544
11388TIP3    H184632   6.282   4.731   1.617
11388TIP3    H284633   6.271   4.632   1.503
11389TIP3   OH284634   6.288   4.555   2.797
11389TIP3    H184635   6.207   4.606   2.793
11389TIP3    H284636   6.345   4.595   2.731
11390TIP3   OH284637   6.469   4.611   1.316
11390TIP3    H184638   6.439   4.681   1.259
11390TIP3    H284639   6.461   4.646   1.404
11391TIP3   OH284640   6.781   4.809   3.105
11391TIP3    H184641   6.869   4.783   3.132
11391TIP3    H284642   6.724   4.740   3.138
11392TIP3   OH284643   6.340   4.284   2.757
11392TIP3    H184644   6.269   4.257   2.700
11392TIP3    H284645   6.328   4.378   2.770
11393TIP3   OH284646   6.455   4.686   2.624
11393TIP3    H184647   6.550   4.696   2.618
11393TIP3    H284648   6.420   4.755   2.568
11394TIP3   OH284649   6.909   4.443   3.100
11394TIP3    H184650   6.900   4.365   3.155
11394TIP3    H284651   6.997   4.437   3.063
11395TIP3   OH284652   6.150   4.374   3.050
11395TIP3    H184653   6.078   4.316   3.028
11395TIP3    H284654   6.168   4.422   2.968
11396TIP3   OH284655   6.547   4.276   2.968
11396TIP3    H184656   6.499   4.250   3.046
11396TIP3    H284657   6.486   4.262   2.896
11397TIP3   OH284658   6.822   4.201   2.891
11397TIP3    H184659   6.730   4.202   2.920
11397TIP3    H284660   6.868   4.158   2.963
11398TIP3   OH284661   6.991   4.089   3.088
11398TIP3    H184662   6.993   3.996   3.110
11398TIP3    H284663   6.949   4.131   3.164
11399TIP3   OH284664   5.963   4.169   3.007
11399TIP3    H184665   5.962   4.092   2.950
11399TIP3    H284666   5.973   4.133   3.096
11400TIP3   OH284667   6.421   3.819   2.939
11400TIP3    H184668   6.440   3.727   2.924
11400TIP3    H284669   6.487   3.866   2.888
11401TIP3   OH284670   6.468   3.961   3.176
11401TIP3    H184671   6.460   3.913   3.093
11401TIP3    H284672   6.422   4.043   3.160
11402TIP3   OH284673   6.450   5.615   1.457
11402TIP3    H184674   6.546   5.609   1.465
11402TIP3    H284675   6.434   5.707   1.433
11403TIP3   OH284676   5.837   5.124   1.420
11403TIP3    H184677   5.930   5.113   1.405
11403TIP3    H284678   5.803   5.157   1.336
11404TIP3   OH284679   5.656   5.657   1.907
11404TIP3    H184680   5.628   5.612   1.828
11404TIP3    H284681   5.671   5.586   1.970
11405TIP3   OH284682   5.714   5.472   2.102
11405TIP3    H184683   5.651   5.432   2.161
11405TIP3    H284684   5.780   5.511   2.159
11406TIP3   OH284685   7.300   5.058   3.210
11406TIP3    H184686   7.220   5.073   3.260
11406TIP3    H284687   7.347   5.141   3.214
11407TIP3   OH284688   7.263   4.593   1.937
11407TIP3    H184689   7.251   4.502   1.910
11407TIP3    H284690   7.213   4.600   2.018
11408TIP3   OH284691   5.705   4.701   2.340
11408TIP3    H184692   5.713   4.726   2.248
11408TIP3    H284693   5.795   4.693   2.371
11409TIP3   OH284694   7.227   4.114   1.208
11409TIP3    H184695   7.303   4.060   1.186
11409TIP3    H284696   7.188   4.071   1.284
11410TIP3   OH284697   7.209   4.339   1.820
11410TIP3    H184698   7.232   4.246   1.820
11410TIP3    H284699   7.225   4.368   1.730
11411TIP3   OH284700   7.263   4.246   2.366
11411TIP3    H184701   7.357   4.263   2.357
11411TIP3    H284702   7.230   4.319   2.418
11412TIP3   OH284703   7.196   4.464   2.525
11412TIP3    H184704   7.121   4.477   2.583
11412TIP3    H284705   7.215   4.551   2.491
11413TIP3   OH284706   5.740   4.313   2.946
11413TIP3    H184707   5.824   4.270   2.957
11413TIP3    H284708   5.676   4.243   2.955
11414TIP3   OH284709   7.515   3.893   3.088
11414TIP3    H184710   7.580   3.824   3.073
11414TIP3    H284711   7.524   3.951   3.013
11415TIP3   OH284712   7.253   4.068   1.793
11415TIP3    H184713   7.278   4.016   1.869
11415TIP3    H284714   7.174   4.024   1.759
11416TIP3   OH284715   5.822   4.100   2.248
11416TIP3    H184716   5.866   4.015   2.239
11416TIP3    H284717   5.894   4.162   2.262
11417TIP3   OH284718   5.643   4.427   2.307
11417TIP3    H184719   5.714   4.408   2.245
11417TIP3    H284720   5.653   4.520   2.327
11418TIP3   OH284721   7.481   4.033   2.850
11418TIP3    H184722   7.413   4.100   2.843
11418TIP3    H284723   7.440   3.955   2.812
11419TIP3   OH284724   5.705   4.024   1.731
11419TIP3    H184725   5.612   4.028   1.751
11419TIP3    H284726   5.722   4.104   1.681
11420TIP3   OH284727   7.203   5.543   2.005
11420TIP3    H184728   7.260   5.601   1.954
11420TIP3    H284729   7.232   5.555   2.096
11421TIP3   OH284730   5.716   3.950   2.607
11421TIP3    H184731   5.639   3.928   2.659
11421TIP3    H284732   5.683   4.006   2.537
11422TIP3   OH284733   5.903   5.283   2.970
11422TIP3    H184734   5.815   5.291   2.935
11422TIP3    H284735   5.890   5.250   3.059
11423TIP3   OH284736   6.235   5.365   2.625
11423TIP3    H184737   6.205   5.454   2.603
11423TIP3    H284738   6.329   5.366   2.606
11424TIP3   OH284739   6.608   5.500   2.900
11424TIP3    H184740   6.617   5.462   2.987
11424TIP3    H284741   6.692   5.544   2.885
11425TIP3   OH284742   6.855   5.624   2.872
11425TIP3    H184743   6.922   5.575   2.825
11425TIP3    H284744   6.896   5.647   2.956
11426TIP3   OH284745   7.366   3.804   2.738
11426TIP3    H184746   7.287   3.805   2.685
11426TIP3    H284747   7.403   3.717   2.725
11427TIP3   OH284748   5.922   5.662   2.645
11427TIP3    H184749   5.844   5.704   2.609
11427TIP3    H284750   5.936   5.705   2.729
11428TIP3   OH284751   6.183   5.628   2.564
11428TIP3    H184752   6.092   5.643   2.590
11428TIP3    H284753   6.192   5.675   2.481
11429TIP3   OH284754   6.655   5.598   2.463
11429TIP3    H184755   6.600   5.637   2.395
11429TIP3    H284756   6.671   5.669   2.525
11430TIP3   OH284757   6.909   5.480   2.474
11430TIP3    H184758   6.823   5.522   2.482
11430TIP3    H284759   6.928   5.483   2.380
11431TIP3   OH284760   5.889   5.555   2.297
11431TIP3    H184761   5.853   5.518   2.377
11431TIP3    H284762   5.965   5.502   2.278
11432TIP3   OH284763   6.097   5.399   2.219
11432TIP3    H184764   6.083   5.304   2.229
11432TIP3    H284765   6.187   5.413   2.250
11433TIP3   OH284766   6.363   5.412   2.310
11433TIP3    H184767   6.363   5.323   2.276
11433TIP3    H284768   6.404   5.405   2.397
11434TIP3   OH284769   7.197   3.844   2.129
11434TIP3    H184770   7.279   3.879   2.093
11434TIP3    H284771   7.145   3.922   2.149
11435TIP3   OH284772   7.415   3.960   2.007
11435TIP3    H184773   7.463   3.887   1.969
11435TIP3    H284774   7.481   4.030   2.016
11436TIP3   OH284775   5.960   3.836   1.926
11436TIP3    H184776   5.866   3.823   1.912
11436TIP3    H284777   5.998   3.749   1.917
11437TIP3   OH284778   5.834   3.848   1.552
11437TIP3    H184779   5.898   3.908   1.514
11437TIP3    H284780   5.789   3.900   1.619
11438TIP3   OH284781   6.032   4.002   1.439
11438TIP3    H184782   6.058   4.000   1.346
11438TIP3    H284783   6.106   4.043   1.483
11439TIP3   OH284784   6.726   5.567   1.462
11439TIP3    H184785   6.808   5.614   1.449
11439TIP3    H284786   6.720   5.507   1.388
11440TIP3   OH284787   5.943   3.910   2.889
11440TIP3    H184788   5.872   3.861   2.932
11440TIP3    H284789   6.021   3.890   2.941
11441TIP3   OH284790   6.161   3.856   3.049
11441TIP3    H184791   6.249   3.846   3.011
11441TIP3    H284792   6.141   3.770   3.086
11442TIP3   OH284793   5.931   5.523   1.244
11442TIP3    H184794   5.849   5.557   1.281
11442TIP3    H284795   5.973   5.476   1.316
11443TIP3   OH284796   7.031   3.827   3.149
11443TIP3    H184797   7.020   3.762   3.218
11443TIP3    H284798   7.112   3.801   3.105
11444TIP3   OH284799   7.283   5.441   2.871
11444TIP3    H184800   7.207   5.453   2.815
11444TIP3    H284801   7.251   5.458   2.960
11445TIP3   OH284802   7.969   5.126   2.277
11445TIP3    H184803   7.953   5.039   2.240
11445TIP3    H284804   7.986   5.110   2.370
11446TIP3   OH284805   7.608   4.489   1.789
11446TIP3    H184806   7.644   4.538   1.863
11446TIP3    H284807   7.541   4.547   1.752
11447TIP3   OH284808   7.722   4.637   2.004
11447TIP3    H184809   7.725   4.584   2.084
11447TIP3    H284810   7.802   4.688   2.006
11448TIP3   OH284811   8.058   5.115   2.537
11448TIP3    H184812   8.094   5.200   2.560
11448TIP3    H284813   7.983   5.104   2.596
11449TIP3   OH284814   7.684   5.064   1.676
11449TIP3    H184815   7.671   5.100   1.588
11449TIP3    H284816   7.705   5.139   1.730
11450TIP3   OH284817   8.038   4.750   1.975
11450TIP3    H184818   8.031   4.703   1.891
11450TIP3    H284819   8.131   4.742   1.999
11451TIP3   OH284820   7.970   4.735   2.787
11451TIP3    H184821   7.947   4.816   2.832
11451TIP3    H284822   7.892   4.712   2.737
11452TIP3   OH284823   8.066   5.305   2.901
11452TIP3    H184824   8.037   5.248   2.830
11452TIP3    H284825   7.985   5.327   2.948
11453TIP3   OH284826   7.673   4.913   2.607
11453TIP3    H184827   7.641   4.907   2.517
11453TIP3    H284828   7.677   4.822   2.637
11454TIP3   OH284829   7.949   5.473   1.904
11454TIP3    H184830   7.956   5.437   1.992
11454TIP3    H284831   7.894   5.410   1.856
11455TIP3   OH284832   7.856   5.091   2.714
11455TIP3    H184833   7.866   5.051   2.800
11455TIP3    H284834   7.785   5.042   2.672
11456TIP3   OH284835   7.984   4.491   2.461
11456TIP3    H184836   8.028   4.575   2.474
11456TIP3    H284837   8.018   4.459   2.378
11457TIP3   OH284838   7.637   4.129   1.962
11457TIP3    H184839   7.713   4.184   1.944
11457TIP3    H284840   7.599   4.111   1.876
11458TIP3   OH284841   7.879   4.946   2.944
11458TIP3    H184842   7.936   4.942   3.021
11458TIP3    H284843   7.791   4.953   2.980
11459TIP3   OH284844   7.948   4.860   2.210
11459TIP3    H184845   7.967   4.828   2.122
11459TIP3    H284846   8.011   4.815   2.266
11460TIP3   OH284847   7.697   4.658   2.730
11460TIP3    H184848   7.692   4.662   2.826
11460TIP3    H284849   7.693   4.564   2.710
11461TIP3   OH284850   7.761   4.743   1.351
11461TIP3    H184851   7.807   4.794   1.418
11461TIP3    H284852   7.697   4.691   1.399
11462TIP3   OH284853   7.871   4.906   1.541
11462TIP3    H184854   7.808   4.936   1.607
11462TIP3    H284855   7.929   4.981   1.527
11463TIP3   OH284856   7.981   5.170   1.475
11463TIP3    H184857   7.994   5.220   1.556
11463TIP3    H284858   8.047   5.204   1.415
11464TIP3   OH284859   7.742   5.316   1.794
11464TIP3    H184860   7.702   5.336   1.879
11464TIP3    H284861   7.694   5.370   1.732
11465TIP3   OH284862   7.678   5.618   2.985
11465TIP3    H184863   7.735   5.587   3.055
11465TIP3    H284864   7.644   5.537   2.945
11466TIP3   OH284865   7.637   4.926   3.081
11466TIP3    H184866   7.656   4.834   3.061
11466TIP3    H284867   7.543   4.928   3.100
11467TIP3   OH284868   7.736   4.669   3.009
11467TIP3    H184869   7.829   4.667   2.988
11467TIP3    H284870   7.731   4.649   3.102
11468TIP3   OH284871   7.709   5.147   1.412
11468TIP3    H184872   7.802   5.154   1.432
11468TIP3    H284873   7.705   5.148   1.317
11469TIP3   OH284874   7.671   5.389   2.053
11469TIP3    H184875   7.609   5.358   2.118
11469TIP3    H284876   7.755   5.389   2.098
11470TIP3   OH284877   7.515   4.102   1.715
11470TIP3    H184878   7.422   4.090   1.735
11470TIP3    H284879   7.518   4.187   1.671
11471TIP3   OH284880   7.599   3.864   2.560
11471TIP3    H184881   7.538   3.871   2.633
11471TIP3    H284882   7.551   3.816   2.492
11472TIP3   OH284883   7.792   5.309   2.993
11472TIP3    H184884   7.715   5.311   2.936
11472TIP3    H284885   7.761   5.267   3.073
11473TIP3   OH284886   0.005   5.373   2.586
11473TIP3    H184887   8.117   5.454   2.546
11473TIP3    H284888   0.021   5.396   2.678
11474TIP3   OH284889   7.851   5.668   2.610
11474TIP3    H184890   7.762   5.647   2.581
11474TIP3    H284891   7.840   5.716   2.692
11475TIP3   OH284892   8.067   5.602   2.458
11475TIP3    H184893   7.992   5.624   2.513
11475TIP3    H284894   8.097   5.686   2.423
11476TIP3   OH284895   7.921   5.377   2.171
11476TIP3    H184896   7.926   5.285   2.197
11476TIP3    H284897   7.985   5.421   2.228
11477TIP3   OH284898   7.607   3.912   1.539
11477TIP3    H184899   7.636   3.981   1.480
11477TIP3    H284900   7.576   3.958   1.617
11478TIP3   OH284901   7.600   5.466   1.612
11478TIP3    H184902   7.521   5.416   1.590
11478TIP3    H284903   7.609   5.530   1.541
11479TIP3   OH284904   7.848   3.856   2.865
11479TIP3    H184905   7.782   3.810   2.917
11479TIP3    H284906   7.912   3.887   2.929
11480TIP3   OH284907   8.015   3.838   3.091
11480TIP3    H184908   8.101   3.809   3.060
11480TIP3    H284909   7.981   3.762   3.139
11481TIP3   OH284910   7.825   5.573   1.230
11481TIP3    H184911   7.755   5.630   1.263
11481TIP3    H284912   7.886   5.564   1.304
11482TIP3   OH284913   1.163   6.707   1.888
11482TIP3    H184914   1.157   6.797   1.856
11482TIP3    H284915   1.116   6.655   1.823
11483TIP3   OH284916   1.460   6.902   2.134
11483TIP3    H184917   1.435   6.823   2.183
11483TIP3    H284918   1.472   6.969   2.201
11484TIP3   OH284919   0.088   6.370   1.658
11484TIP3    H184920   0.153   6.439   1.676
11484TIP3    H284921   0.039   6.361   1.740
11485TIP3   OH284922   1.217   7.411   2.152
11485TIP3    H184923   1.245   7.347   2.087
11485TIP3    H284924   1.175   7.358   2.220
11486TIP3   OH284925   0.949   6.892   2.300
11486TIP3    H184926   1.017   6.876   2.234
11486TIP3    H284927   0.997   6.902   2.382
11487TIP3   OH284928   1.791   5.996   2.418
11487TIP3    H184929   1.804   6.077   2.469
11487TIP3    H284930   1.842   6.010   2.338
11488TIP3   OH284931   0.523   6.157   2.087
11488TIP3    H184932   0.498   6.242   2.050
11488TIP3    H284933   0.491   6.093   2.023
11489TIP3   OH284934   1.281   6.054   1.933
11489TIP3    H184935   1.344   6.036   2.003
11489TIP3    H284936   1.335   6.061   1.854
11490TIP3   OH284937   1.818   6.171   2.642
11490TIP3    H184938   1.768   6.248   2.615
11490TIP3    H284939   1.757   6.120   2.696
11491TIP3   OH284940   1.169   6.958   1.771
11491TIP3    H184941   1.156   6.954   1.677
11491TIP3    H284942   1.126   7.039   1.798
11492TIP3   OH284943   1.444   6.085   2.158
11492TIP3    H184944   1.401   6.028   2.222
11492TIP3    H284945   1.509   6.134   2.208
11493TIP3   OH284946   0.460   6.081   2.351
11493TIP3    H184947   0.425   6.157   2.396
11493TIP3    H284948   0.487   6.114   2.265
11494TIP3   OH284949   1.478   7.126   2.308
11494TIP3    H184950   1.388   7.122   2.338
11494TIP3    H284951   1.484   7.207   2.258
11495TIP3   OH284952   1.548   5.892   2.511
11495TIP3    H184953   1.469   5.897   2.456
11495TIP3    H284954   1.618   5.926   2.455
11496TIP3   OH284955   0.784   5.713   2.189
11496TIP3    H184956   0.790   5.629   2.233
11496TIP3    H284957   0.702   5.752   2.221
11497TIP3   OH284958   1.332   7.263   1.944
11497TIP3    H184959   1.366   7.175   1.926
11497TIP3    H284960   1.410   7.315   1.965
11498TIP3   OH284961   1.426   7.013   1.883
11498TIP3    H184962   1.349   6.969   1.848
11498TIP3    H284963   1.446   6.965   1.964
11499TIP3   OH284964   1.602   6.895   2.709
11499TIP3    H184965   1.598   6.832   2.638
11499TIP3    H284966   1.604   6.980   2.666
11500TIP3   OH284967   1.077   6.574   1.650
11500TIP3    H184968   1.026   6.585   1.569
11500TIP3    H284969   1.167   6.562   1.620
11501TIP3   OH284970   1.793   6.562   2.536
11501TIP3    H184971   1.719   6.623   2.529
11501TIP3    H284972   1.848   6.582   2.460
11502TIP3   OH284973   1.423   6.673   1.799
11502TIP3    H184974   1.343   6.680   1.850
11502TIP3    H284975   1.478   6.614   1.850
11503TIP3   OH284976   1.396   6.436   2.741
11503TIP3    H184977   1.399   6.508   2.804
11503TIP3    H284978   1.304   6.434   2.711
11504TIP3   OH284979   0.724   7.047   2.207
11504TIP3    H184980   0.693   7.011   2.123
11504TIP3    H284981   0.795   6.989   2.233
11505TIP3   OH284982   1.226   7.130   2.408
11505TIP3    H184983   1.224   7.209   2.462
11505TIP3    H284984   1.183   7.064   2.460
11506TIP3   OH284985   0.670   7.023   2.807
11506TIP3    H184986   0.611   7.079   2.857
11506TIP3    H284987   0.617   6.991   2.734
11507TIP3   OH284988   1.339   6.543   1.571
11507TIP3    H184989   1.378   6.590   1.645
11507TIP3    H284990   1.389   6.573   1.495
11508TIP3   OH284991   0.335   6.640   2.695
11508TIP3    H184992   0.367   6.692   2.768
11508TIP3    H284993   0.244   6.668   2.683
11509TIP3   OH284994   1.076   7.214   1.832
11509TIP3    H184995   1.156   7.225   1.883
11509TIP3    H284996   1.042   7.303   1.819
11510TIP3   OH284997   0.469   7.191   2.903
11510TIP3    H184998   0.471   7.227   2.814
11510TIP3    H284999   0.376   7.190   2.926
11511TIP3   OH285000   0.085   6.787   2.612
11511TIP3    H185001   0.010   6.841   2.585
11511TIP3    H285002   0.046   6.720   2.669
11512TIP3   OH285003   0.061   7.159   2.318
11512TIP3    H185004   0.016   7.075   2.326
11512TIP3    H285005   0.118   7.163   2.395
11513TIP3   OH285006   1.829   7.172   2.883
11513TIP3    H185007   1.833   7.079   2.903
11513TIP3    H285008   1.747   7.202   2.922
11514TIP3   OH285009   0.927   7.124   2.779
11514TIP3    H185010   0.931   7.206   2.828
11514TIP3    H285011   0.839   7.091   2.794
11515TIP3   OH285012   1.023   7.470   1.747
11515TIP3    H185013   1.004   7.479   1.653
11515TIP3    H285014   0.998   7.554   1.784
11516TIP3   OH285015   0.405   7.323   1.954
11516TIP3    H185016   0.444   7.298   2.038
11516TIP3    H285017   0.311   7.309   1.966
11517TIP3   OH285018   1.280   7.423   1.436
11517TIP3    H185019   1.343   7.365   1.393
11517TIP3    H285020   1.299   7.415   1.529
11518TIP3   OH285021   1.295   7.431   1.711
11518TIP3    H185022   1.202   7.443   1.732
11518TIP3    H285023   1.327   7.372   1.779
11519TIP3   OH285024   1.572   6.300   2.932
11519TIP3    H185025   1.506   6.326   2.868
11519TIP3    H285026   1.563   6.205   2.939
11520TIP3   OH285027   0.276   6.989   2.703
11520TIP3    H185028   0.322   6.940   2.771
11520TIP3    H285029   0.231   6.922   2.651
11521TIP3   OH285030   1.079   5.774   2.726
11521TIP3    H185031   1.136   5.718   2.779
11521TIP3    H285032   1.029   5.713   2.673
11522TIP3   OH285033   1.343   6.150   2.760
11522TIP3    H185034   1.276   6.133   2.826
11522TIP3    H285035   1.328   6.240   2.732
11523TIP3   OH285036   0.932   6.031   1.336
11523TIP3    H185037   0.901   5.988   1.417
11523TIP3    H285038   1.013   6.074   1.362
11524TIP3   OH285039   1.095   6.335   1.802
11524TIP3    H185040   1.074   6.418   1.759
11524TIP3    H285041   1.170   6.302   1.753
11525TIP3   OH285042   1.027   6.409   2.993
11525TIP3    H185043   0.970   6.332   2.996
11525TIP3    H285044   1.110   6.379   3.027
11526TIP3   OH285045   1.234   6.310   2.044
11526TIP3    H185046   1.175   6.333   1.972
11526TIP3    H285047   1.252   6.217   2.033
11527TIP3   OH285048   0.353   6.289   2.502
11527TIP3    H185049   0.360   6.378   2.537
11527TIP3    H285050   0.310   6.240   2.571
11528TIP3   OH285051   0.122   6.110   2.000
11528TIP3    H185052   0.156   6.081   2.084
11528TIP3    H285053   0.122   6.031   1.945
11529TIP3   OH285054   0.193   6.115   1.611
11529TIP3    H185055   0.288   6.121   1.614
11529TIP3    H285056   0.163   6.204   1.627
11530TIP3   OH285057   0.802   6.122   2.066
11530TIP3    H185058   0.708   6.125   2.083
11530TIP3    H285059   0.842   6.161   2.144
11531TIP3   OH285060   0.336   6.243   1.838
11531TIP3    H185061   0.256   6.237   1.890
11531TIP3    H285062   0.376   6.157   1.845
11532TIP3   OH285063   1.308   5.932   2.350
11532TIP3    H185064   1.260   5.959   2.428
11532TIP3    H285065   1.243   5.886   2.297
11533TIP3   OH285066   1.596   7.553   3.008
11533TIP3    H185067   1.609   7.601   2.926
11533TIP3    H285068   1.675   7.570   3.059
11534TIP3   OH285069   0.379   6.822   2.907
11534TIP3    H185070   0.449   6.811   2.972
11534TIP3    H285071   0.301   6.840   2.958
11535TIP3   OH285072   0.431   5.988   1.884
11535TIP3    H185073   0.374   5.911   1.888
11535TIP3    H285074   0.510   5.957   1.840
11536TIP3   OH285075   0.872   6.816   1.581
11536TIP3    H185076   0.861   6.741   1.522
11536TIP3    H285077   0.858   6.779   1.669
11537TIP3   OH285078   1.589   6.740   2.483
11537TIP3    H185079   1.650   6.795   2.434
11537TIP3    H285080   1.520   6.718   2.420
11538TIP3   OH285081   1.160   6.153   1.434
11538TIP3    H185082   1.221   6.185   1.367
11538TIP3    H285083   1.206   6.168   1.517
11539TIP3   OH285084   1.011   6.844   2.788
11539TIP3    H185085   1.049   6.804   2.866
11539TIP3    H285086   0.984   6.931   2.817
11540TIP3   OH285087   1.323   6.275   1.652
11540TIP3    H185088   1.409   6.258   1.691
11540TIP3    H285089   1.332   6.361   1.611
11541TIP3   OH285090   1.087   6.971   1.495
11541TIP3    H185091   1.045   7.057   1.504
11541TIP3    H285092   1.018   6.908   1.519
11542TIP3   OH285093   0.021   6.585   2.785
11542TIP3    H185094   0.070   6.561   2.863
11542TIP3    H285095   0.019   6.506   2.732
11543TIP3   OH285096   1.208   7.111   2.766
11543TIP3    H185097   1.114   7.111   2.750
11543TIP3    H285098   1.217   7.125   2.860
11544TIP3   OH285099   1.786   6.319   1.559
11544TIP3    H185100   1.736   6.279   1.488
11544TIP3    H285101   1.806   6.407   1.528
11545TIP3   OH285102   1.824   6.879   2.866
11545TIP3    H185103   1.738   6.895   2.827
11545TIP3    H285104   1.884   6.879   2.791
11546TIP3   OH285105   1.587   7.119   1.679
11546TIP3    H185106   1.541   7.089   1.758
11546TIP3    H285107   1.570   7.050   1.614
11547TIP3   OH285108   1.395   6.673   2.293
11547TIP3    H185109   1.310   6.649   2.330
11547TIP3    H285110   1.423   6.596   2.244
11548TIP3   OH285111   0.824   7.266   2.558
11548TIP3    H185112   0.886   7.336   2.539
11548TIP3    H285113   0.870   7.211   2.622
11549TIP3   OH285114   0.622   7.389   1.789
11549TIP3    H185115   0.544   7.359   1.835
11549TIP3    H285116   0.668   7.443   1.853
11550TIP3   OH285117   1.119   6.895   2.535
11550TIP3    H185118   1.072   6.883   2.617
11550TIP3    H285119   1.205   6.857   2.551
11551TIP3   OH285120   1.376   6.992   1.396
11551TIP3    H185121   1.424   6.937   1.458
11551TIP3    H285122   1.286   6.989   1.426
11552TIP3   OH285123   1.397   7.307   2.724
11552TIP3    H185124   1.342   7.231   2.738
11552TIP3    H285125   1.360   7.348   2.645
11553TIP3   OH285126   0.239   6.156   2.713
11553TIP3    H185127   0.159   6.168   2.765
11553TIP3    H285128   0.283   6.081   2.753
11554TIP3   OH285129   1.510   6.844   1.596
11554TIP3    H185130   1.468   6.801   1.670
11554TIP3    H285131   1.602   6.815   1.600
11555TIP3   OH285132   0.283   7.215   2.551
11555TIP3    H185133   0.275   7.130   2.595
11555TIP3    H285134   0.371   7.246   2.574
11556TIP3   OH285135   1.177   5.995   2.584
11556TIP3    H185136   1.237   6.038   2.645
11556TIP3    H285137   1.139   5.923   2.634
11557TIP3   OH285138   0.945   7.200   1.569
11557TIP3    H185139   0.855   7.234   1.566
11557TIP3    H285140   0.967   7.198   1.662
11558TIP3   OH285141   0.916   6.119   1.816
11558TIP3    H185142   0.983   6.187   1.819
11558TIP3    H285143   0.880   6.116   1.904
11559TIP3   OH285144   1.125   6.342   2.725
11559TIP3    H185145   1.067   6.402   2.772
11559TIP3    H285146   1.105   6.256   2.762
11560TIP3   OH285147   0.708   7.364   1.528
11560TIP3    H185148   0.720   7.457   1.510
11560TIP3    H285149   0.670   7.362   1.616
11561TIP3   OH285150   1.590   6.045   2.736
11561TIP3    H185151   1.505   6.084   2.754
11561TIP3    H285152   1.577   5.994   2.656
11562TIP3   OH285153   1.445   6.431   2.172
11562TIP3    H185154   1.368   6.386   2.138
11562TIP3    H285155   1.492   6.364   2.222
11563TIP3   OH285156   0.152   7.483   3.046
11563TIP3    H185157   0.212   7.473   3.120
11563TIP3    H285158   0.148   7.396   3.006
11564TIP3   OH285159   0.564   7.279   3.149
11564TIP3    H185160   0.642   7.225   3.166
11564TIP3    H285161   0.534   7.251   3.063
11565TIP3   OH285162   1.223   7.146   3.033
11565TIP3    H185163   1.199   7.063   3.074
11565TIP3    H285164   1.297   7.178   3.084
11566TIP3   OH285165   1.458   7.258   1.316
11566TIP3    H185166   1.441   7.166   1.336
11566TIP3    H285167   1.553   7.267   1.322
11567TIP3   OH285168   0.132   6.824   3.033
11567TIP3    H185169   0.142   6.730   3.017
11567TIP3    H285170   0.071   6.854   2.966
11568TIP3   OH285171   0.748   6.815   2.974
11568TIP3    H185172   0.733   6.882   2.908
11568TIP3    H285173   0.745   6.732   2.926
11569TIP3   OH285174   1.335   6.859   2.756
11569TIP3    H185175   1.428   6.880   2.746
11569TIP3    H285176   1.291   6.944   2.761
11570TIP3   OH285177   0.183   6.555   3.009
11570TIP3    H185178   0.271   6.524   2.987
11570TIP3    H285179   0.178   6.545   3.104
11571TIP3   OH285180   1.116   6.685   3.001
11571TIP3    H185181   1.208   6.663   2.986
11571TIP3    H285182   1.070   6.601   3.001
11572TIP3   OH285183   0.644   6.051   2.602
11572TIP3    H185184   0.723   6.018   2.560
11572TIP3    H285185   0.579   6.054   2.532
11573TIP3   OH285186   1.251   6.337   3.131
11573TIP3    H185187   1.258   6.252   3.173
11573TIP3    H285188   1.336   6.378   3.144
11574TIP3   OH285189   1.400   6.650   2.925
11574TIP3    H185190   1.373   6.724   2.870
11574TIP3    H285191   1.495   6.655   2.927
11575TIP3   OH285192   0.871   6.172   3.004
11575TIP3    H185193   0.813   6.143   3.075
11575TIP3    H285194   0.826   6.146   2.924
11576TIP3   OH285195   1.135   6.107   2.927
11576TIP3    H185196   1.051   6.112   2.972
11576TIP3    H285197   1.191   6.053   2.983
11577TIP3   OH285198   1.330   5.973   3.084
11577TIP3    H185199   1.325   5.878   3.093
11577TIP3    H285200   1.297   6.007   3.167
11578TIP3   OH285201   0.312   6.013   3.034
11578TIP3    H185202   0.347   5.931   2.999
11578TIP3    H285203   0.312   6.001   3.129
11579TIP3   OH285204   0.811   5.846   3.173
11579TIP3    H185205   0.849   5.808   3.094
11579TIP3    H285206   0.749   5.911   3.141
11580TIP3   OH285207   0.803   7.610   1.413
11580TIP3    H185208   0.879   7.556   1.435
11580TIP3    H285209   0.796   7.602   1.317
11581TIP3   OH285210   0.133   6.962   1.429
11581TIP3    H185211   0.180   7.042   1.453
11581TIP3    H285212   0.199   6.893   1.432
11582TIP3   OH285213   0.064   7.535   1.918
11582TIP3    H185214   8.112   7.533   1.916
11582TIP3    H285215   0.088   7.456   1.968
11583TIP3   OH285216   0.149   7.318   2.075
11583TIP3    H185217   0.086   7.247   2.091
11583TIP3    H285218   0.177   7.346   2.162
11584TIP3   OH285219   1.624   6.946   3.221
11584TIP3    H185220   1.549   6.963   3.277
11584TIP3    H285221   1.680   7.023   3.232
11585TIP3   OH285222   1.772   6.766   1.656
11585TIP3    H185223   1.809   6.846   1.693
11585TIP3    H285224   1.782   6.701   1.726
11586TIP3   OH285225   1.811   6.598   1.873
11586TIP3    H185226   1.728   6.560   1.901
11586TIP3    H285227   1.866   6.596   1.951
11587TIP3   OH285228   1.812   6.863   2.378
11587TIP3    H185229   1.865   6.789   2.350
11587TIP3    H285230   1.802   6.917   2.299
11588TIP3   OH285231   1.579   7.126   2.571
11588TIP3    H185232   1.548   7.207   2.611
11588TIP3    H285233   1.551   7.131   2.480
11589TIP3   OH285234   1.846   6.573   1.460
11589TIP3    H185235   1.842   6.600   1.368
11589TIP3    H285236   1.812   6.648   1.509
11590TIP3   OH285237   1.570   6.477   1.930
11590TIP3    H185238   1.565   6.393   1.885
11590TIP3    H285239   1.531   6.461   2.016
11591TIP3   OH285240   1.680   6.645   2.936
11591TIP3    H185241   1.732   6.567   2.916
11591TIP3    H285242   1.734   6.718   2.907
11592TIP3   OH285243   1.820   6.410   2.892
11592TIP3    H185244   1.736   6.365   2.901
11592TIP3    H285245   1.885   6.345   2.920
11593TIP3   OH285246   1.587   6.245   1.768
11593TIP3    H185247   1.619   6.172   1.821
11593TIP3    H285248   1.658   6.262   1.706
11594TIP3   OH285249   1.604   6.254   2.318
11594TIP3    H185250   1.699   6.257   2.305
11594TIP3    H285251   1.592   6.276   2.410
11595TIP3   OH285252   1.617   6.354   2.579
11595TIP3    H185253   1.542   6.383   2.632
11595TIP3    H285254   1.673   6.431   2.574
11596TIP3   OH285255   0.068   6.115   2.949
11596TIP3    H185256   0.154   6.089   2.981
11596TIP3    H285257   0.016   6.034   2.951
11597TIP3   OH285258   1.867   5.763   3.093
11597TIP3    H185259   1.931   5.695   3.074
11597TIP3    H285260   1.876   5.825   3.020
11598TIP3   OH285261   0.162   6.039   2.269
11598TIP3    H185262   0.103   5.971   2.301
11598TIP3    H285263   0.245   6.022   2.314
11599TIP3   OH285264   0.036   6.284   2.365
11599TIP3    H185265   0.077   6.202   2.338
11599TIP3    H285266   0.096   6.352   2.335
11600TIP3   OH285267   1.798   5.976   2.918
11600TIP3    H185268   1.736   6.001   2.987
11600TIP3    H285269   1.743   5.957   2.842
11601TIP3   OH285270   1.807   5.914   1.416
11601TIP3    H185271   1.807   5.924   1.321
11601TIP3    H285272   1.872   5.977   1.446
11602TIP3   OH285273   0.025   5.953   1.760
11602TIP3    H185274   0.011   5.884   1.696
11602TIP3    H285275   0.085   6.014   1.716
11603TIP3   OH285276   1.558   7.410   1.979
11603TIP3    H185277   1.599   7.395   1.894
11603TIP3    H285278   1.592   7.496   2.007
11604TIP3   OH285279   0.204   7.198   3.008
11604TIP3    H185280   0.116   7.188   2.974
11604TIP3    H285281   0.202   7.155   3.093
11605TIP3   OH285282   0.546   7.269   2.636
11605TIP3    H185283   0.545   7.363   2.616
11605TIP3    H285284   0.636   7.241   2.617
11606TIP3   OH285285   0.964   7.365   2.908
11606TIP3    H185286   0.973   7.332   2.998
11606TIP3    H285287   1.047   7.407   2.889
11607TIP3   OH285288   1.208   7.486   2.867
11607TIP3    H185289   1.281   7.436   2.830
11607TIP3    H285290   1.243   7.520   2.949
11608TIP3   OH285291   1.652   5.749   2.730
11608TIP3    H185292   1.604   5.797   2.662
11608TIP3    H285293   1.602   5.669   2.743
11609TIP3   OH285294   0.306   7.569   2.675
11609TIP3    H185295   0.224   7.521   2.686
11609TIP3    H285296   0.316   7.617   2.757
11610TIP3   OH285297   0.553   7.530   2.564
11610TIP3    H185298   0.465   7.551   2.597
11610TIP3    H285299   0.567   7.591   2.492
11611TIP3   OH285300   0.992   7.472   2.464
11611TIP3    H185301   0.946   7.515   2.392
11611TIP3    H285302   1.004   7.540   2.530
11612TIP3   OH285303   1.257   7.397   2.501
11612TIP3    H185304   1.164   7.421   2.494
11612TIP3    H285305   1.304   7.471   2.463
11613TIP3   OH285306   0.277   7.384   2.324
11613TIP3    H185307   0.263   7.343   2.410
11613TIP3    H285308   0.347   7.333   2.284
11614TIP3   OH285309   0.483   7.244   2.205
11614TIP3    H185310   0.500   7.150   2.202
11614TIP3    H285311   0.562   7.282   2.242
11615TIP3   OH285312   0.732   7.305   2.303
11615TIP3    H185313   0.744   7.218   2.263
11615TIP3    H285314   0.755   7.292   2.395
11616TIP3   OH285315   1.074   5.839   2.200
11616TIP3    H185316   0.984   5.806   2.200
11616TIP3    H285317   1.080   5.894   2.121
11617TIP3   OH285318   1.718   5.800   1.941
11617TIP3    H185319   1.791   5.750   1.904
11617TIP3    H285320   1.758   5.882   1.971
11618TIP3   OH285321   0.282   5.755   1.882
11618TIP3    H185322   0.199   5.710   1.867
11618TIP3    H285323   0.348   5.687   1.874
11619TIP3   OH285324   0.742   5.740   1.914
11619TIP3    H185325   0.784   5.825   1.901
11619TIP3    H285326   0.756   5.720   2.006
11620TIP3   OH285327   0.061   7.321   1.561
11620TIP3    H185328   0.135   7.321   1.500
11620TIP3    H285329   0.090   7.377   1.633
11621TIP3   OH285330   0.886   5.950   1.600
11621TIP3    H185331   0.957   5.890   1.622
11621TIP3    H285332   0.886   6.015   1.670
11622TIP3   OH285333   1.013   7.450   1.467
11622TIP3    H185334   1.105   7.453   1.440
11622TIP3    H285335   0.995   7.357   1.480
11623TIP3   OH285336   1.659   7.383   1.727
11623TIP3    H185337   1.643   7.293   1.697
11623TIP3    H285338   1.688   7.429   1.648
11624TIP3   OH285339   0.439   5.753   3.065
11624TIP3    H185340   0.511   5.700   3.032
11624TIP3    H285341   0.368   5.690   3.080
11625TIP3   OH285342   0.294   7.362   1.423
11625TIP3    H185343   0.294   7.441   1.477
11625TIP3    H285344   0.369   7.373   1.364
11626TIP3   OH285345   1.342   5.697   3.108
11626TIP3    H185346   1.338   5.647   3.189
11626TIP3    H285347   1.434   5.696   3.082
11627TIP3   OH285348   1.578   7.283   2.947
11627TIP3    H185349   1.525   7.289   2.868
11627TIP3    H285350   1.592   7.373   2.974
11628TIP3   OH285351   3.084   6.695   1.957
11628TIP3    H185352   3.084   6.788   1.935
11628TIP3    H285353   3.019   6.656   1.899
11629TIP3   OH285354   2.951   6.590   2.302
11629TIP3    H185355   3.011   6.560   2.370
11629TIP3    H285356   3.006   6.598   2.224
11630TIP3   OH285357   2.176   6.563   2.463
11630TIP3    H185358   2.174   6.477   2.504
11630TIP3    H285359   2.237   6.614   2.516
11631TIP3   OH285360   1.953   6.372   1.782
11631TIP3    H185361   1.911   6.453   1.811
11631TIP3    H285362   1.901   6.344   1.706
11632TIP3   OH285363   2.016   6.562   2.062
11632TIP3    H185364   2.037   6.477   2.099
11632TIP3    H285365   2.086   6.578   1.999
11633TIP3   OH285366   3.058   7.368   2.207
11633TIP3    H185367   3.069   7.275   2.224
11633TIP3    H285368   3.028   7.405   2.290
11634TIP3   OH285369   2.779   6.862   2.360
11634TIP3    H185370   2.781   6.934   2.296
11634TIP3    H285371   2.863   6.867   2.404
11635TIP3   OH285372   3.660   6.004   2.441
11635TIP3    H185373   3.695   6.054   2.515
11635TIP3    H285374   3.691   6.051   2.363
11636TIP3   OH285375   3.074   6.247   2.344
11636TIP3    H185376   3.098   6.160   2.373
11636TIP3    H285377   3.102   6.251   2.252
11637TIP3   OH285378   2.105   6.327   2.177
11637TIP3    H185379   2.192   6.329   2.216
11637TIP3    H285380   2.116   6.278   2.095
11638TIP3   OH285381   2.639   6.503   2.162
11638TIP3    H185382   2.709   6.439   2.151
11638TIP3    H285383   2.563   6.450   2.189
11639TIP3   OH285384   3.733   6.181   2.636
11639TIP3    H185385   3.652   6.232   2.640
11639TIP3    H285386   3.766   6.181   2.725
11640TIP3   OH285387   2.365   6.075   2.647
11640TIP3    H185388   2.383   6.075   2.553
11640TIP3    H285389   2.270   6.072   2.653
11641TIP3   OH285390   3.062   6.945   1.841
11641TIP3    H185391   3.036   6.933   1.749
11641TIP3    H285392   3.024   7.029   1.865
11642TIP3   OH285393   2.557   6.872   2.545
11642TIP3    H185394   2.492   6.935   2.513
11642TIP3    H285395   2.633   6.884   2.488
11643TIP3   OH285396   3.303   6.136   2.138
11643TIP3    H185397   3.320   6.042   2.128
11643TIP3    H285398   3.364   6.164   2.206
11644TIP3   OH285399   3.443   5.865   2.529
11644TIP3    H185400   3.373   5.925   2.504
11644TIP3    H285401   3.522   5.902   2.489
11645TIP3   OH285402   3.224   7.281   1.930
11645TIP3    H185403   3.269   7.201   1.956
11645TIP3    H285404   3.267   7.350   1.980
11646TIP3   OH285405   3.472   6.913   2.703
11646TIP3    H185406   3.474   6.835   2.646
11646TIP3    H285407   3.496   6.985   2.645
11647TIP3   OH285408   2.914   6.617   1.754
11647TIP3    H185409   2.850   6.679   1.719
11647TIP3    H285410   2.930   6.556   1.681
11648TIP3   OH285411   2.954   6.426   1.420
11648TIP3    H185412   3.029   6.470   1.461
11648TIP3    H285413   2.985   6.337   1.403
11649TIP3   OH285414   3.667   6.562   2.547
11649TIP3    H185415   3.597   6.626   2.535
11649TIP3    H285416   3.730   6.582   2.477
11650TIP3   OH285417   3.271   6.571   1.788
11650TIP3    H185418   3.217   6.617   1.852
11650TIP3    H285419   3.349   6.546   1.837
11651TIP3   OH285420   3.260   6.418   2.728
11651TIP3    H185421   3.256   6.491   2.790
11651TIP3    H285422   3.199   6.444   2.658
11652TIP3   OH285423   2.468   6.667   1.967
11652TIP3    H185424   2.420   6.612   1.905
11652TIP3    H285425   2.539   6.610   1.998
11653TIP3   OH285426   2.502   6.642   2.402
11653TIP3    H185427   2.431   6.660   2.340
11653TIP3    H285428   2.496   6.712   2.466
11654TIP3   OH285429   3.090   7.111   2.349
11654TIP3    H185430   3.110   7.183   2.410
11654TIP3    H285431   3.067   7.038   2.406
11655TIP3   OH285432   2.570   6.988   2.809
11655TIP3    H185433   2.497   7.046   2.831
11655TIP3    H285434   2.543   6.946   2.728
11656TIP3   OH285435   3.158   6.564   1.541
11656TIP3    H185436   3.204   6.560   1.625
11656TIP3    H285437   3.147   6.657   1.524
11657TIP3   OH285438   2.275   6.613   2.756
11657TIP3    H185439   2.285   6.692   2.808
11657TIP3    H285440   2.181   6.604   2.742
11658TIP3   OH285441   2.962   7.203   1.873
11658TIP3    H185442   3.044   7.234   1.911
11658TIP3    H285443   2.919   7.281   1.840
11659TIP3   OH285444   2.373   7.174   2.891
11659TIP3    H185445   2.341   7.250   2.842
11659TIP3    H285446   2.293   7.136   2.928
11660TIP3   OH285447   3.612   5.726   1.531
11660TIP3    H185448   3.521   5.739   1.555
11660TIP3    H285449   3.636   5.804   1.481
11661TIP3   OH285450   2.297   6.558   1.781
11661TIP3    H185451   2.285   6.616   1.706
11661TIP3    H285452   2.295   6.470   1.743
11662TIP3   OH285453   1.963   6.849   2.629
11662TIP3    H185454   1.909   6.848   2.550
11662TIP3    H285455   1.979   6.756   2.649
11663TIP3   OH285456   2.822   7.099   2.793
11663TIP3    H185457   2.820   7.192   2.814
11663TIP3    H285458   2.731   7.071   2.799
11664TIP3   OH285459   2.878   7.429   1.727
11664TIP3    H185460   2.818   7.460   1.659
11664TIP3    H285461   2.884   7.502   1.789
11665TIP3   OH285462   3.189   7.471   1.433
11665TIP3    H185463   3.265   7.526   1.415
11665TIP3    H285464   3.195   7.451   1.526
11666TIP3   OH285465   3.164   7.426   1.704
11666TIP3    H185466   3.068   7.426   1.704
11666TIP3    H285467   3.189   7.367   1.775
11667TIP3   OH285468   3.457   6.302   2.923
11667TIP3    H185469   3.377   6.331   2.880
11667TIP3    H285470   3.462   6.208   2.903
11668TIP3   OH285471   2.179   7.016   2.666
11668TIP3    H185472   2.200   7.010   2.759
11668TIP3    H285473   2.104   6.959   2.654
11669TIP3   OH285474   3.008   5.765   2.668
11669TIP3    H185475   3.056   5.715   2.734
11669TIP3    H285476   2.981   5.845   2.713
11670TIP3   OH285477   3.212   6.140   2.710
11670TIP3    H185478   3.140   6.121   2.770
11670TIP3    H285479   3.220   6.236   2.712
11671TIP3   OH285480   2.925   6.393   2.959
11671TIP3    H185481   2.878   6.320   2.999
11671TIP3    H285482   2.932   6.370   2.867
11672TIP3   OH285483   3.101   6.296   2.056
11672TIP3    H185484   3.105   6.318   1.963
11672TIP3    H285485   3.164   6.224   2.066
11673TIP3   OH285486   2.176   6.332   2.608
11673TIP3    H185487   2.201   6.362   2.695
11673TIP3    H285488   2.142   6.244   2.621
11674TIP3   OH285489   1.853   6.031   2.004
11674TIP3    H185490   1.909   6.037   2.081
11674TIP3    H285491   1.913   6.034   1.930
11675TIP3   OH285492   1.979   6.116   1.514
11675TIP3    H185493   2.038   6.155   1.449
11675TIP3    H285494   1.923   6.187   1.542
11676TIP3   OH285495   3.041   6.436   2.542
11676TIP3    H185496   3.064   6.377   2.471
11676TIP3    H285497   2.993   6.382   2.605
11677TIP3   OH285498   2.130   6.219   1.927
11677TIP3    H185499   2.072   6.273   1.874
11677TIP3    H285500   2.132   6.135   1.882
11678TIP3   OH285501   3.147   5.977   2.385
11678TIP3    H185502   3.110   5.923   2.455
11678TIP3    H285503   3.152   5.918   2.310
11679TIP3   OH285504   2.403   6.391   1.497
11679TIP3    H185505   2.313   6.394   1.465
11679TIP3    H285506   2.438   6.308   1.463
11680TIP3   OH285507   3.476   7.518   2.993
11680TIP3    H185508   3.528   7.508   2.913
11680TIP3    H285509   3.539   7.539   3.061
11681TIP3   OH285510   2.267   6.830   2.929
11681TIP3    H185511   2.323   6.829   3.006
11681TIP3    H285512   2.181   6.859   2.962
11682TIP3   OH285513   2.841   6.318   2.196
11682TIP3    H185514   2.901   6.317   2.121
11682TIP3    H285515   2.897   6.301   2.272
11683TIP3   OH285516   2.713   6.790   1.645
11683TIP3    H185517   2.659   6.734   1.589
11683TIP3    H285518   2.649   6.837   1.700
11684TIP3   OH285519   3.476   6.749   2.483
11684TIP3    H185520   3.515   6.824   2.439
11684TIP3    H285521   3.404   6.722   2.426
11685TIP3   OH285522   2.880   6.825   2.745
11685TIP3    H185523   2.918   6.800   2.829
11685TIP3    H285524   2.852   6.915   2.757
11686TIP3   OH285525   3.197   6.263   1.781
11686TIP3    H185526   3.291   6.247   1.776
11686TIP3    H285527   3.181   6.332   1.717
11687TIP3   OH285528   2.331   6.727   2.199
11687TIP3    H185529   2.381   6.713   2.118
11687TIP3    H285530   2.251   6.771   2.170
11688TIP3   OH285531   2.948   6.941   1.584
11688TIP3    H185532   2.922   7.028   1.555
11688TIP3    H285533   2.865   6.894   1.596
11689TIP3   OH285534   1.997   6.593   2.738
11689TIP3    H185535   1.991   6.563   2.828
11689TIP3    H285536   1.925   6.548   2.693
11690TIP3   OH285537   2.694   6.558   2.978
11690TIP3    H185538   2.634   6.529   2.909
11690TIP3    H285539   2.775   6.510   2.961
11691TIP3   OH285540   3.104   7.109   2.798
11691TIP3    H185541   3.010   7.110   2.780
11691TIP3    H285542   3.110   7.126   2.892
11692TIP3   OH285543   3.699   6.312   1.591
11692TIP3    H185544   3.709   6.281   1.501
11692TIP3    H285545   3.701   6.408   1.583
11693TIP3   OH285546   3.693   6.854   2.861
11693TIP3    H185547   3.613   6.894   2.827
11693TIP3    H285548   3.753   6.853   2.787
11694TIP3   OH285549   3.277   6.683   2.302
11694TIP3    H185550   3.240   6.738   2.232
11694TIP3    H285551   3.298   6.601   2.259
11695TIP3   OH285552   2.121   6.513   1.474
11695TIP3    H185553   2.169   6.591   1.502
11695TIP3    H285554   2.029   6.538   1.479
11696TIP3   OH285555   3.017   6.874   2.505
11696TIP3    H185556   2.978   6.860   2.592
11696TIP3    H285557   3.101   6.827   2.509
11697TIP3   OH285558   3.249   7.345   2.751
11697TIP3    H185559   3.211   7.258   2.761
11697TIP3    H285560   3.324   7.346   2.811
11698TIP3   OH285561   2.077   6.073   2.650
11698TIP3    H185562   1.991   6.115   2.651
11698TIP3    H285563   2.058   5.980   2.665
11699TIP3   OH285564   2.276   6.730   1.564
11699TIP3    H185565   2.259   6.823   1.547
11699TIP3    H285566   2.368   6.718   1.541
11700TIP3   OH285567   2.875   7.215   1.524
11700TIP3    H185568   2.870   7.239   1.617
11700TIP3    H285569   2.900   7.296   1.480
11701TIP3   OH285570   2.902   6.267   2.706
11701TIP3    H185571   2.843   6.226   2.643
11701TIP3    H285572   2.936   6.194   2.759
11702TIP3   OH285573   3.457   6.056   2.791
11702TIP3    H185574   3.366   6.073   2.765
11702TIP3    H285575   3.495   6.008   2.718
11703TIP3   OH285576   3.325   6.443   2.172
11703TIP3    H185577   3.250   6.394   2.139
11703TIP3    H285578   3.372   6.381   2.227
11704TIP3   OH285579   2.091   6.283   1.328
11704TIP3    H185580   2.107   6.367   1.371
11704TIP3    H285581   2.032   6.303   1.255
11705TIP3   OH285582   2.116   5.756   2.205
11705TIP3    H185583   2.135   5.766   2.111
11705TIP3    H285584   2.153   5.671   2.227
11706TIP3   OH285585   2.477   7.248   3.142
11706TIP3    H185586   2.560   7.202   3.154
11706TIP3    H285587   2.449   7.223   3.054
11707TIP3   OH285588   3.131   7.147   3.067
11707TIP3    H185589   3.106   7.066   3.111
11707TIP3    H285590   3.210   7.176   3.114
11708TIP3   OH285591   2.013   6.825   3.062
11708TIP3    H185592   2.030   6.731   3.047
11708TIP3    H285593   1.941   6.846   3.003
11709TIP3   OH285594   2.663   6.837   3.022
11709TIP3    H185595   2.637   6.881   2.941
11709TIP3    H285596   2.675   6.746   2.998
11710TIP3   OH285597   3.217   6.856   2.787
11710TIP3    H185598   3.308   6.877   2.765
11710TIP3    H285599   3.172   6.940   2.787
11711TIP3   OH285600   2.081   6.559   3.009
11711TIP3    H185601   2.174   6.540   2.996
11711TIP3    H285602   2.063   6.529   3.098
11712TIP3   OH285603   2.545   6.628   1.491
11712TIP3    H185604   2.498   6.545   1.503
11712TIP3    H285605   2.603   6.612   1.416
11713TIP3   OH285606   2.527   6.487   2.753
11713TIP3    H185607   2.441   6.527   2.755
11713TIP3    H285608   2.565   6.516   2.670
11714TIP3   OH285609   2.737   6.531   1.287
11714TIP3    H185610   2.787   6.528   1.205
11714TIP3    H285611   2.796   6.494   1.353
11715TIP3   OH285612   2.972   6.684   3.112
11715TIP3    H185613   2.993   6.776   3.130
11715TIP3    H285614   2.882   6.673   3.143
11716TIP3   OH285615   2.527   6.215   2.832
11716TIP3    H185616   2.479   6.161   2.769
11716TIP3    H285617   2.529   6.302   2.793
11717TIP3   OH285618   2.794   6.613   2.568
11717TIP3    H185619   2.876   6.563   2.578
11717TIP3    H285620   2.803   6.685   2.630
11718TIP3   OH285621   3.228   6.306   3.136
11718TIP3    H185622   3.191   6.227   3.174
11718TIP3    H285623   3.321   6.302   3.159
11719TIP3   OH285624   3.263   6.620   2.922
11719TIP3    H185625   3.238   6.701   2.879
11719TIP3    H285626   3.358   6.622   2.926
11720TIP3   OH285627   2.386   6.244   3.073
11720TIP3    H185628   2.307   6.191   3.061
11720TIP3    H285629   2.429   6.243   2.988
11721TIP3   OH285630   2.756   6.174   3.003
11721TIP3    H185631   2.717   6.129   3.078
11721TIP3    H285632   2.684   6.182   2.940
11722TIP3   OH285633   3.006   6.085   2.890
11722TIP3    H185634   2.929   6.093   2.945
11722TIP3    H285635   3.071   6.041   2.946
11723TIP3   OH285636   3.187   5.965   3.065
11723TIP3    H185637   3.197   5.871   3.081
11723TIP3    H285638   3.158   6.001   3.149
11724TIP3   OH285639   2.204   6.037   3.023
11724TIP3    H185640   2.232   5.962   2.969
11724TIP3    H285641   2.202   6.003   3.112
11725TIP3   OH285642   2.684   5.812   3.115
11725TIP3    H185643   2.668   5.775   3.028
11725TIP3    H285644   2.636   5.895   3.115
11726TIP3   OH285645   2.728   7.552   1.527
11726TIP3    H185646   2.796   7.524   1.465
11726TIP3    H285647   2.647   7.549   1.477
11727TIP3   OH285648   3.504   6.939   3.219
11727TIP3    H185649   3.429   6.960   3.275
11727TIP3    H285650   3.560   7.017   3.224
11728TIP3   OH285651   3.693   6.616   1.861
11728TIP3    H185652   3.618   6.564   1.892
11728TIP3    H285653   3.751   6.622   1.937
11729TIP3   OH285654   3.706   6.592   1.585
11729TIP3    H185655   3.633   6.646   1.553
11729TIP3    H285656   3.707   6.607   1.679
11730TIP3   OH285657   3.481   6.463   1.937
11730TIP3    H185658   3.478   6.378   1.894
11730TIP3    H285659   3.437   6.450   2.021
11731TIP3   OH285660   1.958   6.643   2.322
11731TIP3    H185661   1.972   6.618   2.231
11731TIP3    H285662   2.040   6.619   2.367
11732TIP3   OH285663   3.542   6.634   2.932
11732TIP3    H185664   3.598   6.560   2.910
11732TIP3    H285665   3.594   6.711   2.907
11733TIP3   OH285666   3.699   6.413   2.880
11733TIP3    H185667   3.614   6.370   2.892
11733TIP3    H285668   3.764   6.344   2.895
11734TIP3   OH285669   3.487   5.961   1.231
11734TIP3    H185670   3.563   5.963   1.289
11734TIP3    H285671   3.413   5.985   1.288
11735TIP3   OH285672   3.479   6.241   1.767
11735TIP3    H185673   3.475   6.145   1.771
11735TIP3    H285674   3.553   6.259   1.708
11736TIP3   OH285675   3.469   6.260   2.324
11736TIP3    H185676   3.563   6.253   2.305
11736TIP3    H285677   3.465   6.274   2.418
11737TIP3   OH285678   3.505   6.341   2.591
11737TIP3    H185679   3.431   6.370   2.643
11737TIP3    H285680   3.561   6.418   2.583
11738TIP3   OH285681   1.975   6.186   2.975
11738TIP3    H185682   2.059   6.140   2.982
11738TIP3    H285683   1.913   6.117   2.951
11739TIP3   OH285684   3.731   5.761   3.108
11739TIP3    H185685   3.804   5.700   3.099
11739TIP3    H285686   3.746   5.826   3.040
11740TIP3   OH285687   3.451   5.969   1.769
11740TIP3    H185688   3.491   5.922   1.842
11740TIP3    H285689   3.414   5.900   1.714
11741TIP3   OH285690   2.010   6.008   2.236
11741TIP3    H185691   2.046   5.920   2.227
11741TIP3    H285692   2.070   6.053   2.295
11742TIP3   OH285693   1.880   6.291   2.340
11742TIP3    H185694   1.949   6.294   2.274
11742TIP3    H285695   1.911   6.347   2.411
11743TIP3   OH285696   3.685   5.942   2.905
11743TIP3    H185697   3.601   5.986   2.915
11743TIP3    H285698   3.668   5.871   2.842
11744TIP3   OH285699   3.707   5.961   1.405
11744TIP3    H185700   3.770   5.993   1.341
11744TIP3    H285701   3.738   5.994   1.489
11745TIP3   OH285702   1.982   5.990   1.761
11745TIP3    H185703   1.940   5.906   1.744
11745TIP3    H285704   1.992   6.030   1.675
11746TIP3   OH285705   3.369   7.528   1.980
11746TIP3    H185706   3.356   7.563   1.892
11746TIP3    H285707   3.455   7.561   2.006
11747TIP3   OH285708   1.882   5.782   2.566
11747TIP3    H185709   1.818   5.769   2.636
11747TIP3    H285710   1.847   5.856   2.516
11748TIP3   OH285711   2.121   7.108   2.971
11748TIP3    H185712   2.070   7.178   2.929
11748TIP3    H285713   2.082   7.098   3.058
11749TIP3   OH285714   2.837   7.362   2.889
11749TIP3    H185715   2.852   7.335   2.980
11749TIP3    H285716   2.910   7.420   2.869
11750TIP3   OH285717   3.063   7.521   2.861
11750TIP3    H185718   3.130   7.469   2.816
11750TIP3    H285719   3.105   7.550   2.942
11751TIP3   OH285720   3.586   5.739   2.746
11751TIP3    H185721   3.537   5.766   2.668
11751TIP3    H285722   3.620   5.652   2.723
11752TIP3   OH285723   2.458   7.507   2.548
11752TIP3    H185724   2.379   7.454   2.539
11752TIP3    H285725   2.455   7.568   2.474
11753TIP3   OH285726   2.940   7.528   2.431
11753TIP3    H185727   2.860   7.552   2.384
11753TIP3    H285728   2.942   7.585   2.508
11754TIP3   OH285729   3.130   7.337   2.500
11754TIP3    H185730   3.066   7.406   2.489
11754TIP3    H285731   3.171   7.355   2.585
11755TIP3   OH285732   3.417   5.698   2.142
11755TIP3    H185733   3.473   5.763   2.099
11755TIP3    H285734   3.334   5.742   2.156
11756TIP3   OH285735   3.586   5.848   1.982
11756TIP3    H185736   3.642   5.776   1.953
11756TIP3    H285737   3.645   5.922   1.994
11757TIP3   OH285738   2.160   5.740   1.938
11757TIP3    H185739   2.074   5.721   1.900
11757TIP3    H285740   2.223   5.719   1.869
11758TIP3   OH285741   3.155   5.806   2.163
11758TIP3    H185742   3.102   5.842   2.091
11758TIP3    H285743   3.125   5.715   2.171
11759TIP3   OH285744   3.346   5.761   1.614
11759TIP3    H185745   3.314   5.726   1.530
11759TIP3    H285746   3.300   5.710   1.680
11760TIP3   OH285747   2.926   7.445   1.369
11760TIP3    H185748   3.018   7.460   1.391
11760TIP3    H285749   2.924   7.448   1.273
11761TIP3   OH285750   3.240   5.698   3.113
11761TIP3    H185751   3.231   5.647   3.193
11761TIP3    H285752   3.331   5.686   3.087
11762TIP3   OH285753   4.083   6.571   2.432
11762TIP3    H185754   4.083   6.494   2.490
11762TIP3    H285755   4.176   6.590   2.419
11763TIP3   OH285756   3.860   6.359   1.838
11763TIP3    H185757   3.818   6.445   1.833
11763TIP3    H285758   3.825   6.312   1.762
11764TIP3   OH285759   3.867   6.593   2.074
11764TIP3    H185760   3.881   6.500   2.088
11764TIP3    H285761   3.954   6.632   2.084
11765TIP3   OH285762   4.854   7.425   2.160
11765TIP3    H185763   4.784   7.381   2.111
11765TIP3    H285764   4.817   7.441   2.247
11766TIP3   OH285765   5.592   6.006   2.437
11766TIP3    H185766   5.608   6.073   2.504
11766TIP3    H285767   5.653   6.027   2.367
11767TIP3   OH285768   4.979   6.324   2.322
11767TIP3    H185769   4.973   6.232   2.346
11767TIP3    H285770   4.954   6.326   2.229
11768TIP3   OH285771   5.159   6.162   1.954
11768TIP3    H185772   5.192   6.072   1.953
11768TIP3    H285773   5.205   6.206   1.883
11769TIP3   OH285774   3.918   6.320   2.106
11769TIP3    H185775   4.007   6.296   2.129
11769TIP3    H285776   3.917   6.321   2.010
11770TIP3   OH285777   4.461   6.470   2.114
11770TIP3    H185778   4.535   6.413   2.134
11770TIP3    H285779   4.396   6.412   2.075
11771TIP3   OH285780   5.626   6.183   2.643
11771TIP3    H185781   5.545   6.234   2.639
11771TIP3    H285782   5.653   6.188   2.735
11772TIP3   OH285783   4.516   6.798   2.473
11772TIP3    H185784   4.450   6.854   2.513
11772TIP3    H285785   4.597   6.849   2.477
11773TIP3   OH285786   5.252   5.948   2.115
11773TIP3    H185787   5.189   5.878   2.095
11773TIP3    H285788   5.337   5.912   2.091
11774TIP3   OH285789   4.171   6.245   2.181
11774TIP3    H185790   4.231   6.247   2.255
11774TIP3    H285791   4.211   6.183   2.119
11775TIP3   OH285792   4.344   6.981   2.589
11775TIP3    H185793   4.346   7.076   2.584
11775TIP3    H285794   4.255   6.960   2.616
11776TIP3   OH285795   5.339   5.944   2.519
11776TIP3    H185796   5.286   6.019   2.490
11776TIP3    H285797   5.426   5.962   2.483
11777TIP3   OH285798   5.398   6.917   2.654
11777TIP3    H185799   5.343   6.840   2.640
11777TIP3    H285800   5.449   6.926   2.573
11778TIP3   OH285801   4.888   6.434   1.329
11778TIP3    H185802   4.930   6.486   1.398
11778TIP3    H285803   4.948   6.361   1.315
11779TIP3   OH285804   5.555   6.557   2.504
11779TIP3    H185805   5.476   6.608   2.486
11779TIP3    H285806   5.623   6.599   2.451
11780TIP3   OH285807   5.162   6.431   2.744
11780TIP3    H185808   5.158   6.501   2.809
11780TIP3    H285809   5.094   6.452   2.681
11781TIP3   OH285810   4.345   6.695   1.984
11781TIP3    H185811   4.334   6.676   1.891
11781TIP3    H285812   4.404   6.626   2.015
11782TIP3   OH285813   4.463   7.064   2.211
11782TIP3    H185814   4.504   7.036   2.129
11782TIP3    H285815   4.447   6.982   2.259
11783TIP3   OH285816   4.349   6.598   2.343
11783TIP3    H185817   4.394   6.571   2.263
11783TIP3    H285818   4.408   6.663   2.382
11784TIP3   OH285819   4.486   6.997   2.830
11784TIP3    H185820   4.420   7.054   2.871
11784TIP3    H285821   4.447   6.973   2.746
11785TIP3   OH285822   5.117   6.570   1.499
11785TIP3    H185823   5.166   6.628   1.558
11785TIP3    H285824   5.140   6.601   1.411
11786TIP3   OH285825   4.170   6.600   2.768
11786TIP3    H185826   4.176   6.680   2.820
11786TIP3    H285827   4.079   6.598   2.738
11787TIP3   OH285828   4.281   7.172   2.889
11787TIP3    H185829   4.288   7.211   2.802
11787TIP3    H285830   4.187   7.168   2.906
11788TIP3   OH285831   5.448   5.726   1.582
11788TIP3    H185832   5.355   5.731   1.602
11788TIP3    H285833   5.466   5.803   1.529
11789TIP3   OH285834   4.293   6.614   1.718
11789TIP3    H185835   4.226   6.661   1.667
11789TIP3    H285836   4.282   6.522   1.694
11790TIP3   OH285837   3.856   6.839   2.642
11790TIP3    H185838   3.859   6.854   2.547
11790TIP3    H285839   3.873   6.745   2.651
11791TIP3   OH285840   4.718   7.129   2.750
11791TIP3    H185841   4.746   7.201   2.806
11791TIP3    H285842   4.639   7.095   2.792
11792TIP3   OH285843   4.769   7.423   1.786
11792TIP3    H185844   4.706   7.405   1.716
11792TIP3    H285845   4.770   7.518   1.794
11793TIP3   OH285846   4.159   7.354   1.961
11793TIP3    H185847   4.187   7.318   2.045
11793TIP3    H285848   4.121   7.280   1.914
11794TIP3   OH285849   5.345   6.307   2.932
11794TIP3    H185850   5.274   6.342   2.878
11794TIP3    H285851   5.347   6.213   2.911
11795TIP3   OH285852   4.093   6.966   2.698
11795TIP3    H185853   4.117   6.934   2.785
11795TIP3    H285854   4.008   6.925   2.680
11796TIP3   OH285855   5.084   6.164   2.714
11796TIP3    H185856   5.020   6.147   2.783
11796TIP3    H285857   5.104   6.258   2.723
11797TIP3   OH285858   4.762   5.960   1.357
11797TIP3    H185859   4.709   5.983   1.433
11797TIP3    H285860   4.757   5.865   1.351
11798TIP3   OH285861   4.334   6.324   2.417
11798TIP3    H185862   4.264   6.320   2.482
11798TIP3    H285863   4.340   6.417   2.393
11799TIP3   OH285864   4.862   6.378   1.806
11799TIP3    H185865   4.838   6.468   1.783
11799TIP3    H285866   4.942   6.361   1.757
11800TIP3   OH285867   4.783   6.378   2.944
11800TIP3    H185868   4.738   6.300   2.976
11800TIP3    H285869   4.870   6.374   2.984
11801TIP3   OH285870   4.926   6.280   2.057
11801TIP3    H185871   4.885   6.324   1.982
11801TIP3    H285872   5.001   6.234   2.020
11802TIP3   OH285873   4.125   6.346   2.599
11802TIP3    H185874   4.139   6.390   2.683
11802TIP3    H285875   4.068   6.272   2.620
11803TIP3   OH285876   3.764   6.059   1.987
11803TIP3    H185877   3.777   6.132   2.048
11803TIP3    H285878   3.831   6.072   1.919
11804TIP3   OH285879   4.949   6.446   2.569
11804TIP3    H185880   4.962   6.417   2.478
11804TIP3    H285881   4.884   6.385   2.604
11805TIP3   OH285882   4.681   6.051   2.010
11805TIP3    H185883   4.650   6.123   2.065
11805TIP3    H285884   4.739   6.001   2.066
11806TIP3   OH285885   4.380   6.255   1.740
11806TIP3    H185886   4.475   6.242   1.750
11806TIP3    H285887   4.371   6.289   1.651
11807TIP3   OH285888   5.015   6.051   2.315
11807TIP3    H185889   5.004   6.016   2.403
11807TIP3    H285890   4.955   5.999   2.261
11808TIP3   OH285891   4.374   6.371   1.488
11808TIP3    H185892   4.308   6.412   1.433
11808TIP3    H285893   4.456   6.378   1.438
11809TIP3   OH285894   5.378   7.570   3.044
11809TIP3    H185895   5.399   7.590   2.953
11809TIP3    H285896   5.462   7.577   3.090
11810TIP3   OH285897   4.146   6.827   2.934
11810TIP3    H185898   4.207   6.826   3.008
11810TIP3    H285899   4.059   6.832   2.974
11811TIP3   OH285900   4.654   6.274   2.177
11811TIP3    H185901   4.749   6.285   2.165
11811TIP3    H285902   4.643   6.260   2.271
11812TIP3   OH285903   4.606   6.242   2.448
11812TIP3    H185904   4.524   6.291   2.456
11812TIP3    H285905   4.653   6.259   2.529
11813TIP3   OH285906   5.339   6.711   2.443
11813TIP3    H185907   5.382   6.789   2.409
11813TIP3    H285908   5.248   6.719   2.415
11814TIP3   OH285909   4.998   6.066   1.460
11814TIP3    H185910   4.922   6.026   1.418
11814TIP3    H285911   5.025   6.135   1.400
11815TIP3   OH285912   4.871   6.896   2.805
11815TIP3    H185913   4.840   6.868   2.891
11815TIP3    H285914   4.816   6.972   2.783
11816TIP3   OH285915   5.095   6.347   1.669
11816TIP3    H185916   5.184   6.311   1.675
11816TIP3    H285917   5.103   6.419   1.606
11817TIP3   OH285918   4.116   6.682   2.138
11817TIP3    H185919   4.193   6.698   2.083
11817TIP3    H285920   4.152   6.656   2.223
11818TIP3   OH285921   3.894   6.577   2.730
11818TIP3    H185922   3.891   6.555   2.823
11818TIP3    H285923   3.814   6.540   2.694
11819TIP3   OH285924   4.571   6.554   2.982
11819TIP3    H185925   4.509   6.520   2.918
11819TIP3    H285926   4.652   6.507   2.965
11820TIP3   OH285927   5.534   6.301   1.539
11820TIP3    H185928   5.522   6.279   1.447
11820TIP3    H285929   5.546   6.396   1.539
11821TIP3   OH285930   5.588   6.867   2.860
11821TIP3    H185931   5.513   6.912   2.822
11821TIP3    H285932   5.652   6.862   2.789
11822TIP3   OH285933   3.910   6.661   1.399
11822TIP3    H185934   3.979   6.686   1.460
11822TIP3    H285935   3.841   6.625   1.454
11823TIP3   OH285936   4.611   7.277   2.539
11823TIP3    H185937   4.673   7.349   2.522
11823TIP3    H285938   4.657   7.221   2.602
11824TIP3   OH285939   4.411   7.383   1.837
11824TIP3    H185940   4.322   7.386   1.873
11824TIP3    H285941   4.457   7.454   1.881
11825TIP3   OH285942   5.274   6.750   1.642
11825TIP3    H185943   5.243   6.815   1.705
11825TIP3    H285944   5.369   6.758   1.644
11826TIP3   OH285945   4.033   7.220   2.580
11826TIP3    H185946   4.052   7.126   2.574
11826TIP3    H285947   4.049   7.242   2.672
11827TIP3   OH285948   4.438   7.064   1.539
11827TIP3    H185949   4.505   7.002   1.571
11827TIP3    H285950   4.472   7.150   1.563
11828TIP3   OH285951   4.104   6.763   1.571
11828TIP3    H185952   4.061   6.825   1.631
11828TIP3    H285953   4.150   6.819   1.509
11829TIP3   OH285954   4.970   5.960   2.569
11829TIP3    H185955   5.010   6.030   2.621
11829TIP3    H285956   4.951   5.891   2.632
11830TIP3   OH285957   5.001   6.016   1.727
11830TIP3    H185958   4.996   6.036   1.633
11830TIP3    H285959   5.029   6.098   1.767
11831TIP3   OH285960   4.649   6.200   1.778
11831TIP3    H185961   4.721   6.262   1.782
11831TIP3    H285962   4.658   6.149   1.859
11832TIP3   OH285963   4.767   6.271   2.685
11832TIP3    H185964   4.760   6.321   2.767
11832TIP3    H285965   4.792   6.183   2.713
11833TIP3   OH285966   4.769   5.880   1.800
11833TIP3    H185967   4.729   5.928   1.872
11833TIP3    H285968   4.849   5.929   1.780
11834TIP3   OH285969   4.549   7.312   1.616
11834TIP3    H185970   4.532   7.388   1.561
11834TIP3    H285971   4.496   7.327   1.695
11835TIP3   OH285972   5.332   6.067   2.780
11835TIP3    H185973   5.240   6.090   2.763
11835TIP3    H285974   5.356   6.009   2.709
11836TIP3   OH285975   5.230   6.391   2.167
11836TIP3    H185976   5.158   6.449   2.193
11836TIP3    H285977   5.300   6.411   2.229
11837TIP3   OH285978   4.219   6.948   1.408
11837TIP3    H185979   4.292   6.991   1.453
11837TIP3    H285980   4.225   6.980   1.318
11838TIP3   OH285981   4.353   7.250   3.145
11838TIP3    H185982   4.426   7.194   3.169
11838TIP3    H285983   4.332   7.227   3.055
11839TIP3   OH285984   3.894   6.815   3.048
11839TIP3    H185985   3.905   6.720   3.042
11839TIP3    H285986   3.816   6.833   2.995
11840TIP3   OH285987   4.548   6.832   3.044
11840TIP3    H185988   4.539   6.876   2.960
11840TIP3    H285989   4.571   6.741   3.022
11841TIP3   OH285990   5.125   6.827   2.740
11841TIP3    H185991   5.166   6.914   2.747
11841TIP3    H285992   5.032   6.844   2.754
11842TIP3   OH285993   3.973   6.548   3.004
11842TIP3    H185994   4.064   6.525   2.988
11842TIP3    H285995   3.958   6.526   3.095
11843TIP3   OH285996   4.439   6.659   1.417
11843TIP3    H185997   4.426   6.660   1.512
11843TIP3    H285998   4.503   6.589   1.403
11844TIP3   OH285999   4.408   6.458   2.772
11844TIP3    H186000   4.329   6.511   2.765
11844TIP3    H286001   4.464   6.489   2.701
11845TIP3   OH286002   4.593   6.444   1.323
11845TIP3    H186003   4.576   6.453   1.229
11845TIP3    H286004   4.687   6.433   1.330
11846TIP3   OH286005   4.896   6.720   3.082
11846TIP3    H186006   4.971   6.679   3.037
11846TIP3    H286007   4.862   6.651   3.139
11847TIP3   OH286008   4.429   6.193   2.846
11847TIP3    H186009   4.425   6.139   2.767
11847TIP3    H286010   4.425   6.283   2.812
11848TIP3   OH286011   4.417   6.065   2.598
11848TIP3    H186012   4.464   6.107   2.527
11848TIP3    H286013   4.334   6.036   2.559
11849TIP3   OH286014   4.585   6.551   2.586
11849TIP3    H186015   4.681   6.552   2.595
11849TIP3    H286016   4.565   6.636   2.546
11850TIP3   OH286017   5.014   6.342   3.099
11850TIP3    H186018   5.010   6.260   3.149
11850TIP3    H286019   5.103   6.373   3.111
11851TIP3   OH286020   5.180   6.638   2.930
11851TIP3    H186021   5.156   6.706   2.868
11851TIP3    H286022   5.276   6.639   2.931
11852TIP3   OH286023   4.256   6.240   3.060
11852TIP3    H186024   4.184   6.179   3.044
11852TIP3    H286025   4.314   6.229   2.984
11853TIP3   OH286026   4.650   6.147   3.008
11853TIP3    H186027   4.617   6.118   3.093
11853TIP3    H286028   4.573   6.152   2.953
11854TIP3   OH286029   4.895   6.082   2.889
11854TIP3    H186030   4.813   6.088   2.939
11854TIP3    H286031   4.956   6.040   2.949
11855TIP3   OH286032   5.094   5.983   3.065
11855TIP3    H186033   5.086   5.888   3.073
11855TIP3    H286034   5.060   6.017   3.148
11856TIP3   OH286035   4.047   6.059   3.043
11856TIP3    H186036   4.041   5.986   2.982
11856TIP3    H286037   4.065   6.018   3.127
11857TIP3   OH286038   4.578   5.841   3.169
11857TIP3    H186039   4.570   5.796   3.085
11857TIP3    H286040   4.521   5.918   3.161
11858TIP3   OH286041   4.510   7.541   1.467
11858TIP3    H186042   4.581   7.592   1.427
11858TIP3    H286043   4.468   7.497   1.393
11859TIP3   OH286044   5.553   7.438   2.627
11859TIP3    H186045   5.589   7.466   2.543
11859TIP3    H286046   5.611   7.368   2.656
11860TIP3   OH286047   5.409   6.954   3.193
11860TIP3    H186048   5.324   6.974   3.231
11860TIP3    H286049   5.460   7.035   3.203
11861TIP3   OH286050   5.552   6.774   1.676
11861TIP3    H186051   5.616   6.845   1.681
11861TIP3    H286052   5.572   6.719   1.752
11862TIP3   OH286053   5.592   6.605   1.897
11862TIP3    H186054   5.511   6.555   1.904
11862TIP3    H286055   5.616   6.624   1.988
11863TIP3   OH286056   5.546   6.902   2.409
11863TIP3    H186057   5.605   6.836   2.372
11863TIP3    H286058   5.584   6.986   2.382
11864TIP3   OH286059   5.571   6.564   1.489
11864TIP3    H186060   5.564   6.592   1.398
11864TIP3    H286061   5.565   6.645   1.540
11865TIP3   OH286062   5.380   6.438   1.929
11865TIP3    H186063   5.365   6.372   1.862
11865TIP3    H286064   5.318   6.417   1.999
11866TIP3   OH286065   3.835   6.654   2.345
11866TIP3    H186066   3.834   6.632   2.252
11866TIP3    H286067   3.923   6.630   2.374
11867TIP3   OH286068   5.455   6.640   2.932
11867TIP3    H186069   5.508   6.566   2.904
11867TIP3    H286070   5.502   6.717   2.902
11868TIP3   OH286071   5.591   6.409   2.865
11868TIP3    H186072   5.505   6.373   2.888
11868TIP3    H286073   5.653   6.341   2.890
11869TIP3   OH286074   5.295   6.092   1.357
11869TIP3    H186075   5.383   6.057   1.362
11869TIP3    H286076   5.242   6.033   1.411
11870TIP3   OH286077   5.344   6.234   1.736
11870TIP3    H186078   5.355   6.141   1.750
11870TIP3    H286079   5.406   6.256   1.667
11871TIP3   OH286080   5.358   6.212   2.362
11871TIP3    H186081   5.448   6.220   2.330
11871TIP3    H286082   5.359   6.254   2.448
11872TIP3   OH286083   5.398   6.347   2.597
11872TIP3    H186084   5.326   6.382   2.651
11872TIP3    H286085   5.454   6.423   2.580
11873TIP3   OH286086   3.834   6.171   2.902
11873TIP3    H186087   3.914   6.151   2.950
11873TIP3    H286088   3.782   6.092   2.908
11874TIP3   OH286089   5.621   5.770   3.115
11874TIP3    H186090   5.691   5.707   3.100
11874TIP3    H286091   5.629   5.834   3.044
11875TIP3   OH286092   5.349   5.970   1.804
11875TIP3    H186093   5.398   5.925   1.873
11875TIP3    H286094   5.302   5.900   1.758
11876TIP3   OH286095   3.744   6.247   2.306
11876TIP3    H186096   3.806   6.277   2.240
11876TIP3    H286097   3.784   6.270   2.390
11877TIP3   OH286098   5.570   5.951   2.915
11877TIP3    H186099   5.493   5.986   2.960
11877TIP3    H286100   5.535   5.887   2.853
11878TIP3   OH286101   5.538   5.943   1.425
11878TIP3    H186102   5.585   5.888   1.362
11878TIP3    H286103   5.607   5.992   1.470
11879TIP3   OH286104   4.010   7.164   2.960
11879TIP3    H186105   3.919   7.176   2.933
11879TIP3    H286106   4.004   7.128   3.049
11880TIP3   OH286107   4.347   7.260   2.625
11880TIP3    H186108   4.306   7.342   2.599
11880TIP3    H286109   4.438   7.269   2.596
11881TIP3   OH286110   4.822   7.342   2.898
11881TIP3    H186111   4.813   7.305   2.986
11881TIP3    H286112   4.917   7.346   2.884
11882TIP3   OH286113   5.479   5.729   2.762
11882TIP3    H186114   5.406   5.722   2.700
11882TIP3    H286115   5.524   5.645   2.756
11883TIP3   OH286116   4.245   7.523   2.578
11883TIP3    H186117   4.225   7.587   2.647
11883TIP3    H286118   4.165   7.518   2.526
11884TIP3   OH286119   4.765   7.489   2.430
11884TIP3    H186120   4.697   7.534   2.380
11884TIP3    H286121   4.788   7.549   2.500
11885TIP3   OH286122   3.989   7.436   2.411
11885TIP3    H186123   4.010   7.358   2.463
11885TIP3    H286124   3.924   7.405   2.347
11886TIP3   OH286125   4.535   7.320   2.276
11886TIP3    H186126   4.503   7.238   2.240
11886TIP3    H286127   4.555   7.300   2.367
11887TIP3   OH286128   4.853   5.890   2.154
11887TIP3    H186129   4.812   5.811   2.189
11887TIP3    H286130   4.927   5.857   2.102
11888TIP3   OH286131   5.489   5.853   2.009
11888TIP3    H186132   5.541   5.777   1.982
11888TIP3    H286133   5.554   5.913   2.047
11889TIP3   OH286134   5.063   5.759   2.035
11889TIP3    H186135   5.057   5.726   1.945
11889TIP3    H286136   5.047   5.682   2.090
11890TIP3   OH286137   5.173   5.794   1.682
11890TIP3    H186138   5.116   5.871   1.690
11890TIP3    H286139   5.112   5.720   1.684
11891TIP3   OH286140   4.623   5.998   1.588
11891TIP3    H186141   4.655   5.931   1.649
11891TIP3    H286142   4.623   6.079   1.639
11892TIP3   OH286143   4.048   5.812   2.915
11892TIP3    H186144   3.999   5.741   2.956
11892TIP3    H286145   4.138   5.801   2.948
11893TIP3   OH286146   4.276   5.744   3.053
11893TIP3    H186147   4.322   5.701   2.981
11893TIP3    H286148   4.245   5.673   3.108
11894TIP3   OH286149   5.098   5.706   3.076
11894TIP3    H186150   5.080   5.659   3.157
11894TIP3    H286151   5.191   5.692   3.060
11895TIP3   OH286152   5.734   6.369   1.857
11895TIP3    H186153   5.690   6.453   1.853
11895TIP3    H286154   5.697   6.319   1.784
11896TIP3   OH286155   5.814   6.586   2.117
11896TIP3    H186156   5.818   6.490   2.123
11896TIP3    H286157   5.849   6.606   2.030
11897TIP3   OH286158   5.832   6.309   2.107
11897TIP3    H186159   5.886   6.231   2.102
11897TIP3    H286160   5.795   6.319   2.019
11898TIP3   OH286161   5.752   6.968   1.696
11898TIP3    H186162   5.796   6.992   1.615
11898TIP3    H286163   5.785   7.031   1.760
11899TIP3   OH286164   6.460   5.670   2.260
11899TIP3    H186165   6.427   5.581   2.264
11899TIP3    H286166   6.386   5.725   2.288
11900TIP3   OH286167   6.980   6.418   2.804
11900TIP3    H186168   6.896   6.410   2.849
11900TIP3    H286169   6.957   6.438   2.713
11901TIP3   OH286170   6.302   7.005   2.826
11901TIP3    H186171   6.250   7.080   2.857
11901TIP3    H286172   6.239   6.948   2.782
11902TIP3   OH286173   6.884   6.588   1.561
11902TIP3    H186174   6.922   6.675   1.567
11902TIP3    H286175   6.804   6.600   1.511
11903TIP3   OH286176   6.156   7.228   2.889
11903TIP3    H186177   6.161   7.258   2.798
11903TIP3    H286178   6.062   7.230   2.910
11904TIP3   OH286179   5.742   6.816   2.639
11904TIP3    H186180   5.682   6.805   2.566
11904TIP3    H286181   5.760   6.726   2.669
11905TIP3   OH286182   5.732   7.102   2.324
11905TIP3    H186183   5.807   7.069   2.275
11905TIP3    H286184   5.769   7.144   2.401
11906TIP3   OH286185   6.545   7.124   2.753
11906TIP3    H186186   6.556   7.207   2.800
11906TIP3    H286187   6.460   7.091   2.782
11907TIP3   OH286188   6.076   7.327   1.944
11907TIP3    H186189   6.075   7.313   2.038
11907TIP3    H286190   5.999   7.278   1.912
11908TIP3   OH286191   7.208   6.322   2.956
11908TIP3    H186192   7.132   6.344   2.902
11908TIP3    H286193   7.197   6.229   2.978
11909TIP3   OH286194   5.955   6.980   2.691
11909TIP3    H186195   5.983   6.958   2.779
11909TIP3    H286196   5.879   6.924   2.675
11910TIP3   OH286197   6.220   5.790   2.347
11910TIP3    H186198   6.140   5.797   2.295
11910TIP3    H286199   6.236   5.879   2.379
11911TIP3   OH286200   6.701   5.767   2.678
11911TIP3    H186201   6.749   5.727   2.750
11911TIP3    H286202   6.609   5.764   2.704
11912TIP3   OH286203   6.999   6.142   2.729
11912TIP3    H186204   6.942   6.118   2.802
11912TIP3    H286205   7.003   6.237   2.732
11913TIP3   OH286206   6.766   6.378   1.701
11913TIP3    H186207   6.734   6.426   1.778
11913TIP3    H286208   6.820   6.441   1.653
11914TIP3   OH286209   6.745   6.381   2.954
11914TIP3    H186210   6.673   6.322   2.975
11914TIP3    H286211   6.813   6.362   3.019
11915TIP3   OH286212   5.684   6.023   2.088
11915TIP3    H186213   5.741   6.034   2.164
11915TIP3    H286214   5.741   6.043   2.013
11916TIP3   OH286215   5.730   6.111   1.562
11916TIP3    H186216   5.817   6.145   1.538
11916TIP3    H286217   5.671   6.186   1.551
11917TIP3   OH286218   6.876   6.431   2.553
11917TIP3    H186219   6.887   6.408   2.460
11917TIP3    H286220   6.795   6.388   2.579
11918TIP3   OH286221   7.239   7.551   3.015
11918TIP3    H186222   7.265   7.582   2.927
11918TIP3    H286223   7.318   7.562   3.068
11919TIP3   OH286224   6.002   6.919   2.958
11919TIP3    H186225   6.075   6.888   3.012
11919TIP3    H286226   5.925   6.877   2.995
11920TIP3   OH286227   7.267   6.842   2.433
11920TIP3    H186228   7.327   6.888   2.374
11920TIP3    H286229   7.201   6.803   2.375
11921TIP3   OH286230   6.668   6.893   2.852
11921TIP3    H186231   6.745   6.925   2.898
11921TIP3    H286232   6.636   6.968   2.802
11922TIP3   OH286233   5.795   6.571   2.750
11922TIP3    H186234   5.839   6.556   2.834
11922TIP3    H286235   5.717   6.515   2.753
11923TIP3   OH286236   6.312   7.122   1.919
11923TIP3    H186237   6.313   7.211   1.883
11923TIP3    H286238   6.223   7.112   1.953
11924TIP3   OH286239   6.362   6.844   1.938
11924TIP3    H186240   6.356   6.940   1.931
11924TIP3    H286241   6.366   6.827   2.033
11925TIP3   OH286242   6.478   7.277   2.525
11925TIP3    H186243   6.552   7.336   2.511
11925TIP3    H286244   6.512   7.208   2.581
11926TIP3   OH286245   6.315   7.383   1.827
11926TIP3    H186246   6.227   7.387   1.864
11926TIP3    H286247   6.360   7.458   1.866
11927TIP3   OH286248   5.876   6.054   2.588
11927TIP3    H186249   5.798   6.099   2.621
11927TIP3    H286250   5.891   5.984   2.651
11928TIP3   OH286251   5.890   7.196   2.531
11928TIP3    H186252   5.909   7.121   2.588
11928TIP3    H286253   5.953   7.263   2.558
11929TIP3   OH286254   6.334   7.048   1.480
11929TIP3    H186255   6.372   7.008   1.557
11929TIP3    H286256   6.332   7.142   1.499
11930TIP3   OH286257   6.767   6.032   2.606
11930TIP3    H186258   6.857   6.047   2.633
11930TIP3    H286259   6.751   5.939   2.626
11931TIP3   OH286260   6.826   6.017   1.747
11931TIP3    H186261   6.794   6.077   1.679
11931TIP3    H286262   6.882   6.071   1.802
11932TIP3   OH286263   6.677   6.282   2.668
11932TIP3    H186264   6.691   6.282   2.763
11932TIP3    H286265   6.695   6.192   2.641
11933TIP3   OH286266   6.677   5.800   1.854
11933TIP3    H186267   6.671   5.832   1.944
11933TIP3    H286268   6.727   5.867   1.808
11934TIP3   OH286269   6.333   7.305   1.561
11934TIP3    H186270   6.364   7.384   1.516
11934TIP3    H286271   6.330   7.331   1.654
11935TIP3   OH286272   6.061   7.045   1.406
11935TIP3    H186273   6.154   7.047   1.431
11935TIP3    H286274   6.041   6.952   1.398
11936TIP3   OH286275   5.975   5.807   2.215
11936TIP3    H186276   5.964   5.802   2.120
11936TIP3    H286277   5.937   5.725   2.248
11937TIP3   OH286278   5.846   7.189   1.853
11937TIP3    H186279   5.793   7.220   1.927
11937TIP3    H286280   5.818   7.242   1.779
11938TIP3   OH286281   5.846   7.470   3.011
11938TIP3    H186282   5.904   7.464   3.087
11938TIP3    H286283   5.836   7.380   2.981
11939TIP3   OH286284   6.244   7.277   3.150
11939TIP3    H186285   6.318   7.220   3.170
11939TIP3    H286286   6.223   7.260   3.059
11940TIP3   OH286287   6.875   7.167   3.091
11940TIP3    H186288   6.870   7.075   3.115
11940TIP3    H286289   6.961   7.195   3.122
11941TIP3   OH286290   5.768   6.825   3.070
11941TIP3    H186291   5.753   6.736   3.102
11941TIP3    H286292   5.696   6.842   3.010
11942TIP3   OH286293   6.442   6.873   3.021
11942TIP3    H186294   6.399   6.916   2.947
11942TIP3    H286295   6.528   6.847   2.987
11943TIP3   OH286296   5.923   6.524   2.984
11943TIP3    H186297   6.015   6.500   2.996
11943TIP3    H286298   5.886   6.525   3.073
11944TIP3   OH286299   6.740   6.666   3.092
11944TIP3    H186300   6.734   6.615   3.012
11944TIP3    H286301   6.731   6.602   3.162
11945TIP3   OH286302   6.316   6.213   2.880
11945TIP3    H186303   6.306   6.158   2.802
11945TIP3    H286304   6.303   6.303   2.848
11946TIP3   OH286305   6.934   6.329   3.146
11946TIP3    H186306   6.928   6.245   3.192
11946TIP3    H286307   7.028   6.349   3.144
11947TIP3   OH286308   7.054   6.648   2.948
11947TIP3    H186309   7.011   6.714   2.893
11947TIP3    H286310   7.045   6.567   2.899
11948TIP3   OH286311   6.148   6.243   3.101
11948TIP3    H186312   6.065   6.197   3.084
11948TIP3    H286313   6.195   6.238   3.018
11949TIP3   OH286314   6.411   5.762   2.660
11949TIP3    H186315   6.414   5.831   2.594
11949TIP3    H286316   6.338   5.707   2.633
11950TIP3   OH286317   6.557   6.187   3.023
11950TIP3    H186318   6.526   6.143   3.103
11950TIP3    H286319   6.479   6.190   2.967
11951TIP3   OH286320   6.826   6.086   2.931
11951TIP3    H186321   6.740   6.096   2.972
11951TIP3    H286322   6.877   6.035   2.995
11952TIP3   OH286323   6.994   5.950   3.108
11952TIP3    H186324   6.979   5.857   3.120
11952TIP3    H286325   6.960   5.990   3.188
11953TIP3   OH286326   5.946   6.052   3.022
11953TIP3    H186327   5.946   5.975   2.965
11953TIP3    H286328   5.961   6.016   3.110
11954TIP3   OH286329   6.411   5.697   2.932
11954TIP3    H186330   6.467   5.620   2.926
11954TIP3    H286331   6.404   5.728   2.841
11955TIP3   OH286332   6.474   5.836   3.169
11955TIP3    H186333   6.458   5.789   3.087
11955TIP3    H286334   6.425   5.917   3.161
11956TIP3   OH286335   6.441   7.534   1.435
11956TIP3    H186336   6.485   7.570   1.512
11956TIP3    H286337   6.435   7.608   1.375
11957TIP3   OH286338   5.583   7.438   1.893
11957TIP3    H186339   5.556   7.372   1.829
11957TIP3    H286340   5.629   7.388   1.961
11958TIP3   OH286341   5.725   7.292   2.086
11958TIP3    H186342   5.683   7.238   2.152
11958TIP3    H286343   5.775   7.357   2.135
11959TIP3   OH286344   7.321   6.932   3.190
11959TIP3    H186345   7.235   6.941   3.229
11959TIP3    H286346   7.362   7.018   3.201
11960TIP3   OH286347   5.743   6.713   2.351
11960TIP3    H186348   5.761   6.670   2.267
11960TIP3    H286349   5.824   6.758   2.374
11961TIP3   OH286350   7.472   6.369   2.891
11961TIP3    H186351   7.379   6.360   2.913
11961TIP3    H286352   7.510   6.283   2.909
11962TIP3   OH286353   5.727   6.173   2.906
11962TIP3    H186354   5.812   6.148   2.943
11962TIP3    H286355   5.672   6.096   2.916
11963TIP3   OH286356   7.534   5.849   3.046
11963TIP3    H186357   7.583   5.767   3.040
11963TIP3    H286358   7.465   5.841   2.980
11964TIP3   OH286359   5.852   6.037   2.310
11964TIP3    H186360   5.903   5.961   2.280
11964TIP3    H286361   5.874   6.046   2.403
11965TIP3   OH286362   5.616   6.287   2.299
11965TIP3    H186363   5.686   6.282   2.233
11965TIP3    H286364   5.657   6.329   2.374
11966TIP3   OH286365   5.735   5.958   1.787
11966TIP3    H186366   5.649   5.918   1.798
11966TIP3    H286367   5.727   6.014   1.710
11967TIP3   OH286368   7.111   7.521   1.875
11967TIP3    H186369   7.175   7.464   1.831
11967TIP3    H286370   7.165   7.580   1.928
11968TIP3   OH286371   5.692   5.790   2.580
11968TIP3    H186372   5.621   5.778   2.643
11968TIP3    H286373   5.661   5.859   2.521
11969TIP3   OH286374   5.894   7.182   2.982
11969TIP3    H186375   5.925   7.095   2.955
11969TIP3    H286376   5.855   7.168   3.068
11970TIP3   OH286377   6.204   7.295   2.621
11970TIP3    H186378   6.191   7.387   2.600
11970TIP3    H286379   6.295   7.278   2.594
11971TIP3   OH286380   6.586   7.367   2.891
11971TIP3    H186381   6.598   7.338   2.981
11971TIP3    H286382   6.669   7.411   2.869
11972TIP3   OH286383   6.823   7.504   2.855
11972TIP3    H186384   6.880   7.454   2.796
11972TIP3    H286385   6.878   7.522   2.932
11973TIP3   OH286386   6.147   7.561   2.572
11973TIP3    H186387   6.095   7.599   2.643
11973TIP3    H286388   6.098   7.581   2.493
11974TIP3   OH286389   6.678   7.469   2.466
11974TIP3    H186390   6.635   7.510   2.391
11974TIP3    H286391   6.685   7.539   2.531
11975TIP3   OH286392   6.909   7.387   2.605
11975TIP3    H186393   6.830   7.399   2.552
11975TIP3    H286394   6.976   7.439   2.560
11976TIP3   OH286395   7.105   7.534   2.475
11976TIP3    H186396   7.112   7.622   2.513
11976TIP3    H286397   7.119   7.548   2.382
11977TIP3   OH286398   6.117   7.273   2.212
11977TIP3    H186399   6.087   7.248   2.299
11977TIP3    H286400   6.207   7.303   2.225
11978TIP3   OH286401   6.387   7.328   2.269
11978TIP3    H186402   6.438   7.266   2.217
11978TIP3    H286403   6.411   7.308   2.360
11979TIP3   OH286404   6.636   5.849   2.133
11979TIP3    H186405   6.587   5.786   2.185
11979TIP3    H286406   6.727   5.817   2.136
11980TIP3   OH286407   5.926   5.751   1.946
11980TIP3    H186408   5.833   5.741   1.924
11980TIP3    H286409   5.959   5.661   1.947
11981TIP3   OH286410   5.836   5.792   1.581
11981TIP3    H186411   5.929   5.809   1.571
11981TIP3    H286412   5.811   5.838   1.661
11982TIP3   OH286413   6.428   5.671   1.964
11982TIP3    H186414   6.501   5.713   1.918
11982TIP3    H286415   6.445   5.686   2.057
11983TIP3   OH286416   6.882   5.733   2.102
11983TIP3    H186417   6.930   5.728   2.020
11983TIP3    H286418   6.896   5.648   2.144
11984TIP3   OH286419   5.761   7.328   1.632
11984TIP3    H186420   5.750   7.290   1.545
11984TIP3    H286421   5.739   7.420   1.621
11985TIP3   OH286422   7.287   7.407   1.679
11985TIP3    H186423   7.267   7.319   1.646
11985TIP3    H286424   7.281   7.463   1.601
11986TIP3   OH286425   5.947   5.801   2.888
11986TIP3    H186426   5.887   5.739   2.929
11986TIP3    H286427   6.031   5.788   2.933
11987TIP3   OH286428   6.162   5.745   3.051
11987TIP3    H186429   6.247   5.719   3.017
11987TIP3    H286430   6.129   5.667   3.095
11988TIP3   OH286431   5.947   7.302   1.400
11988TIP3    H186432   5.975   7.330   1.487
11988TIP3    H286433   5.987   7.216   1.388
11989TIP3   OH286434   6.998   5.670   3.119
11989TIP3    H186435   6.967   5.625   3.197
11989TIP3    H286436   7.094   5.668   3.127
11990TIP3   OH286437   7.897   6.535   2.483
11990TIP3    H186438   7.891   6.443   2.508
11990TIP3    H286439   7.968   6.538   2.419
11991TIP3   OH286440   7.954   6.974   2.288
11991TIP3    H186441   7.938   6.886   2.252
11991TIP3    H286442   7.961   6.960   2.382
11992TIP3   OH286443   8.005   6.092   2.110
11992TIP3    H186444   8.099   6.092   2.090
11992TIP3    H286445   7.965   6.048   2.035
11993TIP3   OH286446   7.732   6.448   2.205
11993TIP3    H186447   7.786   6.380   2.246
11993TIP3    H286448   7.683   6.401   2.138
11994TIP3   OH286449   7.931   6.025   2.499
11994TIP3    H186450   7.912   6.107   2.453
11994TIP3    H286451   7.873   6.027   2.576
11995TIP3   OH286452   7.910   6.242   2.310
11995TIP3    H186453   7.993   6.272   2.346
11995TIP3    H286454   7.936   6.191   2.232
11996TIP3   OH286455   8.013   6.959   2.562
11996TIP3    H186456   8.068   7.031   2.594
11996TIP3    H286457   7.935   6.962   2.617
11997TIP3   OH286458   7.744   6.959   1.680
11997TIP3    H186459   7.715   6.983   1.592
11997TIP3    H286460   7.663   6.935   1.726
11998TIP3   OH286461   8.068   6.593   1.996
11998TIP3    H186462   8.035   6.614   1.908
11998TIP3    H286463   8.103   6.505   1.989
11999TIP3   OH286464   7.895   6.637   2.738
11999TIP3    H186465   7.987   6.622   2.763
11999TIP3    H286466   7.891   6.616   2.645
12000TIP3   OH286467   8.086   7.182   2.930
12000TIP3    H186468   8.097   7.169   2.836
12000TIP3    H286469   7.992   7.194   2.943
12001TIP3   OH286470   7.976   6.590   1.737
12001TIP3    H186471   7.950   6.639   1.659
12001TIP3    H286472   7.929   6.507   1.730
12002TIP3   OH286473   7.624   6.824   2.629
12002TIP3    H186474   7.640   6.788   2.542
12002TIP3    H286475   7.566   6.761   2.671
12003TIP3   OH286476   7.960   7.385   1.951
12003TIP3    H186477   7.965   7.348   2.039
12003TIP3    H286478   7.901   7.327   1.903
12004TIP3   OH286479   7.809   6.985   2.750
12004TIP3    H186480   7.829   6.925   2.822
12004TIP3    H286481   7.738   6.942   2.703
12005TIP3   OH286482   8.094   5.863   2.349
12005TIP3    H186483   8.027   5.846   2.283
12005TIP3    H286484   8.050   5.917   2.415
12006TIP3   OH286485   8.133   6.366   2.628
12006TIP3    H186486   8.044   6.331   2.640
12006TIP3    H286487   0.018   6.330   2.545
12007TIP3   OH286488   8.120   6.330   1.907
12007TIP3    H186489   8.028   6.304   1.900
12007TIP3    H286490   0.019   6.255   1.948
12008TIP3   OH286491   7.864   6.303   2.652
12008TIP3    H186492   7.823   6.360   2.717
12008TIP3    H286493   7.830   6.216   2.671
12009TIP3   OH286494   7.858   6.250   1.861
12009TIP3    H186495   7.772   6.268   1.898
12009TIP3    H286496   7.865   6.154   1.861
12010TIP3   OH286497   8.123   6.248   1.427
12010TIP3    H186498   8.033   6.280   1.428
12010TIP3    H286499   0.022   6.295   1.498
12011TIP3   OH286500   7.834   6.842   2.986
12011TIP3    H186501   7.912   6.826   3.039
12011TIP3    H286502   7.775   6.890   3.043
12012TIP3   OH286503   7.920   5.976   1.878
12012TIP3    H186504   7.887   5.887   1.891
12012TIP3    H286505   8.004   5.965   1.834
12013TIP3   OH286506   7.919   6.710   2.198
12013TIP3    H186507   7.983   6.679   2.134
12013TIP3    H286508   7.851   6.643   2.200
12014TIP3   OH286509   7.565   6.567   2.734
12014TIP3    H186510   7.523   6.501   2.789
12014TIP3    H286511   7.540   6.544   2.645
12015TIP3   OH286512   7.758   6.053   2.722
12015TIP3    H186513   7.685   6.083   2.777
12015TIP3    H286514   7.787   5.971   2.762
12016TIP3   OH286515   7.899   6.765   1.533
12016TIP3    H186516   7.837   6.807   1.593
12016TIP3    H286517   7.961   6.835   1.510
12017TIP3   OH286518   8.132   5.961   1.456
12017TIP3    H186519   0.005   6.054   1.470
12017TIP3    H286520   0.075   5.922   1.449
12018TIP3   OH286521   8.007   7.021   1.442
12018TIP3    H186522   8.013   7.075   1.521
12018TIP3    H286523   8.098   6.998   1.422
12019TIP3   OH286524   7.867   5.784   2.201
12019TIP3    H186525   7.856   5.764   2.108
12019TIP3    H286526   7.857   5.699   2.245
12020TIP3   OH286527   7.770   7.208   1.841
12020TIP3    H186528   7.715   7.246   1.771
12020TIP3    H286529   7.786   7.118   1.812
12021TIP3   OH286530   7.709   7.435   3.021
12021TIP3    H186531   7.764   7.438   3.099
12021TIP3    H286532   7.727   7.349   2.983
12022TIP3   OH286533   7.546   6.767   3.000
12022TIP3    H186534   7.494   6.712   3.059
12022TIP3    H286535   7.498   6.850   2.997
12023TIP3   OH286536   7.817   6.504   3.024
12023TIP3    H186537   7.885   6.436   3.022
12023TIP3    H286538   7.798   6.515   3.117
12024TIP3   OH286539   8.001   6.288   3.031
12024TIP3    H186540   7.938   6.217   3.038
12024TIP3    H286541   8.077   6.248   2.989
12025TIP3   OH286542   7.833   6.065   3.050
12025TIP3    H186543   7.829   5.992   2.989
12025TIP3    H286544   7.857   6.025   3.134
12026TIP3   OH286545   7.730   6.983   1.403
12026TIP3    H186546   7.824   6.999   1.412
12026TIP3    H286547   7.719   6.959   1.311
12027TIP3   OH286548   7.435   7.510   1.891
12027TIP3    H186549   7.400   7.464   1.814
12027TIP3    H286550   7.489   7.445   1.935
12028TIP3   OH286551   7.638   7.376   2.024
12028TIP3    H186552   7.683   7.305   1.977
12028TIP3    H286553   7.670   7.370   2.113
12029TIP3   OH286554   7.663   6.660   2.410
12029TIP3    H186555   7.638   6.612   2.331
12029TIP3    H286556   7.748   6.624   2.434
12030TIP3   OH286557   7.585   6.118   2.935
12030TIP3    H186558   7.664   6.116   2.989
12030TIP3    H286559   7.532   6.045   2.968
12031TIP3   OH286560   7.719   6.022   2.227
12031TIP3    H186561   7.776   5.946   2.218
12031TIP3    H286562   7.777   6.093   2.254
12032TIP3   OH286563   7.799   7.178   2.952
12032TIP3    H186564   7.792   7.122   2.875
12032TIP3    H286565   7.768   7.123   3.024
12033TIP3   OH286566   0.014   7.167   2.659
12033TIP3    H186567   8.101   7.238   2.631
12033TIP3    H286568   0.102   7.202   2.652
12034TIP3   OH286569   7.708   7.384   2.660
12034TIP3    H186570   7.654   7.456   2.628
12034TIP3    H286571   7.676   7.367   2.749
12035TIP3   OH286572   7.979   7.359   2.603
12035TIP3    H186573   7.889   7.345   2.631
12035TIP3    H286574   7.973   7.429   2.538
12036TIP3   OH286575   7.754   7.389   2.278
12036TIP3    H186576   7.693   7.346   2.338
12036TIP3    H286577   7.823   7.324   2.264
12037TIP3   OH286578   7.964   7.234   2.196
12037TIP3    H186579   7.945   7.141   2.210
12037TIP3    H286580   8.047   7.249   2.243
12038TIP3   OH286581   7.826   5.718   1.934
12038TIP3    H186582   7.737   5.696   1.907
12038TIP3    H286583   7.875   5.637   1.919
12039TIP3   OH286584   7.624   7.321   1.639
12039TIP3    H186585   7.555   7.334   1.574
12039TIP3    H286586   7.679   7.399   1.632
12040TIP3   OH286587   7.883   5.976   1.337
12040TIP3    H186588   7.827   5.901   1.358
12040TIP3    H286589   7.962   5.961   1.389
12041TIP3   OH286590   7.827   5.834   2.880
12041TIP3    H186591   7.756   5.772   2.896
12041TIP3    H286592   7.901   5.799   2.929
12042TIP3   OH286593   8.007   5.729   3.059
12042TIP3    H186594   8.084   5.681   3.030
12042TIP3    H286595   7.955   5.664   3.106
12043TIP3   OH286596   7.899   7.237   1.257
12043TIP3    H186597   7.851   7.307   1.301
12043TIP3    H286598   7.935   7.184   1.328
12044TIP3   OH286599   0.546   7.994   2.026
12044TIP3    H186600   0.534   8.057   1.955
12044TIP3    H286601   0.641   7.983   2.033
12045TIP3   OH286602   1.200   7.900   2.156
12045TIP3    H186603   1.243   7.826   2.114
12045TIP3    H286604   1.219   7.975   2.100
12046TIP3   OH286605   1.869   8.102   2.683
12046TIP3    H186606   1.783   8.062   2.686
12046TIP3    H286607   1.896   8.106   2.775
12047TIP3   OH286608   0.491   7.926   2.489
12047TIP3    H186609   0.465   7.987   2.420
12047TIP3    H286610   0.434   7.948   2.563
12048TIP3   OH286611   1.509   7.801   2.211
12048TIP3    H186612   1.465   7.751   2.142
12048TIP3    H286613   1.448   7.798   2.285
12049TIP3   OH286614   0.439   8.081   2.266
12049TIP3    H186615   0.483   0.016   2.297
12049TIP3    H286616   0.488   8.055   2.189
12050TIP3   OH286617   1.556   7.791   2.533
12050TIP3    H186618   1.466   7.792   2.502
12050TIP3    H286619   1.601   7.857   2.480
12051TIP3   OH286620   0.813   7.565   2.255
12051TIP3    H186621   0.783   7.475   2.267
12051TIP3    H286622   0.746   7.619   2.297
12052TIP3   OH286623   1.701   7.614   1.542
12052TIP3    H186624   1.615   7.616   1.584
12052TIP3    H286625   1.685   7.648   1.454
12053TIP3   OH286626   0.606   7.709   2.362
12053TIP3    H186627   0.532   7.684   2.307
12053TIP3    H286628   0.577   7.790   2.405
12054TIP3   OH286629   1.051   7.626   2.683
12054TIP3    H186630   1.102   7.583   2.752
12054TIP3    H286631   0.960   7.619   2.713
12055TIP3   OH286632   1.397   8.107   2.819
12055TIP3    H186633   1.315   8.059   2.832
12055TIP3    H286634   1.406   0.018   2.897
12056TIP3   OH286635   1.005   7.825   1.474
12056TIP3    H186636   0.928   7.843   1.528
12056TIP3    H286637   0.975   7.758   1.412
12057TIP3   OH286638   0.210   8.036   1.958
12057TIP3    H186639   0.215   7.989   2.041
12057TIP3    H286640   0.163   7.977   1.900
12058TIP3   OH286641   0.277   8.046   1.533
12058TIP3    H186642   0.354   8.051   1.476
12058TIP3    H286643   0.235   8.132   1.523
12059TIP3   OH286644   0.822   7.995   2.034
12059TIP3    H186645   0.818   8.060   2.104
12059TIP3    H286646   0.870   7.921   2.073
12060TIP3   OH286647   0.428   8.007   1.762
12060TIP3    H186648   0.359   8.015   1.696
12060TIP3    H286649   0.498   8.064   1.730
12061TIP3   OH286650   0.611   0.026   1.639
12061TIP3    H186651   0.691   0.017   1.691
12061TIP3    H286652   0.601   0.121   1.628
12062TIP3   OH286653   1.301   7.808   2.401
12062TIP3    H186654   1.257   7.844   2.479
12062TIP3    H286655   1.257   7.851   2.327
12063TIP3   OH286656   0.582   7.745   1.829
12063TIP3    H186657   0.633   7.678   1.875
12063TIP3    H286658   0.640   7.777   1.760
12064TIP3   OH286659   0.821   8.094   2.450
12064TIP3    H186660   0.789   0.004   2.523
12064TIP3    H286661   0.916   8.090   2.463
12065TIP3   OH286662   1.284   7.846   1.487
12065TIP3    H186663   1.193   7.830   1.462
12065TIP3    H286664   1.292   7.941   1.489
12066TIP3   OH286665   0.349   7.996   2.721
12066TIP3    H186666   0.275   8.018   2.778
12066TIP3    H286667   0.424   7.989   2.781
12067TIP3   OH286668   1.149   7.876   2.627
12067TIP3    H186669   1.178   7.905   2.714
12067TIP3    H286670   1.118   7.787   2.642
12068TIP3   OH286671   1.107   7.907   1.732
12068TIP3    H186672   1.099   7.892   1.638
12068TIP3    H286673   1.202   7.911   1.747
12069TIP3   OH286674   0.838   8.096   1.780
12069TIP3    H186675   0.898   0.026   1.783
12069TIP3    H286676   0.832   8.065   1.870
12070TIP3   OH286677   0.920   8.026   2.724
12070TIP3    H186678   0.955   8.114   2.709
12070TIP3    H286679   0.995   7.968   2.708
12071TIP3   OH286680   0.960   7.717   1.856
12071TIP3    H186681   0.965   7.735   1.950
12071TIP3    H286682   1.019   7.781   1.816
12072TIP3   OH286683   0.600   7.940   1.482
12072TIP3    H186684   0.601   8.026   1.524
12072TIP3    H286685   0.665   7.889   1.530
12073TIP3   OH286686   1.626   7.971   2.734
12073TIP3    H186687   1.547   8.019   2.761
12073TIP3    H286688   1.594   7.906   2.671
12074TIP3   OH286689   0.398   7.613   2.221
12074TIP3    H186690   0.380   7.593   2.129
12074TIP3    H286691   0.350   7.546   2.270
12075TIP3   OH286692   0.577   7.982   2.879
12075TIP3    H186693   0.614   7.921   2.816
12075TIP3    H286694   0.646   8.048   2.891
12076TIP3   OH286695   0.703   7.872   2.663
12076TIP3    H186696   0.778   7.932   2.669
12076TIP3    H286697   0.654   7.903   2.587
12077TIP3   OH286698   0.775   7.615   2.703
12077TIP3    H186699   0.754   7.707   2.688
12077TIP3    H286700   0.707   7.567   2.656
12078TIP3   OH286701   0.935   8.016   3.067
12078TIP3    H186702   0.980   8.005   3.151
12078TIP3    H286703   0.843   7.997   3.086
12079TIP3   OH286704   1.168   7.959   2.891
12079TIP3    H186705   1.088   7.983   2.939
12079TIP3    H286706   1.222   7.915   2.955
12080TIP3   OH286707   1.327   7.836   3.080
12080TIP3    H186708   1.320   7.742   3.093
12080TIP3    H286709   1.299   7.875   3.163
12081TIP3   OH286710   0.278   7.937   3.021
12081TIP3    H186711   0.285   7.854   2.974
12081TIP3    H286712   0.305   7.917   3.110
12082TIP3   OH286713   0.765   7.554   2.968
12082TIP3    H186714   0.823   7.477   2.964
12082TIP3    H286715   0.760   7.585   2.878
12083TIP3   OH286716   0.833   7.722   3.179
12083TIP3    H186717   0.821   7.664   3.104
12083TIP3    H286718   0.779   7.799   3.158
12084TIP3   OH286719   1.503   7.935   1.333
12084TIP3    H186720   1.592   7.923   1.366
12084TIP3    H286721   1.449   7.879   1.388
12085TIP3   OH286722   1.893   0.089   1.750
12085TIP3    H186723   1.815   0.074   1.803
12085TIP3    H286724   1.884   0.028   1.676
12086TIP3   OH286725   1.784   0.305   2.392
12086TIP3    H186726   1.848   0.335   2.328
12086TIP3    H286727   1.707   0.283   2.339
12087TIP3   OH286728   0.069   8.059   2.894
12087TIP3    H186729   0.129   8.007   2.948
12087TIP3    H286730   0.006   7.996   2.859
12088TIP3   OH286731   1.843   7.646   3.085
12088TIP3    H186732   1.932   7.612   3.093
12088TIP3    H286733   1.850   7.721   3.027
12089TIP3   OH286734   1.503   7.692   1.878
12089TIP3    H186735   1.596   7.678   1.894
12089TIP3    H286736   1.490   7.663   1.787
12090TIP3   OH286737   0.304   7.865   2.152
12090TIP3    H186738   0.321   7.784   2.201
12090TIP3    H286739   0.341   7.934   2.207
12091TIP3   OH286740   1.782   7.881   2.943
12091TIP3    H186741   1.720   7.904   3.012
12091TIP3    H286742   1.735   7.899   2.861
12092TIP3   OH286743   1.762   7.865   1.430
12092TIP3    H186744   1.768   7.816   1.512
12092TIP3    H286745   1.840   7.919   1.428
12093TIP3   OH286746   0.155   7.790   1.838
12093TIP3    H186747   0.125   7.700   1.852
12093TIP3    H286748   0.138   7.807   1.746
12094TIP3   OH286749   0.054   7.478   2.728
12094TIP3    H186750   0.024   7.530   2.802
12094TIP3    H286751   8.119   7.437   2.693
12095TIP3   OH286752   0.957   7.769   2.122
12095TIP3    H186753   0.929   7.702   2.185
12095TIP3    H286754   1.039   7.803   2.159
12096TIP3   OH286755   1.766   7.633   1.921
12096TIP3    H186756   1.832   7.570   1.892
12096TIP3    H286757   1.816   7.703   1.962
12097TIP3   OH286758   0.337   7.596   1.955
12097TIP3    H186759   0.244   7.577   1.937
12097TIP3    H286760   0.383   7.517   1.927
12098TIP3   OH286761   0.241   7.595   1.580
12098TIP3    H186762   0.320   7.634   1.543
12098TIP3    H286763   0.178   7.666   1.582
12099TIP3   OH286764   0.746   7.569   1.967
12099TIP3    H186765   0.826   7.607   1.932
12099TIP3    H286766   0.761   7.564   2.062
12100TIP3   OH286767   1.302   7.663   2.066
12100TIP3    H186768   1.361   7.643   1.994
12100TIP3    H286769   1.272   7.578   2.097
12101TIP3   OH286770   1.438   7.648   1.615
12101TIP3    H186771   1.379   7.708   1.571
12101TIP3    H286772   1.384   7.572   1.637
12102TIP3   OH286773   0.411   7.743   1.428
12102TIP3    H186774   0.346   7.790   1.375
12102TIP3    H286775   0.479   7.807   1.447
12103TIP3   OH286776   0.797   7.851   1.667
12103TIP3    H186777   0.847   7.794   1.725
12103TIP3    H286778   0.813   7.939   1.700
12104TIP3   OH286779   0.308   7.681   2.926
12104TIP3    H186780   0.241   7.623   2.962
12104TIP3    H286781   0.387   7.660   2.974
12105TIP3   OH286782   0.519   7.612   3.087
12105TIP3    H186783   0.603   7.584   3.052
12105TIP3    H286784   0.485   7.536   3.133
12106TIP3   OH286785   1.336   7.562   3.102
12106TIP3    H186786   1.326   7.518   3.187
12106TIP3    H286787   1.428   7.553   3.080
12107TIP3   OH286788   2.443   7.964   2.070
12107TIP3    H186789   2.538   7.962   2.066
12107TIP3    H286790   2.414   7.908   1.998
12108TIP3   OH286791   3.234   7.983   1.922
12108TIP3    H186792   3.276   7.964   2.006
12108TIP3    H286793   3.302   8.026   1.870
12109TIP3   OH286794   3.672   8.105   2.686
12109TIP3    H186795   3.713   8.073   2.605
12109TIP3    H286796   3.734   8.082   2.755
12110TIP3   OH286797   2.321   7.893   2.497
12110TIP3    H186798   2.308   7.956   2.426
12110TIP3    H286799   2.245   7.905   2.554
12111TIP3   OH286800   3.334   7.939   2.176
12111TIP3    H186801   3.255   7.941   2.230
12111TIP3    H286802   3.396   7.995   2.223
12112TIP3   OH286803   2.300   8.056   2.278
12112TIP3    H186804   2.347   8.136   2.303
12112TIP3    H286805   2.351   8.021   2.205
12113TIP3   OH286806   2.712   7.616   2.286
12113TIP3    H186807   2.684   7.540   2.234
12113TIP3    H286808   2.630   7.658   2.312
12114TIP3   OH286809   2.441   7.692   2.346
12114TIP3    H186810   2.363   7.661   2.301
12114TIP3    H286811   2.411   7.768   2.396
12115TIP3   OH286812   2.929   7.672   2.669
12115TIP3    H186813   2.971   7.627   2.742
12115TIP3    H286814   2.835   7.662   2.685
12116TIP3   OH286815   3.214   8.062   2.744
12116TIP3    H186816   3.156   8.043   2.817
12116TIP3    H286817   3.209   0.013   2.733
12117TIP3   OH286818   2.905   7.934   1.386
12117TIP3    H186819   2.834   7.904   1.442
12117TIP3    H286820   2.877   7.913   1.297
12118TIP3   OH286821   2.543   7.925   1.225
12118TIP3    H186822   2.517   7.921   1.317
12118TIP3    H286823   2.560   8.018   1.209
12119TIP3   OH286824   1.923   7.838   2.006
12119TIP3    H186825   1.973   7.849   2.087
12119TIP3    H286826   1.958   7.904   1.947
12120TIP3   OH286827   2.023   7.959   1.473
12120TIP3    H186828   2.106   7.917   1.449
12120TIP3    H286829   2.043   8.052   1.477
12121TIP3   OH286830   2.724   7.948   2.082
12121TIP3    H186831   2.711   8.031   2.129
12121TIP3    H286832   2.794   7.905   2.130
12122TIP3   OH286833   2.213   8.029   1.838
12122TIP3    H186834   2.134   7.986   1.805
12122TIP3    H286835   2.276   7.958   1.847
12123TIP3   OH286836   2.525   0.052   1.643
12123TIP3    H186837   2.618   0.056   1.666
12123TIP3    H286838   2.481   0.033   1.727
12124TIP3   OH286839   3.095   7.961   2.321
12124TIP3    H186840   3.071   7.952   2.413
12124TIP3    H286841   3.033   7.906   2.274
12125TIP3   OH286842   2.375   7.801   1.853
12125TIP3    H186843   2.326   7.736   1.803
12125TIP3    H286844   2.460   7.761   1.867
12126TIP3   OH286845   2.695   8.098   2.487
12126TIP3    H186846   2.635   0.003   2.543
12126TIP3    H286847   2.779   8.142   2.498
12127TIP3   OH286848   3.134   7.957   1.533
12127TIP3    H186849   3.057   7.955   1.477
12127TIP3    H286850   3.185   8.032   1.502
12128TIP3   OH286851   2.103   7.948   2.656
12128TIP3    H186852   2.023   7.997   2.639
12128TIP3    H286853   2.116   7.954   2.751
12129TIP3   OH286854   3.018   7.924   2.585
12129TIP3    H186855   3.095   7.945   2.638
12129TIP3    H286856   2.991   7.838   2.615
12130TIP3   OH286857   3.060   7.846   1.769
12130TIP3    H186858   3.086   7.876   1.682
12130TIP3    H286859   3.122   7.887   1.829
12131TIP3   OH286860   2.812   7.947   1.818
12131TIP3    H186861   2.902   7.914   1.814
12131TIP3    H286862   2.787   7.938   1.910
12132TIP3   OH286863   2.874   8.114   2.740
12132TIP3    H186864   2.926   8.084   2.814
12132TIP3    H286865   2.901   8.059   2.667
12133TIP3   OH286866   2.902   7.653   1.879
12133TIP3    H186867   2.958   7.631   1.953
12133TIP3    H286868   2.952   7.716   1.827
12134TIP3   OH286869   2.488   7.956   1.492
12134TIP3    H186870   2.488   8.040   1.538
12134TIP3    H286871   2.563   7.909   1.527
12135TIP3   OH286872   3.450   7.929   2.705
12135TIP3    H186873   3.366   7.972   2.721
12135TIP3    H286874   3.515   7.999   2.717
12136TIP3   OH286875   2.190   7.603   2.275
12136TIP3    H186876   2.120   7.661   2.245
12136TIP3    H286877   2.149   7.516   2.279
12137TIP3   OH286878   2.466   7.980   2.884
12137TIP3    H186879   2.492   7.935   2.803
12137TIP3    H286880   2.531   8.050   2.894
12138TIP3   OH286881   2.559   7.893   2.633
12138TIP3    H186882   2.617   7.951   2.583
12138TIP3    H286883   2.477   7.893   2.583
12139TIP3   OH286884   2.652   7.643   2.693
12139TIP3    H186885   2.621   7.731   2.673
12139TIP3    H286886   2.592   7.585   2.645
12140TIP3   OH286887   2.808   8.019   3.095
12140TIP3    H186888   2.852   8.007   3.179
12140TIP3    H286889   2.718   7.992   3.111
12141TIP3   OH286890   3.033   7.989   2.934
12141TIP3    H186891   2.957   7.994   2.992
12141TIP3    H286892   3.097   7.937   2.983
12142TIP3   OH286893   3.227   7.853   3.086
12142TIP3    H186894   3.217   7.758   3.089
12142TIP3    H286895   3.197   7.883   3.172
12143TIP3   OH286896   2.221   7.977   3.013
12143TIP3    H186897   2.299   7.953   2.963
12143TIP3    H286898   2.221   7.917   3.087
12144TIP3   OH286899   2.651   7.566   2.955
12144TIP3    H186900   2.698   7.483   2.945
12144TIP3    H286901   2.648   7.602   2.866
12145TIP3   OH286902   2.717   7.719   3.180
12145TIP3    H186903   2.708   7.663   3.103
12145TIP3    H286904   2.658   7.793   3.163
12146TIP3   OH286905   3.431   8.116   1.744
12146TIP3    H186906   3.468   8.028   1.745
12146TIP3    H286907   3.455   0.009   1.828
12147TIP3   OH286908   3.501   8.142   2.280
12147TIP3    H186909   3.593   8.129   2.302
12147TIP3    H286910   3.469   0.061   2.344
12148TIP3   OH286911   1.974   8.074   2.942
12148TIP3    H186912   2.060   8.045   2.975
12148TIP3    H286913   1.917   7.999   2.955
12149TIP3   OH286914   3.735   7.612   3.087
12149TIP3    H186915   3.767   7.529   3.049
12149TIP3    H286916   3.729   7.671   3.012
12150TIP3   OH286917   3.526   7.862   1.769
12150TIP3    H186918   3.599   7.852   1.830
12150TIP3    H286919   3.480   7.778   1.772
12151TIP3   OH286920   2.084   7.892   2.223
12151TIP3    H186921   2.053   7.867   2.310
12151TIP3    H286922   2.161   7.947   2.239
12152TIP3   OH286923   3.672   7.796   2.895
12152TIP3    H186924   3.604   7.834   2.951
12152TIP3    H286925   3.623   7.746   2.829
12153TIP3   OH286926   1.983   7.916   1.741
12153TIP3    H186927   1.945   7.829   1.755
12153TIP3    H286928   1.997   7.921   1.647
12154TIP3   OH286929   2.916   7.785   2.195
12154TIP3    H186930   2.853   7.725   2.233
12154TIP3    H286931   2.982   7.728   2.154
12155TIP3   OH286932   2.628   7.714   1.930
12155TIP3    H186933   2.712   7.680   1.899
12155TIP3    H286934   2.651   7.777   1.998
12156TIP3   OH286935   3.090   7.601   2.071
12156TIP3    H186936   3.182   7.604   2.047
12156TIP3    H286937   3.079   7.517   2.114
12157TIP3   OH286938   3.347   7.635   1.724
12157TIP3    H186939   3.333   7.697   1.652
12157TIP3    H286940   3.284   7.565   1.709
12158TIP3   OH286941   2.719   7.835   1.579
12158TIP3    H186942   2.731   7.740   1.586
12158TIP3    H286943   2.748   7.869   1.663
12159TIP3   OH286944   2.413   7.656   3.073
12159TIP3    H186945   2.491   7.624   3.028
12159TIP3    H286946   2.377   7.579   3.117
12160TIP3   OH286947   3.221   7.575   3.087
12160TIP3    H186948   3.215   7.531   3.172
12160TIP3    H286949   3.309   7.552   3.055
12161TIP3   OH286950   5.578   7.889   2.399
12161TIP3    H186951   5.595   7.914   2.489
12161TIP3    H286952   5.537   7.966   2.360
12162TIP3   OH286953   4.411   7.911   2.123
12162TIP3    H186954   4.362   7.988   2.095
12162TIP3    H286955   4.380   7.840   2.066
12163TIP3   OH286956   5.081   8.021   1.908
12163TIP3    H186957   5.118   7.981   1.986
12163TIP3    H286958   5.155   8.061   1.863
12164TIP3   OH286959   5.576   7.982   2.658
12164TIP3    H186960   5.567   8.078   2.657
12164TIP3    H286961   5.619   7.963   2.741
12165TIP3   OH286962   4.161   7.899   2.456
12165TIP3    H186963   4.139   7.984   2.417
12165TIP3    H286964   4.093   7.885   2.522
12166TIP3   OH286965   5.195   7.929   2.139
12166TIP3    H186966   5.128   7.923   2.208
12166TIP3    H286967   5.251   8.001   2.166
12167TIP3   OH286968   4.253   8.105   2.295
12167TIP3    H186969   4.296   0.044   2.316
12167TIP3    H286970   4.186   8.128   2.230
12168TIP3   OH286971   4.583   7.584   2.242
12168TIP3    H186972   4.562   7.491   2.241
12168TIP3    H286973   4.502   7.627   2.270
12169TIP3   OH286974   5.392   7.600   1.512
12169TIP3    H186975   5.320   7.624   1.569
12169TIP3    H286976   5.451   7.675   1.514
12170TIP3   OH286977   4.350   7.684   2.335
12170TIP3    H186978   4.268   7.666   2.288
12170TIP3    H286979   4.331   7.656   2.425
12171TIP3   OH286980   4.807   7.654   2.646
12171TIP3    H186981   4.872   7.627   2.711
12171TIP3    H286982   4.723   7.635   2.687
12172TIP3   OH286983   5.139   8.034   2.731
12172TIP3    H186984   5.073   8.025   2.800
12172TIP3    H286985   5.137   8.127   2.707
12173TIP3   OH286986   4.797   7.964   1.362
12173TIP3    H186987   4.749   7.911   1.427
12173TIP3    H286988   4.792   7.913   1.281
12174TIP3   OH286989   3.739   7.815   1.938
12174TIP3    H186990   3.775   7.814   2.027
12174TIP3    H286991   3.750   7.725   1.907
12175TIP3   OH286992   3.855   8.053   1.471
12175TIP3    H186993   3.884   8.123   1.413
12175TIP3    H286994   3.786   8.092   1.525
12176TIP3   OH286995   4.669   7.922   2.002
12176TIP3    H186996   4.578   7.928   2.032
12176TIP3    H286997   4.716   7.889   2.079
12177TIP3   OH286998   4.234   8.063   1.970
12177TIP3    H186999   4.140   8.076   1.969
12177TIP3    H287000   4.248   7.981   1.923
12178TIP3   OH287001   4.660   0.148   1.856
12178TIP3    H187002   4.690   0.062   1.827
12178TIP3    H287003   4.565   0.140   1.864
12179TIP3   OH287004   4.979   7.946   2.312
12179TIP3    H187005   4.974   7.940   2.408
12179TIP3    H287006   4.905   7.895   2.280
12180TIP3   OH287007   4.270   7.794   1.902
12180TIP3    H187008   4.200   7.730   1.915
12180TIP3    H287009   4.310   7.768   1.819
12181TIP3   OH287010   4.511   8.061   2.509
12181TIP3    H187011   4.541   8.113   2.435
12181TIP3    H287012   4.582   8.069   2.574
12182TIP3   OH287013   5.019   7.987   1.522
12182TIP3    H187014   4.946   7.990   1.460
12182TIP3    H287015   5.039   8.079   1.539
12183TIP3   OH287016   3.973   7.883   2.655
12183TIP3    H187017   3.922   7.929   2.722
12183TIP3    H287018   4.044   7.841   2.703
12184TIP3   OH287019   4.926   7.902   2.580
12184TIP3    H187020   5.005   7.911   2.635
12184TIP3    H287021   4.892   7.815   2.602
12185TIP3   OH287022   4.990   7.825   1.739
12185TIP3    H187023   5.000   7.870   1.655
12185TIP3    H287024   5.024   7.886   1.803
12186TIP3   OH287025   4.756   8.048   1.776
12186TIP3    H187026   4.852   8.045   1.776
12186TIP3    H287027   4.730   8.004   1.857
12187TIP3   OH287028   4.735   8.084   2.666
12187TIP3    H187029   4.761   8.098   2.756
12187TIP3    H287030   4.802   8.026   2.630
12188TIP3   OH287031   4.751   7.715   1.825
12188TIP3    H187032   4.726   7.786   1.885
12188TIP3    H287033   4.839   7.738   1.796
12189TIP3   OH287034   4.372   7.719   1.647
12189TIP3    H187035   4.385   7.784   1.578
12189TIP3    H287036   4.406   7.638   1.610
12190TIP3   OH287037   5.332   7.845   2.669
12190TIP3    H187038   5.264   7.908   2.695
12190TIP3    H287039   5.409   7.899   2.653
12191TIP3   OH287040   4.111   7.632   2.219
12191TIP3    H187041   4.070   7.641   2.133
12191TIP3    H287042   4.046   7.587   2.272
12192TIP3   OH287043   4.478   7.941   2.918
12192TIP3    H187044   4.415   7.887   2.871
12192TIP3    H287045   4.438   7.956   3.003
12193TIP3   OH287046   4.423   7.812   2.590
12193TIP3    H187047   4.465   7.895   2.610
12193TIP3    H287048   4.352   7.805   2.654
12194TIP3   OH287049   4.532   7.573   2.674
12194TIP3    H187050   4.505   7.661   2.645
12194TIP3    H287051   4.457   7.517   2.654
12195TIP3   OH287052   4.696   8.074   3.052
12195TIP3    H187053   4.700   8.026   3.135
12195TIP3    H287054   4.630   8.027   3.001
12196TIP3   OH287055   4.933   8.012   2.910
12196TIP3    H187056   4.860   8.041   2.965
12196TIP3    H287057   4.984   7.954   2.966
12197TIP3   OH287058   5.093   7.859   3.078
12197TIP3    H187059   5.093   7.764   3.090
12197TIP3    H287060   5.062   7.894   3.162
12198TIP3   OH287061   4.043   7.940   3.068
12198TIP3    H187062   4.101   7.914   2.996
12198TIP3    H287063   4.067   7.882   3.140
12199TIP3   OH287064   4.648   7.567   2.929
12199TIP3    H187065   4.706   7.491   2.922
12199TIP3    H287066   4.595   7.564   2.849
12200TIP3   OH287067   4.603   7.733   3.149
12200TIP3    H187068   4.627   7.676   3.075
12200TIP3    H287069   4.534   7.790   3.114
12201TIP3   OH287070   5.351   7.983   1.237
12201TIP3    H187071   5.445   7.967   1.228
12201TIP3    H287072   5.324   7.923   1.306
12202TIP3   OH287073   5.302   8.101   1.749
12202TIP3    H187074   5.328   8.011   1.765
12202TIP3    H287075   5.359   8.131   1.678
12203TIP3   OH287076   5.484   0.010   2.382
12203TIP3    H187077   5.421   0.025   2.311
12203TIP3    H287078   5.440   0.044   2.460
12204TIP3   OH287079   3.847   7.998   2.878
12204TIP3    H187080   3.918   7.978   2.938
12204TIP3    H287081   3.786   7.925   2.887
12205TIP3   OH287082   5.648   7.657   3.099
12205TIP3    H187083   5.709   7.587   3.075
12205TIP3    H287084   5.651   7.717   3.024
12206TIP3   OH287085   5.368   7.841   1.790
12206TIP3    H187086   5.422   7.796   1.856
12206TIP3    H287087   5.310   7.773   1.757
12207TIP3   OH287088   5.571   7.870   2.923
12207TIP3    H187089   5.499   7.903   2.975
12207TIP3    H287090   5.535   7.796   2.875
12208TIP3   OH287091   5.578   7.806   1.529
12208TIP3    H187092   5.664   7.816   1.489
12208TIP3    H287093   5.588   7.840   1.618
12209TIP3   OH287094   5.468   7.644   2.793
12209TIP3    H187095   5.409   7.699   2.742
12209TIP3    H287096   5.491   7.572   2.735
12210TIP3   OH287097   4.774   7.786   2.213
12210TIP3    H187098   4.711   7.716   2.231
12210TIP3    H287099   4.845   7.744   2.166
12211TIP3   OH287100   5.539   7.701   1.959
12211TIP3    H187101   5.552   7.610   1.933
12211TIP3    H287102   5.526   7.698   2.054
12212TIP3   OH287103   4.053   7.606   1.939
12212TIP3    H187104   4.030   7.605   1.846
12212TIP3    H287105   4.095   7.522   1.954
12213TIP3   OH287106   4.548   7.579   1.963
12213TIP3    H187107   4.617   7.624   1.915
12213TIP3    H287108   4.571   7.592   2.055
12214TIP3   OH287109   4.969   7.666   2.074
12214TIP3    H187110   5.064   7.673   2.059
12214TIP3    H287111   4.953   7.572   2.084
12215TIP3   OH287112   5.196   7.640   1.713
12215TIP3    H187113   5.115   7.693   1.711
12215TIP3    H287114   5.171   7.560   1.758
12216TIP3   OH287115   4.670   7.854   1.584
12216TIP3    H187116   4.670   7.782   1.647
12216TIP3    H287117   4.689   7.932   1.636
12217TIP3   OH287118   4.236   7.695   3.115
12217TIP3    H187119   4.233   7.697   3.020
12217TIP3    H287120   4.223   7.604   3.138
12218TIP3   OH287121   5.118   7.594   3.134
12218TIP3    H187122   5.105   7.533   3.206
12218TIP3    H287123   5.205   7.572   3.100
12219TIP3   OH287124   7.408   7.882   2.553
12219TIP3    H187125   7.500   7.882   2.578
12219TIP3    H287126   7.403   7.946   2.482
12220TIP3   OH287127   6.997   8.004   1.917
12220TIP3    H187128   7.034   7.957   1.992
12220TIP3    H287129   7.073   8.041   1.873
12221TIP3   OH287130   7.546   8.142   2.675
12221TIP3    H187131   7.498   0.076   2.701
12221TIP3    H287132   7.491   8.069   2.703
12222TIP3   OH287133   7.102   7.909   2.153
12222TIP3    H187134   7.030   7.904   2.215
12222TIP3    H287135   7.148   7.990   2.175
12223TIP3   OH287136   7.134   7.792   2.563
12223TIP3    H187137   7.043   7.821   2.564
12223TIP3    H287138   7.181   7.863   2.519
12224TIP3   OH287139   6.519   7.581   2.267
12224TIP3    H187140   6.473   7.499   2.250
12224TIP3    H287141   6.455   7.650   2.248
12225TIP3   OH287142   7.239   7.579   1.464
12225TIP3    H187143   7.156   7.588   1.511
12225TIP3    H287144   7.265   7.669   1.445
12226TIP3   OH287145   6.687   7.654   2.668
12226TIP3    H187146   6.736   7.612   2.739
12226TIP3    H287147   6.595   7.642   2.692
12227TIP3   OH287148   7.034   8.126   2.716
12227TIP3    H187149   6.992   8.056   2.765
12227TIP3    H287150   6.961   0.030   2.676
12228TIP3   OH287151   6.494   7.882   2.020
12228TIP3    H187152   6.468   7.946   2.086
12228TIP3    H287153   6.577   7.847   2.052
12229TIP3   OH287154   6.869   7.945   2.302
12229TIP3    H187155   6.858   7.935   2.397
12229TIP3    H287156   6.802   7.888   2.265
12230TIP3   OH287157   6.883   7.973   1.482
12230TIP3    H187158   6.789   7.979   1.464
12230TIP3    H287159   6.908   8.062   1.507
12231TIP3   OH287160   6.868   7.850   2.585
12231TIP3    H187161   6.890   7.873   2.675
12231TIP3    H287162   6.795   7.789   2.593
12232TIP3   OH287163   6.891   7.837   1.724
12232TIP3    H187164   6.891   7.892   1.645
12232TIP3    H287165   6.918   7.897   1.793
12233TIP3   OH287166   6.710   8.056   2.793
12233TIP3    H187167   6.638   8.109   2.828
12233TIP3    H287168   6.681   8.032   2.705
12234TIP3   OH287169   6.652   7.723   1.800
12234TIP3    H187170   6.601   7.804   1.803
12234TIP3    H287171   6.741   7.752   1.781
12235TIP3   OH287172   7.290   8.035   2.749
12235TIP3    H187173   7.196   8.051   2.743
12235TIP3    H287174   7.306   7.964   2.687
12236TIP3   OH287175   6.407   7.630   2.650
12236TIP3    H187176   6.428   7.698   2.586
12236TIP3    H287177   6.325   7.591   2.619
12237TIP3   OH287178   6.929   7.910   2.851
12237TIP3    H187179   6.843   7.950   2.859
12237TIP3    H287180   6.949   7.879   2.939
12238TIP3   OH287181   6.987   7.844   3.113
12238TIP3    H187182   6.968   7.750   3.117
12238TIP3    H287183   6.950   7.880   3.194
12239TIP3   OH287184   5.983   7.950   3.056
12239TIP3    H187185   5.983   7.886   2.985
12239TIP3    H287186   5.974   7.897   3.135
12240TIP3   OH287187   6.412   7.580   2.927
12240TIP3    H187188   6.465   7.500   2.926
12240TIP3    H287189   6.404   7.605   2.836
12241TIP3   OH287190   6.469   7.737   3.161
12241TIP3    H187191   6.465   7.685   3.081
12241TIP3    H287192   6.408   7.809   3.146
12242TIP3   OH287193   7.081   7.902   1.305
12242TIP3    H187194   7.165   7.883   1.348
12242TIP3    H287195   7.021   7.920   1.377
12243TIP3   OH287196   7.203   8.074   1.744
12243TIP3    H187197   7.230   7.982   1.738
12243TIP3    H287198   7.262   8.120   1.685
12244TIP3   OH287199   7.200   8.062   2.437
12244TIP3    H187200   7.207   8.104   2.351
12244TIP3    H287201   7.173   8.133   2.495
12245TIP3   OH287202   5.759   8.079   2.942
12245TIP3    H187203   5.839   8.042   2.981
12245TIP3    H287204   5.696   8.006   2.943
12246TIP3   OH287205   7.585   7.678   3.101
12246TIP3    H187206   7.609   7.590   3.069
12246TIP3    H287207   7.528   7.713   3.033
12247TIP3   OH287208   7.235   7.796   1.713
12247TIP3    H187209   7.243   7.774   1.805
12247TIP3    H287210   7.159   7.747   1.683
12248TIP3   OH287211   7.423   7.806   2.927
12248TIP3    H187212   7.353   7.840   2.981
12248TIP3    H287213   7.379   7.769   2.850
12249TIP3   OH287214   7.337   7.816   1.379
12249TIP3    H187215   7.396   7.771   1.318
12249TIP3    H287216   7.389   7.889   1.412
12250TIP3   OH287217   5.695   7.652   2.472
12250TIP3    H187218   5.712   7.679   2.562
12250TIP3    H287219   5.657   7.730   2.431
12251TIP3   OH287220   7.293   7.639   2.739
12251TIP3    H187221   7.242   7.697   2.682
12251TIP3    H287222   7.276   7.551   2.705
12252TIP3   OH287223   6.710   7.760   2.160
12252TIP3    H187224   6.656   7.692   2.201
12252TIP3    H287225   6.782   7.712   2.120
12253TIP3   OH287226   7.134   7.596   2.210
12253TIP3    H187227   7.177   7.671   2.169
12253TIP3    H287228   7.046   7.595   2.172
12254TIP3   OH287229   7.280   7.714   1.976
12254TIP3    H187230   7.347   7.647   1.963
12254TIP3    H287231   7.329   7.796   1.987
12255TIP3   OH287232   6.450   7.600   1.934
12255TIP3    H187233   6.529   7.623   1.884
12255TIP3    H287234   6.421   7.682   1.972
12256TIP3   OH287235   6.905   7.589   2.055
12256TIP3    H187236   6.970   7.580   1.985
12256TIP3    H287237   6.842   7.519   2.037
12257TIP3   OH287238   7.027   7.619   1.634
12257TIP3    H187239   6.961   7.685   1.653
12257TIP3    H287240   7.038   7.571   1.716
12258TIP3   OH287241   5.969   7.704   2.912
12258TIP3    H187242   5.910   7.631   2.930
12258TIP3    H287243   6.049   7.682   2.959
12259TIP3   OH287244   6.177   7.624   3.070
12259TIP3    H187245   6.260   7.600   3.028
12259TIP3    H287246   6.147   7.542   3.110
12260TIP3   OH287247   6.975   7.564   3.091
12260TIP3    H187248   6.967   7.520   3.175
12260TIP3    H287249   7.067   7.554   3.067
12261TIP3   OH287250   0.027   8.117   2.174
12261TIP3    H187251   0.037   0.032   2.100
12261TIP3    H287252   0.015   8.030   2.135
12262TIP3   OH287253   7.669   7.868   2.632
12262TIP3    H187254   7.690   7.813   2.557
12262TIP3    H287255   7.750   7.915   2.650
12263TIP3   OH287256   0.005   0.103   2.417
12263TIP3    H187257   8.057   0.128   2.409
12263TIP3    H287258   0.025   0.060   2.334
12264TIP3   OH287259   7.912   7.560   2.436
12264TIP3    H187260   7.852   7.503   2.388
12264TIP3    H287261   7.982   7.579   2.374
12265TIP3   OH287262   7.465   7.904   1.884
12265TIP3    H187263   7.527   7.976   1.891
12265TIP3    H287264   7.487   7.862   1.800
12266TIP3   OH287265   7.498   8.015   1.476
12266TIP3    H187266   7.561   8.063   1.422
12266TIP3    H287267   7.429   8.079   1.494
12267TIP3   OH287268   7.514   0.176   2.113
12267TIP3    H187269   7.500   0.101   2.171
12267TIP3    H287270   7.578   0.230   2.158
12268TIP3   OH287271   8.132   7.874   2.039
12268TIP3    H187272   8.054   7.818   2.039
12268TIP3    H287273   0.043   7.838   1.970
12269TIP3   OH287274   7.793   8.068   2.789
12269TIP3    H187275   7.701   8.078   2.764
12269TIP3    H287276   7.793   7.993   2.849
12270TIP3   OH287277   0.100   7.844   1.579
12270TIP3    H187278   0.018   7.880   1.546
12270TIP3    H287279   0.167   7.907   1.553
12271TIP3   OH287280   7.842   7.633   2.163
12271TIP3    H187281   7.779   7.656   2.094
12271TIP3    H287282   7.812   7.547   2.194
12272TIP3   OH287283   7.923   8.045   3.157
12272TIP3    H187284   7.865   8.011   3.089
12272TIP3    H287285   7.931   7.972   3.220
12273TIP3   OH287286   7.563   8.053   3.008
12273TIP3    H187287   7.634   7.989   3.014
12273TIP3    H287288   7.487   8.002   2.981
12274TIP3   OH287289   7.706   7.737   2.400
12274TIP3    H187290   7.782   7.679   2.406
12274TIP3    H287291   7.718   7.784   2.318
12275TIP3   OH287292   7.499   7.791   1.635
12275TIP3    H187293   7.405   7.786   1.650
12275TIP3    H287294   7.512   7.869   1.581
12276TIP3   OH287295   7.540   7.583   2.582
12276TIP3    H187296   7.468   7.622   2.632
12276TIP3    H287297   7.558   7.646   2.513
12277TIP3   OH287298   7.686   7.634   1.940
12277TIP3    H187299   7.600   7.665   1.912
12277TIP3    H287300   7.670   7.544   1.971
12278TIP3   OH287301   7.540   7.563   1.476
12278TIP3    H187302   7.543   7.636   1.538
12278TIP3    H287303   7.447   7.546   1.463
12279TIP3   OH287304   7.851   7.741   1.218
12279TIP3    H187305   7.872   7.655   1.181
12279TIP3    H287306   7.817   7.722   1.305
12280TIP3   OH287307   7.768   7.869   3.006
12280TIP3    H187308   7.714   7.800   3.045
12280TIP3    H287309   7.848   7.824   2.979
12281TIP3   OH287310   8.047   7.604   3.114
12281TIP3    H187311   8.132   7.567   3.091
12281TIP3    H287312   7.998   7.531   3.150
12282TIP3   OH287313   1.082   0.822   3.256
12282TIP3    H187314   1.131   0.833   3.338
12282TIP3    H287315   1.135   0.763   3.204
12283TIP3   OH287316   1.293   0.832   3.449
12283TIP3    H187317   1.306   0.894   3.521
12283TIP3    H287318   1.342   0.870   3.376
12284TIP3   OH287319   1.655   0.110   3.487
12284TIP3    H187320   1.686   0.022   3.465
12284TIP3    H287321   1.686   0.165   3.415
12285TIP3   OH287322   1.814   1.518   3.217
12285TIP3    H187323   1.817   1.603   3.260
12285TIP3    H287324   1.898   1.478   3.236
12286TIP3   OH287325   1.341   1.756   3.330
12286TIP3    H187326   1.375   1.688   3.271
12286TIP3    H287327   1.398   1.753   3.406
12287TIP3   OH287328   1.423   0.947   3.238
12287TIP3    H187329   1.399   0.965   3.147
12287TIP3    H287330   1.515   0.975   3.245
12288TIP3   OH287331   0.961   0.371   3.328
12288TIP3    H187332   0.956   0.358   3.423
12288TIP3    H287333   0.927   0.290   3.291
12289TIP3   OH287334   0.651   0.382   3.156
12289TIP3    H187335   0.643   0.391   3.251
12289TIP3    H287336   0.596   0.451   3.120
12290TIP3   OH287337   0.159   0.504   3.436
12290TIP3    H187338   0.203   0.548   3.363
12290TIP3    H287339   0.129   0.576   3.492
12291TIP3   OH287340   0.589   0.636   3.331
12291TIP3    H187341   0.544   0.631   3.247
12291TIP3    H287342   0.664   0.693   3.315
12292TIP3   OH287343   1.220   0.447   3.277
12292TIP3    H187344   1.129   0.424   3.294
12292TIP3    H287345   1.252   0.480   3.361
12293TIP3   OH287346   1.311   0.560   3.513
12293TIP3    H187347   1.400   0.531   3.533
12293TIP3    H287348   1.320   0.653   3.492
12294TIP3   OH287349   1.073   1.292   3.429
12294TIP3    H187350   1.032   1.378   3.437
12294TIP3    H287351   1.096   1.268   3.519
12295TIP3   OH287352   1.819   0.664   3.476
12295TIP3    H187353   1.766   0.654   3.397
12295TIP3    H287354   1.825   0.759   3.488
12296TIP3   OH287355   0.188   0.893   3.373
12296TIP3    H187356   0.235   0.971   3.404
12296TIP3    H287357   0.139   0.862   3.449
12297TIP3   OH287358   1.406   1.342   3.328
12297TIP3    H187359   1.386   1.331   3.421
12297TIP3    H287360   1.329   1.306   3.283
12298TIP3   OH287361   1.838   1.767   3.336
12298TIP3    H187362   1.910   1.829   3.347
12298TIP3    H287363   1.761   1.813   3.371
12299TIP3   OH287364   0.770   1.420   3.200
12299TIP3    H187365   0.783   1.337   3.153
12299TIP3    H287366   0.736   1.394   3.286
12300TIP3   OH287367   0.634   1.420   3.460
12300TIP3    H187368   0.668   1.383   3.541
12300TIP3    H287369   0.651   1.514   3.466
12301TIP3   OH287370   0.304   1.127   3.460
12301TIP3    H187371   0.334   1.150   3.547
12301TIP3    H287372   0.338   1.196   3.403
12302TIP3   OH287373   0.960   1.544   3.458
12302TIP3    H187374   0.870   1.579   3.453
12302TIP3    H287375   1.014   1.612   3.418
12303TIP3   OH287376   0.713   1.679   3.504
12303TIP3    H187377   0.731   1.744   3.436
12303TIP3    H287378   0.712   1.729   3.586
12304TIP3   OH287379   0.575   0.378   3.434
12304TIP3    H187380   0.574   0.473   3.421
12304TIP3    H287381   0.657   0.361   3.482
12305TIP3   OH287382   0.399   1.349   3.320
12305TIP3    H187383   0.472   1.389   3.369
12305TIP3    H287384   0.441   1.297   3.252
12306TIP3   OH287385   0.176   0.671   3.207
12306TIP3    H187386   0.199   0.744   3.264
12306TIP3    H287387   0.081   0.667   3.211
12307TIP3   OH287388   0.958   1.617   3.134
12307TIP3    H187389   0.896   1.548   3.159
12307TIP3    H287390   1.036   1.570   3.106
12308TIP3   OH287391   1.440   1.561   3.163
12308TIP3    H187392   1.437   1.485   3.222
12308TIP3    H287393   1.532   1.565   3.135
12309TIP3   OH287394   0.531   1.164   3.167
12309TIP3    H187395   0.551   1.106   3.240
12309TIP3    H287396   0.614   1.174   3.120
12310TIP3   OH287397   1.177   1.267   3.178
12310TIP3    H187398   1.127   1.265   3.260
12310TIP3    H287399   1.154   1.186   3.133
12311TIP3   OH287400   0.630   1.003   3.364
12311TIP3    H187401   0.654   0.994   3.456
12311TIP3    H287402   0.692   0.946   3.317
12312TIP3   OH287403   0.805   0.821   3.242
12312TIP3    H187404   0.791   0.848   3.151
12312TIP3    H287405   0.900   0.814   3.252
12313TIP3   OH287406   1.689   1.026   3.212
12313TIP3    H187407   1.687   1.001   3.120
12313TIP3    H287408   1.682   1.122   3.211
12314TIP3   OH287409   0.799   1.882   3.351
12314TIP3    H187410   0.893   1.872   3.336
12314TIP3    H287411   0.768   1.934   3.276
12315TIP3   OH287412   0.120   1.350   3.329
12315TIP3    H187413   0.212   1.378   3.331
12315TIP3    H287414   0.119   1.275   3.269
12316TIP3   OH287415   1.833   0.952   3.435
12316TIP3    H187416   1.775   0.972   3.363
12316TIP3    H287417   1.899   1.021   3.433
12317TIP3   OH287418   1.688   0.654   3.232
12317TIP3    H187419   1.647   0.715   3.171
12317TIP3    H287420   1.656   0.568   3.207
12318TIP3   OH287421   1.587   0.415   3.135
12318TIP3    H187422   1.637   0.355   3.190
12318TIP3    H287423   1.514   0.364   3.102
12319TIP3   OH287424   1.769   0.270   3.290
12319TIP3    H187425   1.817   0.227   3.219
12319TIP3    H287426   1.833   0.327   3.331
12320TIP3   OH287427   0.156   0.173   3.399
12320TIP3    H187428   0.222   0.204   3.462
12320TIP3    H287429   0.075   0.216   3.426
12321TIP3   OH287430   0.396   0.238   3.221
12321TIP3    H187431   0.451   0.185   3.163
12321TIP3    H287432   0.456   0.268   3.289
12322TIP3   OH287433   1.066   1.776   3.334
12322TIP3    H187434   1.161   1.781   3.327
12322TIP3    H287435   1.037   1.737   3.252
12323TIP3   OH287436   0.359   1.767   3.208
12323TIP3    H187437   0.364   1.773   3.303
12323TIP3    H287438   0.429   1.706   3.184
12324TIP3   OH287439   2.976   0.822   3.246
12324TIP3    H187440   3.025   0.835   3.327
12324TIP3    H287441   3.032   0.764   3.194
12325TIP3   OH287442   3.188   0.872   3.429
12325TIP3    H187443   3.173   0.956   3.473
12325TIP3    H287444   3.237   0.894   3.350
12326TIP3   OH287445   3.619   0.019   3.492
12326TIP3    H187446   3.539   8.111   3.502
12326TIP3    H287447   3.598   0.082   3.423
12327TIP3   OH287448   3.720   1.517   3.244
12327TIP3    H187449   3.730   1.599   3.292
12327TIP3    H287450   3.808   1.480   3.240
12328TIP3   OH287451   3.245   1.799   3.366
12328TIP3    H187452   3.208   1.776   3.452
12328TIP3    H287453   3.327   1.844   3.386
12329TIP3   OH287454   3.320   0.959   3.211
12329TIP3    H187455   3.304   0.946   3.118
12329TIP3    H287456   3.415   0.973   3.217
12330TIP3   OH287457   2.900   0.330   3.330
12330TIP3    H187458   2.853   0.333   3.414
12330TIP3    H287459   2.839   0.286   3.270
12331TIP3   OH287460   2.524   0.402   3.186
12331TIP3    H187461   2.489   0.403   3.275
12331TIP3    H287462   2.488   0.481   3.145
12332TIP3   OH287463   1.963   0.429   3.422
12332TIP3    H187464   2.039   0.473   3.386
12332TIP3    H287465   1.908   0.499   3.456
12333TIP3   OH287466   2.407   0.634   3.409
12333TIP3    H187467   2.317   0.628   3.376
12333TIP3    H287468   2.450   0.694   3.349
12334TIP3   OH287469   3.145   0.435   3.286
12334TIP3    H187470   3.059   0.394   3.296
12334TIP3    H287471   3.158   0.481   3.369
12335TIP3   OH287472   3.187   0.606   3.513
12335TIP3    H187473   3.272   0.574   3.543
12335TIP3    H287474   3.206   0.693   3.479
12336TIP3   OH287475   2.969   1.325   3.450
12336TIP3    H187476   2.934   1.414   3.457
12336TIP3    H287477   2.965   1.291   3.539
12337TIP3   OH287478   3.685   0.669   3.477
12337TIP3    H187479   3.636   0.655   3.396
12337TIP3    H287480   3.701   0.764   3.480
12338TIP3   OH287481   2.055   0.852   3.283
12338TIP3    H187482   2.094   0.933   3.315
12338TIP3    H287483   1.970   0.847   3.328
12339TIP3   OH287484   3.268   1.321   3.367
12339TIP3    H187485   3.248   1.312   3.460
12339TIP3    H287486   3.186   1.299   3.323
12340TIP3   OH287487   3.705   1.764   3.354
12340TIP3    H187488   3.768   1.834   3.337
12340TIP3    H287489   3.628   1.808   3.389
12341TIP3   OH287490   2.664   1.435   3.187
12341TIP3    H187491   2.682   1.353   3.143
12341TIP3    H287492   2.632   1.409   3.274
12342TIP3   OH287493   2.544   1.412   3.444
12342TIP3    H187494   2.559   1.383   3.534
12342TIP3    H287495   2.555   1.507   3.447
12343TIP3   OH287496   2.118   1.092   3.399
12343TIP3    H187497   2.119   1.061   3.490
12343TIP3    H287498   2.190   1.155   3.395
12344TIP3   OH287499   2.866   1.581   3.448
12344TIP3    H187500   2.773   1.599   3.465
12344TIP3    H287501   2.877   1.600   3.355
12345TIP3   OH287502   2.607   1.673   3.483
12345TIP3    H187503   2.617   1.755   3.435
12345TIP3    H287504   2.589   1.700   3.574
12346TIP3   OH287505   2.419   0.363   3.453
12346TIP3    H187506   2.414   0.459   3.454
12346TIP3    H287507   2.493   0.342   3.510
12347TIP3   OH287508   2.312   1.296   3.351
12347TIP3    H187509   2.385   1.350   3.380
12347TIP3    H287510   2.344   1.248   3.275
12348TIP3   OH287511   2.156   0.598   3.303
12348TIP3    H187512   2.118   0.685   3.295
12348TIP3    H287513   2.157   0.564   3.213
12349TIP3   OH287514   2.876   1.619   3.174
12349TIP3    H187515   2.802   1.560   3.161
12349TIP3    H287516   2.943   1.587   3.114
12350TIP3   OH287517   3.317   1.561   3.235
12350TIP3    H187518   3.293   1.488   3.292
12350TIP3    H287519   3.292   1.639   3.283
12351TIP3   OH287520   2.448   1.159   3.150
12351TIP3    H187521   2.465   1.092   3.216
12351TIP3    H287522   2.533   1.174   3.109
12352TIP3   OH287523   3.042   1.299   3.184
12352TIP3    H187524   2.998   1.306   3.269
12352TIP3    H287525   3.013   1.215   3.148
12353TIP3   OH287526   2.528   0.984   3.346
12353TIP3    H187527   2.541   0.992   3.440
12353TIP3    H287528   2.590   0.918   3.318
12354TIP3   OH287529   2.704   0.781   3.277
12354TIP3    H187530   2.678   0.723   3.205
12354TIP3    H287531   2.798   0.795   3.264
12355TIP3   OH287532   3.589   1.032   3.200
12355TIP3    H187533   3.601   1.009   3.108
12355TIP3    H287534   3.569   1.126   3.199
12356TIP3   OH287535   2.696   1.927   3.411
12356TIP3    H187536   2.786   1.903   3.387
12356TIP3    H287537   2.666   1.982   3.338
12357TIP3   OH287538   2.059   1.370   3.224
12357TIP3    H187539   2.136   1.353   3.277
12357TIP3    H287540   2.037   1.285   3.186
12358TIP3   OH287541   3.728   0.954   3.430
12358TIP3    H187542   3.673   0.971   3.354
12358TIP3    H287543   3.799   1.018   3.424
12359TIP3   OH287544   3.567   0.640   3.228
12359TIP3    H187545   3.524   0.683   3.154
12359TIP3    H287546   3.563   0.547   3.208
12360TIP3   OH287547   3.529   0.380   3.145
12360TIP3    H187548   3.563   0.320   3.212
12360TIP3    H287549   3.440   0.351   3.129
12361TIP3   OH287550   3.682   0.229   3.315
12361TIP3    H187551   3.755   0.184   3.272
12361TIP3    H287552   3.723   0.302   3.361
12362TIP3   OH287553   2.038   0.154   3.398
12362TIP3    H187554   2.111   0.171   3.339
12362TIP3    H287555   2.009   0.240   3.426
12363TIP3   OH287556   2.253   0.251   3.251
12363TIP3    H187557   2.302   0.197   3.189
12363TIP3    H287558   2.317   0.276   3.317
12364TIP3   OH287559   2.941   1.852   3.310
12364TIP3    H187560   3.037   1.852   3.310
12364TIP3    H287561   2.917   1.781   3.251
12365TIP3   OH287562   2.254   1.780   3.228
12365TIP3    H187563   2.238   1.780   3.323
12365TIP3    H287564   2.320   1.713   3.215
12366TIP3   OH287565   4.831   0.819   3.286
12366TIP3    H187566   4.894   0.834   3.356
12366TIP3    H287567   4.876   0.759   3.226
12367TIP3   OH287568   5.100   0.841   3.382
12367TIP3    H187569   5.162   0.872   3.447
12367TIP3    H287570   5.133   0.876   3.299
12368TIP3   OH287571   5.501   0.052   3.512
12368TIP3    H187572   5.423   8.141   3.523
12368TIP3    H287573   5.486   0.099   3.430
12369TIP3   OH287574   5.578   1.505   3.226
12369TIP3    H187575   5.588   1.593   3.263
12369TIP3    H287576   5.666   1.467   3.230
12370TIP3   OH287577   5.108   1.761   3.333
12370TIP3    H187578   5.153   1.690   3.287
12370TIP3    H287579   5.122   1.742   3.426
12371TIP3   OH287580   5.193   0.906   3.115
12371TIP3    H187581   5.205   0.893   3.021
12371TIP3    H287582   5.275   0.946   3.144
12372TIP3   OH287583   4.756   0.378   3.340
12372TIP3    H187584   4.741   0.356   3.432
12372TIP3    H287585   4.724   0.301   3.292
12373TIP3   OH287586   4.426   0.369   3.152
12373TIP3    H187587   4.440   0.435   3.220
12373TIP3    H287588   4.408   0.420   3.072
12374TIP3   OH287589   3.829   0.431   3.432
12374TIP3    H187590   3.888   0.471   3.368
12374TIP3    H287591   3.776   0.505   3.464
12375TIP3   OH287592   4.381   0.620   3.333
12375TIP3    H187593   4.317   0.630   3.262
12375TIP3    H287594   4.448   0.686   3.315
12376TIP3   OH287595   5.008   0.463   3.284
12376TIP3    H187596   4.918   0.435   3.298
12376TIP3    H287597   5.035   0.500   3.368
12377TIP3   OH287598   5.080   0.597   3.521
12377TIP3    H187599   5.166   0.560   3.545
12377TIP3    H287600   5.101   0.681   3.479
12378TIP3   OH287601   4.861   1.344   3.463
12378TIP3    H187602   4.822   1.430   3.481
12378TIP3    H287603   4.875   1.306   3.550
12379TIP3   OH287604   5.592   0.643   3.491
12379TIP3    H187605   5.556   0.623   3.405
12379TIP3    H287606   5.591   0.738   3.496
12380TIP3   OH287607   3.956   0.855   3.280
12380TIP3    H187608   3.998   0.933   3.316
12380TIP3    H287609   3.876   0.845   3.332
12381TIP3   OH287610   5.191   1.332   3.335
12381TIP3    H187611   5.192   1.312   3.428
12381TIP3    H287612   5.101   1.314   3.308
12382TIP3   OH287613   5.637   1.760   3.332
12382TIP3    H187614   5.698   1.833   3.334
12382TIP3    H287615   5.563   1.789   3.386
12383TIP3   OH287616   4.547   1.421   3.190
12383TIP3    H187617   4.548   1.343   3.135
12383TIP3    H287618   4.517   1.391   3.276
12384TIP3   OH287619   4.422   1.405   3.448
12384TIP3    H187620   4.443   1.379   3.538
12384TIP3    H287621   4.433   1.500   3.447
12385TIP3   OH287622   3.974   1.107   3.420
12385TIP3    H187623   3.991   1.063   3.503
12385TIP3    H287624   4.050   1.164   3.406
12386TIP3   OH287625   4.743   1.597   3.497
12386TIP3    H187626   4.648   1.600   3.487
12386TIP3    H287627   4.776   1.653   3.426
12387TIP3   OH287628   4.474   1.671   3.468
12387TIP3    H187629   4.463   1.730   3.394
12387TIP3    H287630   4.482   1.729   3.544
12388TIP3   OH287631   4.302   0.398   3.476
12388TIP3    H187632   4.322   0.481   3.434
12388TIP3    H287633   4.386   0.367   3.510
12389TIP3   OH287634   4.186   1.293   3.360
12389TIP3    H187635   4.263   1.344   3.386
12389TIP3    H287636   4.215   1.242   3.285
12390TIP3   OH287637   3.959   0.577   3.243
12390TIP3    H187638   3.978   0.671   3.252
12390TIP3    H287639   3.911   0.570   3.160
12391TIP3   OH287640   4.763   1.585   3.126
12391TIP3    H187641   4.691   1.527   3.151
12391TIP3    H287642   4.836   1.526   3.106
12392TIP3   OH287643   5.232   1.564   3.189
12392TIP3    H187644   5.234   1.486   3.245
12392TIP3    H287645   5.314   1.560   3.140
12393TIP3   OH287646   4.300   1.154   3.153
12393TIP3    H187647   4.326   1.093   3.222
12393TIP3    H287648   4.381   1.171   3.105
12394TIP3   OH287649   4.924   1.311   3.197
12394TIP3    H187650   4.888   1.315   3.285
12394TIP3    H287651   4.917   1.219   3.172
12395TIP3   OH287652   4.393   1.005   3.363
12395TIP3    H187653   4.421   1.011   3.455
12395TIP3    H287654   4.450   0.939   3.325
12396TIP3   OH287655   4.562   0.823   3.239
12396TIP3    H187656   4.553   0.851   3.148
12396TIP3    H287657   4.656   0.818   3.254
12397TIP3   OH287658   5.451   1.011   3.144
12397TIP3    H187659   5.492   1.007   3.057
12397TIP3    H287660   5.441   1.105   3.161
12398TIP3   OH287661   4.616   1.928   3.400
12398TIP3    H187662   4.695   1.879   3.376
12398TIP3    H287663   4.593   1.975   3.319
12399TIP3   OH287664   3.961   1.387   3.209
12399TIP3    H187665   4.035   1.364   3.265
12399TIP3    H287666   3.937   1.305   3.166
12400TIP3   OH287667   5.570   0.922   3.384
12400TIP3    H187668   5.530   0.954   3.303
12400TIP3    H287669   5.500   0.928   3.449
12401TIP3   OH287670   5.527   0.615   3.218
12401TIP3    H187671   5.474   0.691   3.193
12401TIP3    H287672   5.477   0.540   3.187
12402TIP3   OH287673   5.380   0.394   3.131
12402TIP3    H187674   5.411   0.332   3.197
12402TIP3    H287675   5.291   0.366   3.111
12403TIP3   OH287676   5.534   0.238   3.303
12403TIP3    H187677   5.585   0.199   3.232
12403TIP3    H287678   5.595   0.297   3.348
12404TIP3   OH287679   3.966   0.142   3.335
12404TIP3    H187680   4.038   0.193   3.299
12404TIP3    H287681   3.945   0.184   3.418
12405TIP3   OH287682   4.184   0.281   3.248
12405TIP3    H187683   4.268   0.282   3.203
12405TIP3    H287684   4.200   0.324   3.332
12406TIP3   OH287685   4.830   1.778   3.311
12406TIP3    H187686   4.925   1.784   3.313
12406TIP3    H287687   4.811   1.725   3.234
12407TIP3   OH287688   4.220   1.853   3.278
12407TIP3    H187689   4.180   1.820   3.359
12407TIP3    H287690   4.261   1.776   3.239
12408TIP3   OH287691   6.730   0.806   3.270
12408TIP3    H187692   6.787   0.813   3.347
12408TIP3    H287693   6.779   0.752   3.208
12409TIP3   OH287694   6.964   0.843   3.434
12409TIP3    H187695   6.944   0.923   3.482
12409TIP3    H287696   7.012   0.872   3.357
12410TIP3   OH287697   7.402   0.049   3.488
12410TIP3    H187698   7.331   8.132   3.507
12410TIP3    H287699   7.369   0.102   3.415
12411TIP3   OH287700   7.476   1.500   3.246
12411TIP3    H187701   7.494   1.590   3.274
12411TIP3    H287702   7.560   1.455   3.252
12412TIP3   OH287703   6.993   1.763   3.338
12412TIP3    H187704   7.033   1.696   3.283
12412TIP3    H287705   7.015   1.737   3.427
12413TIP3   OH287706   7.094   0.942   3.218
12413TIP3    H187707   7.064   0.955   3.128
12413TIP3    H287708   7.184   0.973   3.218
12414TIP3   OH287709   6.669   0.394   3.364
12414TIP3    H187710   6.646   0.367   3.453
12414TIP3    H287711   6.624   0.331   3.307
12415TIP3   OH287712   6.344   0.428   3.224
12415TIP3    H187713   6.305   0.405   3.309
12415TIP3    H287714   6.276   0.478   3.180
12416TIP3   OH287715   5.728   0.402   3.425
12416TIP3    H187716   5.786   0.449   3.364
12416TIP3    H287717   5.680   0.472   3.470
12417TIP3   OH287718   6.203   0.651   3.391
12417TIP3    H187719   6.152   0.647   3.310
12417TIP3    H287720   6.288   0.684   3.364
12418TIP3   OH287721   6.917   0.482   3.315
12418TIP3    H187722   6.826   0.453   3.325
12418TIP3    H287723   6.943   0.512   3.402
12419TIP3   OH287724   6.980   0.605   3.573
12419TIP3    H187725   7.069   0.569   3.580
12419TIP3    H287726   6.991   0.685   3.523
12420TIP3   OH287727   6.734   1.336   3.457
12420TIP3    H187728   6.701   1.424   3.474
12420TIP3    H287729   6.736   1.294   3.544
12421TIP3   OH287730   7.445   0.685   3.455
12421TIP3    H187731   7.392   0.665   3.378
12421TIP3    H287732   7.466   0.778   3.446
12422TIP3   OH287733   5.830   0.883   3.289
12422TIP3    H187734   5.894   0.933   3.340
12422TIP3    H287735   5.746   0.901   3.332
12423TIP3   OH287736   7.068   1.349   3.331
12423TIP3    H187737   7.050   1.338   3.424
12423TIP3    H287738   6.988   1.318   3.287
12424TIP3   OH287739   7.537   1.761   3.322
12424TIP3    H187740   7.602   1.830   3.334
12424TIP3    H287741   7.457   1.795   3.362
12425TIP3   OH287742   6.436   1.402   3.203
12425TIP3    H187743   6.411   1.319   3.163
12425TIP3    H287744   6.401   1.397   3.292
12426TIP3   OH287745   6.303   1.418   3.449
12426TIP3    H187746   6.318   1.383   3.537
12426TIP3    H287747   6.313   1.512   3.458
12427TIP3   OH287748   6.004   1.051   3.434
12427TIP3    H187749   5.938   1.060   3.503
12427TIP3    H287750   6.012   1.139   3.397
12428TIP3   OH287751   6.633   1.596   3.494
12428TIP3    H187752   6.538   1.599   3.493
12428TIP3    H287753   6.660   1.650   3.420
12429TIP3   OH287754   6.366   1.681   3.492
12429TIP3    H187755   6.378   1.747   3.423
12429TIP3    H287756   6.366   1.731   3.573
12430TIP3   OH287757   6.206   0.377   3.461
12430TIP3    H187758   6.188   0.470   3.456
12430TIP3    H287759   6.227   0.361   3.553
12431TIP3   OH287760   6.085   1.298   3.321
12431TIP3    H187761   6.155   1.345   3.366
12431TIP3    H287762   6.128   1.262   3.243
12432TIP3   OH287763   5.816   0.607   3.253
12432TIP3    H187764   5.837   0.698   3.273
12432TIP3    H287765   5.723   0.608   3.231
12433TIP3   OH287766   6.658   1.565   3.142
12433TIP3    H187767   6.591   1.501   3.167
12433TIP3    H287768   6.732   1.512   3.114
12434TIP3   OH287769   7.105   1.576   3.174
12434TIP3    H187770   7.113   1.498   3.230
12434TIP3    H287771   7.187   1.578   3.125
12435TIP3   OH287772   6.242   1.175   3.109
12435TIP3    H187773   6.251   1.117   3.184
12435TIP3    H287774   6.284   1.128   3.037
12436TIP3   OH287775   6.826   1.289   3.201
12436TIP3    H187776   6.780   1.295   3.284
12436TIP3    H287777   6.804   1.202   3.168
12437TIP3   OH287778   6.270   1.010   3.320
12437TIP3    H187779   6.194   0.995   3.376
12437TIP3    H287780   6.326   0.934   3.334
12438TIP3   OH287781   6.452   0.777   3.294
12438TIP3    H187782   6.429   0.735   3.211
12438TIP3    H287783   6.546   0.791   3.290
12439TIP3   OH287784   7.352   1.042   3.179
12439TIP3    H187785   7.359   1.017   3.087
12439TIP3    H287786   7.336   1.136   3.178
12440TIP3   OH287787   6.463   1.878   3.322
12440TIP3    H187788   6.553   1.846   3.321
12440TIP3    H287789   6.471   1.971   3.344
12441TIP3   OH287790   5.841   1.388   3.212
12441TIP3    H187791   5.915   1.361   3.266
12441TIP3    H287792   5.813   1.308   3.168
12442TIP3   OH287793   7.497   0.953   3.393
12442TIP3    H187794   7.442   0.975   3.318
12442TIP3    H287795   7.518   1.038   3.433
12443TIP3   OH287796   7.321   0.635   3.212
12443TIP3    H187797   7.294   0.683   3.133
12443TIP3    H287798   7.308   0.543   3.190
12444TIP3   OH287799   7.268   0.380   3.116
12444TIP3    H187800   7.298   0.328   3.191
12444TIP3    H287801   7.176   0.355   3.105
12445TIP3   OH287802   7.425   0.265   3.310
12445TIP3    H187803   7.488   0.225   3.249
12445TIP3    H287804   7.476   0.333   3.355
12446TIP3   OH287805   5.844   0.141   3.428
12446TIP3    H187806   5.903   0.167   3.357
12446TIP3    H287807   5.787   0.217   3.441
12447TIP3   OH287808   6.033   0.255   3.260
12447TIP3    H187809   6.069   0.187   3.204
12447TIP3    H287810   6.104   0.277   3.320
12448TIP3   OH287811   6.715   1.779   3.302
12448TIP3    H187812   6.810   1.788   3.315
12448TIP3    H287813   6.707   1.711   3.235
12449TIP3   OH287814   5.944   1.757   3.226
12449TIP3    H187815   5.900   1.818   3.286
12449TIP3    H287816   5.916   1.671   3.256
12450TIP3   OH287817   7.587   0.451   3.438
12450TIP3    H187818   7.668   0.476   3.393
12450TIP3    H287819   7.540   0.533   3.451
12451TIP3   OH287820   8.046   0.671   3.238
12451TIP3    H187821   7.964   0.622   3.239
12451TIP3    H287822   8.040   0.730   3.312
12452TIP3   OH287823   7.738   0.858   3.294
12452TIP3    H187824   7.796   0.925   3.329
12452TIP3    H287825   7.652   0.880   3.329
12453TIP3   OH287826   7.878   1.066   3.400
12453TIP3    H187827   7.827   1.081   3.479
12453TIP3    H287828   7.914   1.152   3.378
12454TIP3   OH287829   8.086   0.343   3.423
12454TIP3    H187830   8.067   0.338   3.517
12454TIP3    H287831   0.011   0.409   3.416
12455TIP3   OH287832   7.989   1.301   3.284
12455TIP3    H187833   8.067   1.341   3.321
12455TIP3    H287834   8.020   1.258   3.204
12456TIP3   OH287835   7.775   0.590   3.252
12456TIP3    H187836   7.756   0.682   3.271
12456TIP3    H287837   7.717   0.568   3.179
12457TIP3   OH287838   8.117   1.152   3.077
12457TIP3    H187839   8.115   1.070   3.125
12457TIP3    H287840   0.047   1.143   3.016
12458TIP3   OH287841   7.721   1.361   3.232
12458TIP3    H187842   7.808   1.344   3.269
12458TIP3    H287843   7.704   1.288   3.174
12459TIP3   OH287844   7.746   0.162   3.413
12459TIP3    H187845   7.799   0.183   3.336
12459TIP3    H287846   7.657   0.151   3.379
12460TIP3   OH287847   7.931   0.252   3.220
12460TIP3    H187848   7.987   0.182   3.187
12460TIP3    H287849   7.979   0.287   3.296
12461TIP3   OH287850   7.892   1.752   3.276
12461TIP3    H187851   7.832   1.826   3.285
12461TIP3    H287852   7.902   1.719   3.365
12462TIP3   OH287853   1.053   2.718   3.261
12462TIP3    H187854   1.099   2.721   3.345
12462TIP3    H287855   1.105   2.659   3.207
12463TIP3   OH287856   1.291   2.756   3.428
12463TIP3    H187857   1.285   2.845   3.462
12463TIP3    H287858   1.339   2.765   3.345
12464TIP3   OH287859   1.631   1.943   3.419
12464TIP3    H187860   1.571   1.988   3.479
12464TIP3    H287861   1.672   2.014   3.369
12465TIP3   OH287862   1.798   3.414   3.192
12465TIP3    H187863   1.813   3.499   3.232
12465TIP3    H287864   1.878   3.364   3.211
12466TIP3   OH287865   1.327   3.621   3.369
12466TIP3    H187866   1.377   3.576   3.300
12466TIP3    H287867   1.377   3.604   3.449
12467TIP3   OH287868   1.434   2.769   3.194
12467TIP3    H187869   1.425   2.791   3.102
12467TIP3    H287870   1.515   2.812   3.222
12468TIP3   OH287871   0.899   2.259   3.307
12468TIP3    H187872   0.927   2.330   3.365
12468TIP3    H287873   0.918   2.179   3.356
12469TIP3   OH287874   0.641   2.292   3.075
12469TIP3    H187875   0.593   2.309   3.156
12469TIP3    H287876   0.578   2.311   3.005
12470TIP3   OH287877   0.115   2.370   3.415
12470TIP3    H187878   0.202   2.387   3.378
12470TIP3    H287879   0.065   2.449   3.396
12471TIP3   OH287880   0.561   2.529   3.368
12471TIP3    H187881   0.481   2.547   3.319
12471TIP3    H287882   0.629   2.579   3.322
12472TIP3   OH287883   1.239   2.370   3.326
12472TIP3    H187884   1.162   2.382   3.383
12472TIP3    H287885   1.312   2.402   3.379
12473TIP3   OH287886   1.432   2.509   3.460
12473TIP3    H187887   1.508   2.526   3.404
12473TIP3    H287888   1.388   2.594   3.469
12474TIP3   OH287889   1.113   3.201   3.425
12474TIP3    H187890   1.055   3.276   3.438
12474TIP3    H287891   1.126   3.165   3.513
12475TIP3   OH287892   1.790   2.536   3.498
12475TIP3    H187893   1.732   2.519   3.424
12475TIP3    H287894   1.822   2.625   3.484
12476TIP3   OH287895   0.177   2.769   3.356
12476TIP3    H187896   0.221   2.854   3.353
12476TIP3    H287897   0.165   2.752   3.450
12477TIP3   OH287898   1.388   3.265   3.417
12477TIP3    H187899   1.396   3.207   3.493
12477TIP3    H287900   1.298   3.252   3.387
12478TIP3   OH287901   1.861   3.656   3.312
12478TIP3    H187902   1.936   3.712   3.331
12478TIP3    H287903   1.787   3.700   3.354
12479TIP3   OH287904   0.745   3.344   3.206
12479TIP3    H187905   0.813   3.282   3.182
12479TIP3    H287906   0.715   3.314   3.292
12480TIP3   OH287907   0.617   3.306   3.465
12480TIP3    H187908   0.652   3.269   3.546
12480TIP3    H287909   0.640   3.399   3.468
12481TIP3   OH287910   0.294   3.003   3.437
12481TIP3    H187911   0.349   3.005   3.515
12481TIP3    H287912   0.325   3.076   3.383
12482TIP3   OH287913   0.951   3.417   3.457
12482TIP3    H187914   0.863   3.450   3.475
12482TIP3    H287915   1.002   3.494   3.434
12483TIP3   OH287916   0.710   3.558   3.496
12483TIP3    H187917   0.730   3.631   3.437
12483TIP3    H287918   0.714   3.596   3.583
12484TIP3   OH287919   0.573   2.255   3.390
12484TIP3    H187920   0.575   2.351   3.394
12484TIP3    H287921   0.665   2.229   3.395
12485TIP3   OH287922   0.403   3.223   3.310
12485TIP3    H187923   0.474   3.271   3.352
12485TIP3    H287924   0.447   3.162   3.251
12486TIP3   OH287925   0.293   2.538   3.244
12486TIP3    H187926   0.252   2.619   3.275
12486TIP3    H287927   0.238   2.510   3.170
12487TIP3   OH287928   1.005   3.502   3.156
12487TIP3    H187929   0.947   3.430   3.180
12487TIP3    H287930   1.087   3.459   3.131
12488TIP3   OH287931   1.480   3.442   3.214
12488TIP3    H187932   1.464   3.373   3.278
12488TIP3    H287933   1.575   3.455   3.217
12489TIP3   OH287934   0.519   3.016   3.179
12489TIP3    H187935   0.543   2.963   3.255
12489TIP3    H287936   0.597   3.018   3.124
12490TIP3   OH287937   0.972   3.192   3.180
12490TIP3    H187938   1.029   3.190   3.257
12490TIP3    H287939   0.996   3.114   3.130
12491TIP3   OH287940   0.625   2.863   3.382
12491TIP3    H187941   0.672   2.868   3.465
12491TIP3    H287942   0.678   2.803   3.328
12492TIP3   OH287943   0.772   2.683   3.234
12492TIP3    H187944   0.769   2.703   3.140
12492TIP3    H287945   0.865   2.689   3.256
12493TIP3   OH287946   1.674   2.909   3.216
12493TIP3    H187947   1.700   2.887   3.126
12493TIP3    H287948   1.659   3.003   3.214
12494TIP3   OH287949   0.815   3.793   3.399
12494TIP3    H187950   0.905   3.761   3.392
12494TIP3    H287951   0.803   3.846   3.320
12495TIP3   OH287952   0.130   3.230   3.251
12495TIP3    H187953   0.222   3.246   3.273
12495TIP3    H287954   0.133   3.184   3.167
12496TIP3   OH287955   1.845   2.793   3.401
12496TIP3    H187956   1.782   2.833   3.342
12496TIP3    H287957   1.872   2.864   3.460
12497TIP3   OH287958   1.636   2.516   3.264
12497TIP3    H187959   1.641   2.580   3.193
12497TIP3    H287960   1.623   2.432   3.220
12498TIP3   OH287961   1.579   2.279   3.122
12498TIP3    H187962   1.622   2.225   3.188
12498TIP3    H287963   1.489   2.246   3.118
12499TIP3   OH287964   1.761   2.150   3.288
12499TIP3    H187965   1.808   2.091   3.228
12499TIP3    H287966   1.830   2.201   3.330
12500TIP3   OH287967   0.115   1.973   3.350
12500TIP3    H187968   0.189   2.029   3.331
12500TIP3    H287969   0.149   1.908   3.412
12501TIP3   OH287970   0.345   2.120   3.308
12501TIP3    H187971   0.375   2.087   3.223
12501TIP3    H287972   0.421   2.167   3.343
12502TIP3   OH287973   1.059   3.663   3.373
12502TIP3    H187974   1.155   3.663   3.377
12502TIP3    H287975   1.039   3.622   3.289
12503TIP3   OH287976   0.273   3.619   3.190
12503TIP3    H187977   0.258   3.684   3.258
12503TIP3    H287978   0.365   3.594   3.200
12504TIP3   OH287979   2.948   2.692   3.272
12504TIP3    H187980   3.007   2.705   3.347
12504TIP3    H287981   2.998   2.640   3.210
12505TIP3   OH287982   3.194   2.758   3.406
12505TIP3    H187983   3.183   2.845   3.444
12505TIP3    H287984   3.235   2.775   3.321
12506TIP3   OH287985   3.487   1.928   3.439
12506TIP3    H187986   3.486   1.936   3.534
12506TIP3    H287987   3.530   2.008   3.409
12507TIP3   OH287988   3.705   3.390   3.241
12507TIP3    H187989   3.713   3.479   3.275
12507TIP3    H287990   3.795   3.357   3.240
12508TIP3   OH287991   3.228   3.679   3.360
12508TIP3    H187992   3.277   3.609   3.316
12508TIP3    H287993   3.233   3.656   3.453
12509TIP3   OH287994   3.296   2.814   3.155
12509TIP3    H187995   3.297   2.829   3.060
12509TIP3    H287996   3.381   2.844   3.186
12510TIP3   OH287997   2.857   2.245   3.319
12510TIP3    H187998   2.851   2.236   3.414
12510TIP3    H287999   2.803   2.173   3.285
12511TIP3   OH288000   2.544   2.315   3.146
12511TIP3    H188001   2.519   2.307   3.238
12511TIP3    H288002   2.483   2.379   3.110
12512TIP3   OH288003   1.938   2.307   3.437
12512TIP3    H188004   2.005   2.346   3.381
12512TIP3    H288005   1.889   2.382   3.472
12513TIP3   OH288006   2.459   2.540   3.335
12513TIP3    H188007   2.402   2.544   3.258
12513TIP3    H288008   2.535   2.594   3.312
12514TIP3   OH288009   3.108   2.348   3.284
12514TIP3    H188010   3.020   2.314   3.301
12514TIP3    H288011   3.132   2.393   3.365
12515TIP3   OH288012   3.182   2.499   3.506
12515TIP3    H188013   3.262   2.458   3.538
12515TIP3    H288014   3.209   2.585   3.475
12516TIP3   OH288015   2.958   3.217   3.469
12516TIP3    H188016   2.922   3.306   3.471
12516TIP3    H288017   2.968   3.193   3.560
12517TIP3   OH288018   3.658   2.571   3.483
12517TIP3    H188019   3.610   2.551   3.403
12517TIP3    H288020   3.687   2.662   3.473
12518TIP3   OH288021   2.077   2.746   3.255
12518TIP3    H188022   2.123   2.820   3.293
12518TIP3    H288023   1.991   2.747   3.297
12519TIP3   OH288024   3.276   3.244   3.294
12519TIP3    H188025   3.253   3.250   3.387
12519TIP3    H288026   3.193   3.232   3.249
12520TIP3   OH288027   3.761   3.643   3.344
12520TIP3    H188028   3.830   3.709   3.355
12520TIP3    H288029   3.683   3.684   3.383
12521TIP3   OH288030   2.659   3.315   3.190
12521TIP3    H188031   2.666   3.230   3.148
12521TIP3    H288032   2.629   3.295   3.279
12522TIP3   OH288033   2.539   3.319   3.447
12522TIP3    H188034   2.557   3.287   3.535
12522TIP3    H288035   2.551   3.414   3.453
12523TIP3   OH288036   2.152   2.969   3.395
12523TIP3    H188037   2.133   2.947   3.486
12523TIP3    H288038   2.207   3.048   3.400
12524TIP3   OH288039   2.857   3.476   3.471
12524TIP3    H188040   2.764   3.495   3.479
12524TIP3    H288041   2.887   3.532   3.399
12525TIP3   OH288042   2.599   3.581   3.497
12525TIP3    H188043   2.620   3.650   3.433
12525TIP3    H288044   2.599   3.626   3.581
12526TIP3   OH288045   2.432   2.278   3.413
12526TIP3    H188046   2.427   2.373   3.401
12526TIP3    H288047   2.484   2.267   3.493
12527TIP3   OH288048   2.303   3.210   3.355
12527TIP3    H188049   2.382   3.259   3.376
12527TIP3    H288050   2.326   3.161   3.276
12528TIP3   OH288051   2.087   2.466   3.267
12528TIP3    H188052   2.094   2.561   3.272
12528TIP3    H288053   2.086   2.446   3.174
12529TIP3   OH288054   2.900   3.446   3.141
12529TIP3    H188055   2.812   3.412   3.154
12529TIP3    H288056   2.956   3.368   3.147
12530TIP3   OH288057   3.355   3.495   3.208
12530TIP3    H188058   3.335   3.405   3.232
12530TIP3    H288059   3.415   3.489   3.134
12531TIP3   OH288060   2.410   3.059   3.150
12531TIP3    H188061   2.424   2.994   3.219
12531TIP3    H288062   2.496   3.071   3.111
12532TIP3   OH288063   3.019   3.201   3.200
12532TIP3    H188064   2.986   3.197   3.290
12532TIP3    H288065   3.014   3.111   3.168
12533TIP3   OH288066   2.499   2.894   3.350
12533TIP3    H188067   2.505   2.890   3.445
12533TIP3    H288068   2.562   2.829   3.319
12534TIP3   OH288069   2.676   2.707   3.243
12534TIP3    H188070   2.665   2.737   3.153
12534TIP3    H288071   2.771   2.696   3.253
12535TIP3   OH288072   3.554   2.907   3.200
12535TIP3    H188073   3.577   2.892   3.109
12535TIP3    H288074   3.548   3.002   3.208
12536TIP3   OH288075   2.713   3.783   3.353
12536TIP3    H188076   2.801   3.751   3.334
12536TIP3    H288077   2.703   3.860   3.298
12537TIP3   OH288078   2.055   3.279   3.204
12537TIP3    H188079   2.124   3.264   3.268
12537TIP3    H288080   2.040   3.193   3.164
12538TIP3   OH288081   3.719   2.835   3.409
12538TIP3    H188082   3.657   2.853   3.339
12538TIP3    H288083   3.752   2.921   3.435
12539TIP3   OH288084   3.552   2.521   3.230
12539TIP3    H188085   3.532   2.575   3.154
12539TIP3    H288086   3.538   2.431   3.199
12540TIP3   OH288087   3.501   2.263   3.135
12540TIP3    H188088   3.524   2.207   3.209
12540TIP3    H288089   3.412   2.237   3.112
12541TIP3   OH288090   3.660   2.137   3.352
12541TIP3    H188091   3.732   2.077   3.331
12541TIP3    H288092   3.703   2.221   3.369
12542TIP3   OH288093   2.037   1.986   3.386
12542TIP3    H188094   2.104   2.023   3.328
12542TIP3    H288095   2.013   2.058   3.444
12543TIP3   OH288096   2.246   2.134   3.254
12543TIP3    H188097   2.300   2.079   3.198
12543TIP3    H288098   2.309   2.180   3.310
12544TIP3   OH288099   2.955   3.666   3.294
12544TIP3    H188100   3.048   3.678   3.308
12544TIP3    H288101   2.949   3.602   3.223
12545TIP3   OH288102   2.259   3.681   3.201
12545TIP3    H188103   2.231   3.681   3.292
12545TIP3    H288104   2.325   3.612   3.197
12546TIP3   OH288105   4.844   2.712   3.257
12546TIP3    H188106   4.900   2.726   3.334
12546TIP3    H288107   4.896   2.653   3.202
12547TIP3   OH288108   5.066   2.769   3.430
12547TIP3    H188109   5.045   2.859   3.457
12547TIP3    H288110   5.118   2.780   3.350
12548TIP3   OH288111   5.453   1.929   3.460
12548TIP3    H188112   5.359   1.924   3.478
12548TIP3    H288113   5.464   2.006   3.404
12549TIP3   OH288114   5.548   3.394   3.258
12549TIP3    H188115   5.570   3.486   3.273
12549TIP3    H288116   5.632   3.348   3.268
12550TIP3   OH288117   5.098   3.627   3.354
12550TIP3    H188118   5.156   3.577   3.296
12550TIP3    H288119   5.120   3.599   3.442
12551TIP3   OH288120   5.204   2.808   3.202
12551TIP3    H188121   5.184   2.825   3.110
12551TIP3    H288122   5.295   2.837   3.213
12552TIP3   OH288123   4.773   2.229   3.324
12552TIP3    H188124   4.752   2.217   3.416
12552TIP3    H288125   4.719   2.165   3.278
12553TIP3   OH288126   4.445   2.277   3.186
12553TIP3    H188127   4.408   2.263   3.273
12553TIP3    H288128   4.384   2.335   3.142
12554TIP3   OH288129   3.812   2.346   3.451
12554TIP3    H188130   3.875   2.374   3.384
12554TIP3    H288131   3.760   2.425   3.469
12555TIP3   OH288132   4.338   2.527   3.338
12555TIP3    H188133   4.294   2.520   3.254
12555TIP3    H288134   4.420   2.573   3.318
12556TIP3   OH288135   5.006   2.360   3.289
12556TIP3    H188136   4.921   2.318   3.302
12556TIP3    H288137   5.026   2.401   3.373
12557TIP3   OH288138   5.075   2.506   3.518
12557TIP3    H188139   5.159   2.477   3.552
12557TIP3    H288140   5.090   2.596   3.487
12558TIP3   OH288141   4.840   3.206   3.454
12558TIP3    H188142   4.809   3.297   3.457
12558TIP3    H288143   4.832   3.175   3.544
12559TIP3   OH288144   5.589   2.558   3.442
12559TIP3    H188145   5.533   2.543   3.366
12559TIP3    H288146   5.601   2.653   3.445
12560TIP3   OH288147   3.955   2.738   3.286
12560TIP3    H188148   4.022   2.792   3.328
12560TIP3    H288149   3.874   2.759   3.332
12561TIP3   OH288150   5.173   3.227   3.353
12561TIP3    H188151   5.152   3.218   3.446
12561TIP3    H288152   5.095   3.197   3.308
12562TIP3   OH288153   5.609   3.656   3.302
12562TIP3    H188154   5.682   3.718   3.307
12562TIP3    H288155   5.532   3.708   3.326
12563TIP3   OH288156   4.575   3.312   3.187
12563TIP3    H188157   4.579   3.228   3.141
12563TIP3    H288158   4.537   3.290   3.273
12564TIP3   OH288159   4.434   3.300   3.437
12564TIP3    H188160   4.448   3.272   3.528
12564TIP3    H288161   4.440   3.396   3.441
12565TIP3   OH288162   4.116   2.917   3.422
12565TIP3    H188163   4.065   2.909   3.503
12565TIP3    H288164   4.134   3.010   3.413
12566TIP3   OH288165   4.749   3.469   3.474
12566TIP3    H188166   4.654   3.480   3.480
12566TIP3    H288167   4.776   3.533   3.408
12567TIP3   OH288168   4.487   3.561   3.484
12567TIP3    H188169   4.503   3.640   3.432
12567TIP3    H288170   4.465   3.595   3.571
12568TIP3   OH288171   4.299   2.265   3.430
12568TIP3    H188172   4.294   2.359   3.410
12568TIP3    H288173   4.356   2.260   3.507
12569TIP3   OH288174   4.197   3.187   3.356
12569TIP3    H188175   4.273   3.238   3.381
12569TIP3    H288176   4.221   3.147   3.272
12570TIP3   OH288177   3.952   2.463   3.246
12570TIP3    H188178   3.964   2.556   3.262
12570TIP3    H288179   3.930   2.456   3.153
12571TIP3   OH288180   4.773   3.497   3.110
12571TIP3    H188181   4.706   3.433   3.136
12571TIP3    H288182   4.851   3.444   3.093
12572TIP3   OH288183   5.261   3.448   3.210
12572TIP3    H188184   5.231   3.377   3.268
12572TIP3    H288185   5.356   3.444   3.215
12573TIP3   OH288186   4.310   3.066   3.134
12573TIP3    H188187   4.328   3.000   3.200
12573TIP3    H288188   4.396   3.085   3.095
12574TIP3   OH288189   4.951   3.155   3.205
12574TIP3    H188190   4.892   3.161   3.281
12574TIP3    H288191   4.921   3.078   3.157
12575TIP3   OH288192   4.379   2.894   3.328
12575TIP3    H188193   4.303   2.870   3.380
12575TIP3    H288194   4.438   2.818   3.335
12576TIP3   OH288195   4.567   2.693   3.262
12576TIP3    H188196   4.546   2.729   3.176
12576TIP3    H288197   4.662   2.691   3.265
12577TIP3   OH288198   5.465   2.901   3.195
12577TIP3    H188199   5.469   2.885   3.101
12577TIP3    H288200   5.448   2.995   3.203
12578TIP3   OH288201   4.594   3.802   3.398
12578TIP3    H188202   4.681   3.768   3.375
12578TIP3    H288203   4.573   3.863   3.328
12579TIP3   OH288204   3.957   3.270   3.225
12579TIP3    H188205   4.035   3.251   3.278
12579TIP3    H288206   3.937   3.188   3.181
12580TIP3   OH288207   5.619   2.835   3.408
12580TIP3    H188208   5.563   2.845   3.332
12580TIP3    H288209   5.632   2.923   3.442
12581TIP3   OH288210   5.454   2.521   3.204
12581TIP3    H188211   5.427   2.578   3.132
12581TIP3    H288212   5.428   2.433   3.176
12582TIP3   OH288213   5.373   2.269   3.121
12582TIP3    H188214   5.395   2.221   3.200
12582TIP3    H288215   5.281   2.246   3.103
12583TIP3   OH288216   5.541   2.153   3.325
12583TIP3    H188217   5.581   2.102   3.255
12583TIP3    H288218   5.609   2.215   3.351
12584TIP3   OH288219   3.901   1.980   3.333
12584TIP3    H188220   3.969   2.037   3.298
12584TIP3    H288221   3.945   1.929   3.401
12585TIP3   OH288222   4.133   2.110   3.247
12585TIP3    H188223   4.174   2.024   3.246
12585TIP3    H288224   4.187   2.162   3.307
12586TIP3   OH288225   4.828   3.677   3.312
12586TIP3    H188226   4.923   3.673   3.324
12586TIP3    H288227   4.812   3.630   3.230
12587TIP3   OH288228   4.140   3.639   3.225
12587TIP3    H188229   4.127   3.637   3.320
12587TIP3    H288230   4.210   3.575   3.208
12588TIP3   OH288231   6.754   2.707   3.264
12588TIP3    H188232   6.815   2.731   3.334
12588TIP3    H288233   6.806   2.652   3.205
12589TIP3   OH288234   6.977   2.754   3.428
12589TIP3    H188235   6.978   2.839   3.473
12589TIP3    H288236   7.027   2.769   3.348
12590TIP3   OH288237   7.325   1.906   3.427
12590TIP3    H188238   7.233   1.911   3.453
12590TIP3    H288239   7.348   1.995   3.402
12591TIP3   OH288240   7.428   3.370   3.263
12591TIP3    H188241   7.445   3.463   3.276
12591TIP3    H288242   7.508   3.326   3.291
12592TIP3   OH288243   7.007   3.615   3.335
12592TIP3    H188244   7.053   3.556   3.275
12592TIP3    H288245   7.053   3.606   3.418
12593TIP3   OH288246   7.110   2.822   3.201
12593TIP3    H188247   7.076   2.836   3.113
12593TIP3    H288248   7.204   2.838   3.194
12594TIP3   OH288249   6.643   2.236   3.333
12594TIP3    H188250   6.621   2.214   3.424
12594TIP3    H288251   6.578   2.189   3.281
12595TIP3   OH288252   6.301   2.310   3.168
12595TIP3    H188253   6.258   2.297   3.253
12595TIP3    H288254   6.230   2.333   3.108
12596TIP3   OH288255   5.742   2.333   3.419
12596TIP3    H188256   5.816   2.369   3.371
12596TIP3    H288257   5.684   2.408   3.433
12597TIP3   OH288258   6.172   2.520   3.386
12597TIP3    H188259   6.086   2.512   3.346
12597TIP3    H288260   6.224   2.567   3.320
12598TIP3   OH288261   6.890   2.345   3.297
12598TIP3    H188262   6.802   2.311   3.310
12598TIP3    H288263   6.911   2.391   3.378
12599TIP3   OH288264   6.953   2.494   3.527
12599TIP3    H188265   7.036   2.454   3.550
12599TIP3    H288266   6.976   2.579   3.490
12600TIP3   OH288267   6.732   3.175   3.450
12600TIP3    H188268   6.689   3.260   3.443
12600TIP3    H288269   6.726   3.152   3.543
12601TIP3   OH288270   7.422   2.571   3.491
12601TIP3    H188271   7.368   2.545   3.416
12601TIP3    H288272   7.462   2.653   3.464
12602TIP3   OH288273   5.874   2.762   3.313
12602TIP3    H188274   5.921   2.829   3.363
12602TIP3    H288275   5.783   2.772   3.340
12603TIP3   OH288276   7.091   3.174   3.312
12603TIP3    H188277   7.079   3.265   3.340
12603TIP3    H288278   7.009   3.152   3.268
12604TIP3   OH288279   7.488   3.633   3.326
12604TIP3    H188280   7.564   3.692   3.326
12604TIP3    H288281   7.418   3.684   3.366
12605TIP3   OH288282   6.446   3.331   3.188
12605TIP3    H188283   6.450   3.247   3.142
12605TIP3    H288284   6.422   3.308   3.277
12606TIP3   OH288285   6.296   3.309   3.448
12606TIP3    H188286   6.330   3.276   3.531
12606TIP3    H288287   6.308   3.404   3.453
12607TIP3   OH288288   5.961   2.985   3.463
12607TIP3    H188289   5.899   3.037   3.515
12607TIP3    H288290   6.008   3.050   3.410
12608TIP3   OH288291   6.606   3.417   3.452
12608TIP3    H188292   6.524   3.455   3.483
12608TIP3    H288293   6.659   3.493   3.425
12609TIP3   OH288294   6.368   3.564   3.508
12609TIP3    H188295   6.390   3.630   3.442
12609TIP3    H288296   6.372   3.611   3.591
12610TIP3   OH288297   6.190   2.247   3.423
12610TIP3    H188298   6.188   2.342   3.435
12610TIP3    H288299   6.162   2.211   3.508
12611TIP3   OH288300   6.074   3.201   3.320
12611TIP3    H188301   6.148   3.254   3.350
12611TIP3    H288302   6.108   3.152   3.246
12612TIP3   OH288303   5.929   2.493   3.263
12612TIP3    H188304   5.899   2.583   3.275
12612TIP3    H288305   5.901   2.469   3.175
12613TIP3   OH288306   6.661   3.506   3.136
12613TIP3    H188307   6.593   3.443   3.158
12613TIP3    H288308   6.736   3.453   3.109
12614TIP3   OH288309   7.154   3.441   3.173
12614TIP3    H188310   7.230   3.412   3.224
12614TIP3    H288311   7.190   3.467   3.089
12615TIP3   OH288312   6.205   3.042   3.139
12615TIP3    H188313   6.219   2.970   3.199
12615TIP3    H288314   6.291   3.060   3.101
12616TIP3   OH288315   6.843   3.139   3.197
12616TIP3    H188316   6.793   3.142   3.278
12616TIP3    H288317   6.807   3.065   3.149
12617TIP3   OH288318   6.265   2.848   3.324
12617TIP3    H188319   6.234   2.838   3.414
12617TIP3    H288320   6.348   2.800   3.321
12618TIP3   OH288321   6.482   2.680   3.291
12618TIP3    H188322   6.463   2.651   3.202
12618TIP3    H288323   6.577   2.694   3.292
12619TIP3   OH288324   7.378   2.875   3.139
12619TIP3    H188325   7.409   2.847   3.053
12619TIP3    H288326   7.364   2.969   3.131
12620TIP3   OH288327   6.474   3.762   3.360
12620TIP3    H188328   6.568   3.743   3.357
12620TIP3    H288329   6.462   3.833   3.298
12621TIP3   OH288330   5.791   3.234   3.296
12621TIP3    H188331   5.887   3.238   3.292
12621TIP3    H288332   5.766   3.179   3.222
12622TIP3   OH288333   7.480   2.841   3.400
12622TIP3    H188334   7.438   2.836   3.314
12622TIP3    H288335   7.511   2.931   3.407
12623TIP3   OH288336   7.299   2.523   3.247
12623TIP3    H188337   7.273   2.588   3.181
12623TIP3    H288338   7.296   2.439   3.201
12624TIP3   OH288339   7.261   2.275   3.118
12624TIP3    H188340   7.281   2.223   3.195
12624TIP3    H288341   7.170   2.253   3.097
12625TIP3   OH288342   7.422   2.152   3.342
12625TIP3    H188343   7.462   2.104   3.269
12625TIP3    H288344   7.484   2.222   3.361
12626TIP3   OH288345   5.831   1.962   3.372
12626TIP3    H188346   5.872   2.034   3.323
12626TIP3    H288347   5.829   1.993   3.462
12627TIP3   OH288348   6.027   2.120   3.241
12627TIP3    H188349   6.077   2.044   3.212
12627TIP3    H288350   6.079   2.159   3.311
12628TIP3   OH288351   6.732   3.652   3.359
12628TIP3    H188352   6.827   3.657   3.357
12628TIP3    H288353   6.708   3.618   3.272
12629TIP3   OH288354   5.995   3.646   3.166
12629TIP3    H188355   5.974   3.652   3.260
12629TIP3    H288356   6.069   3.585   3.162
12630TIP3   OH288357   7.588   2.352   3.448
12630TIP3    H188358   7.645   2.391   3.382
12630TIP3    H288359   7.528   2.422   3.473
12631TIP3   OH288360   8.106   2.590   3.366
12631TIP3    H188361   8.060   2.560   3.287
12631TIP3    H288362   0.012   2.666   3.336
12632TIP3   OH288363   7.737   2.804   3.280
12632TIP3    H188364   7.791   2.864   3.331
12632TIP3    H288365   7.656   2.795   3.330
12633TIP3   OH288366   7.860   2.991   3.448
12633TIP3    H188367   7.867   3.013   3.541
12633TIP3    H288368   7.891   3.070   3.402
12634TIP3   OH288369   8.088   2.166   3.445
12634TIP3    H188370   0.002   2.240   3.430
12634TIP3    H288371   8.141   2.089   3.423
12635TIP3   OH288372   7.947   3.235   3.327
12635TIP3    H188373   8.013   3.301   3.347
12635TIP3    H288374   7.988   3.178   3.261
12636TIP3   OH288375   7.697   2.518   3.257
12636TIP3    H188376   7.734   2.606   3.248
12636TIP3    H288377   7.668   2.495   3.169
12637TIP3   OH288378   8.035   3.033   3.163
12637TIP3    H188379   8.036   2.948   3.208
12637TIP3    H288380   8.119   3.038   3.118
12638TIP3   OH288381   7.671   3.229   3.322
12638TIP3    H188382   7.765   3.245   3.321
12638TIP3    H288383   7.656   3.170   3.248
12639TIP3   OH288384   7.730   1.964   3.356
12639TIP3    H188385   7.765   2.037   3.305
12639TIP3    H288386   7.741   1.991   3.447
12640TIP3   OH288387   7.905   2.140   3.232
12640TIP3    H188388   7.967   2.077   3.195
12640TIP3    H288389   7.953   2.183   3.303
12641TIP3   OH288390   7.866   3.656   3.255
12641TIP3    H188391   7.800   3.715   3.293
12641TIP3    H288392   7.910   3.617   3.330
12642TIP3   OH288393   1.061   4.593   3.276
12642TIP3    H188394   1.118   4.606   3.352
12642TIP3    H288395   1.110   4.535   3.219
12643TIP3   OH288396   1.315   4.618   3.410
12643TIP3    H188397   1.333   4.698   3.460
12643TIP3    H288398   1.357   4.632   3.325
12644TIP3   OH288399   1.669   3.818   3.428
12644TIP3    H188400   1.634   3.841   3.515
12644TIP3    H288401   1.688   3.903   3.388
12645TIP3   OH288402   1.806   5.280   3.226
12645TIP3    H188403   1.820   5.365   3.266
12645TIP3    H288404   1.892   5.238   3.229
12646TIP3   OH288405   1.327   5.536   3.337
12646TIP3    H188406   1.378   5.470   3.290
12646TIP3    H288407   1.350   5.522   3.429
12647TIP3   OH288408   1.430   4.662   3.164
12647TIP3    H188409   1.417   4.693   3.074
12647TIP3    H288410   1.513   4.701   3.191
12648TIP3   OH288411   0.987   4.109   3.333
12648TIP3    H188412   0.971   4.095   3.426
12648TIP3    H288413   0.932   4.044   3.289
12649TIP3   OH288414   0.676   4.180   3.179
12649TIP3    H188415   0.644   4.172   3.269
12649TIP3    H288416   0.617   4.241   3.137
12650TIP3   OH288417   0.179   4.257   3.454
12650TIP3    H188418   0.239   4.305   3.398
12650TIP3    H288419   0.109   4.320   3.473
12651TIP3   OH288420   0.548   4.411   3.375
12651TIP3    H188421   0.466   4.421   3.327
12651TIP3    H288422   0.612   4.459   3.323
12652TIP3   OH288423   1.217   4.243   3.279
12652TIP3    H188424   1.132   4.200   3.295
12652TIP3    H288425   1.244   4.273   3.366
12653TIP3   OH288426   1.299   4.362   3.519
12653TIP3    H188427   1.384   4.321   3.536
12653TIP3    H288428   1.322   4.448   3.482
12654TIP3   OH288429   1.073   5.107   3.452
12654TIP3    H188430   1.040   5.196   3.464
12654TIP3    H288431   1.084   5.074   3.541
12655TIP3   OH288432   1.825   4.422   3.435
12655TIP3    H188433   1.759   4.409   3.367
12655TIP3    H288434   1.835   4.517   3.442
12656TIP3   OH288435   0.149   4.661   3.299
12656TIP3    H188436   0.186   4.735   3.346
12656TIP3    H288437   0.076   4.631   3.354
12657TIP3   OH288438   1.408   5.125   3.334
12657TIP3    H188439   1.388   5.120   3.427
12657TIP3    H288440   1.327   5.098   3.291
12658TIP3   OH288441   1.866   5.522   3.344
12658TIP3    H188442   1.939   5.583   3.352
12658TIP3    H288443   1.791   5.568   3.383
12659TIP3   OH288444   0.756   5.214   3.161
12659TIP3    H188445   0.765   5.130   3.117
12659TIP3    H288446   0.730   5.192   3.250
12660TIP3   OH288447   0.653   5.193   3.429
12660TIP3    H188448   0.673   5.157   3.516
12660TIP3    H288449   0.667   5.287   3.438
12661TIP3   OH288450   0.263   4.864   3.444
12661TIP3    H188451   0.295   4.845   3.532
12661TIP3    H288452   0.322   4.932   3.411
12662TIP3   OH288453   0.973   5.365   3.487
12662TIP3    H188454   0.878   5.377   3.488
12662TIP3    H288455   1.006   5.432   3.428
12663TIP3   OH288456   0.707   5.453   3.487
12663TIP3    H188457   0.724   5.533   3.439
12663TIP3    H288458   0.680   5.483   3.574
12664TIP3   OH288459   0.556   4.143   3.435
12664TIP3    H188460   0.543   4.238   3.428
12664TIP3    H288461   0.627   4.133   3.498
12665TIP3   OH288462   0.416   5.084   3.348
12665TIP3    H188463   0.492   5.137   3.370
12665TIP3    H288464   0.444   5.029   3.275
12666TIP3   OH288465   0.290   4.430   3.269
12666TIP3    H188466   0.253   4.516   3.286
12666TIP3    H288467   0.230   4.390   3.205
12667TIP3   OH288468   0.974   5.392   3.136
12667TIP3    H188469   0.907   5.325   3.148
12667TIP3    H288470   1.054   5.344   3.114
12668TIP3   OH288471   1.466   5.351   3.185
12668TIP3    H188472   1.461   5.275   3.242
12668TIP3    H288473   1.556   5.353   3.155
12669TIP3   OH288474   0.534   4.920   3.165
12669TIP3    H188475   0.557   4.863   3.238
12669TIP3    H288476   0.617   4.935   3.119
12670TIP3   OH288477   1.172   5.063   3.197
12670TIP3    H188478   1.122   5.068   3.278
12670TIP3    H288479   1.149   4.977   3.160
12671TIP3   OH288480   0.625   4.775   3.379
12671TIP3    H188481   0.653   4.778   3.470
12671TIP3    H288482   0.681   4.707   3.339
12672TIP3   OH288483   0.787   4.588   3.253
12672TIP3    H188484   0.771   4.616   3.163
12672TIP3    H288485   0.882   4.583   3.260
12673TIP3   OH288486   1.668   4.798   3.197
12673TIP3    H188487   1.682   4.781   3.104
12673TIP3    H288488   1.661   4.893   3.203
12674TIP3   OH288489   0.819   5.697   3.406
12674TIP3    H188490   0.906   5.660   3.387
12674TIP3    H288491   0.797   5.749   3.329
12675TIP3   OH288492   0.139   5.118   3.288
12675TIP3    H188493   0.231   5.124   3.314
12675TIP3    H288494   0.133   5.037   3.237
12676TIP3   OH288495   1.823   4.695   3.407
12676TIP3    H188496   1.758   4.738   3.352
12676TIP3    H288497   1.802   4.723   3.496
12677TIP3   OH288498   1.658   4.404   3.218
12677TIP3    H188499   1.637   4.458   3.142
12677TIP3    H288500   1.640   4.314   3.190
12678TIP3   OH288501   1.589   4.159   3.097
12678TIP3    H188502   1.630   4.112   3.170
12678TIP3    H288503   1.499   4.124   3.095
12679TIP3   OH288504   1.759   4.045   3.288
12679TIP3    H188505   1.815   3.993   3.230
12679TIP3    H288506   1.821   4.094   3.343
12680TIP3   OH288507   0.203   3.843   3.346
12680TIP3    H188508   0.262   3.910   3.312
12680TIP3    H288509   0.134   3.892   3.390
12681TIP3   OH288510   0.398   4.010   3.236
12681TIP3    H188511   0.452   3.947   3.188
12681TIP3    H288512   0.455   4.045   3.304
12682TIP3   OH288513   1.051   5.575   3.325
12682TIP3    H188514   1.147   5.575   3.328
12682TIP3    H288515   1.029   5.524   3.247
12683TIP3   OH288516   0.275   5.549   3.163
12683TIP3    H188517   0.246   5.596   3.241
12683TIP3    H288518   0.356   5.506   3.190
12684TIP3   OH288519   2.954   4.558   3.295
12684TIP3    H188520   3.014   4.587   3.364
12684TIP3    H288521   2.974   4.465   3.284
12685TIP3   OH288522   3.178   4.646   3.439
12685TIP3    H188523   3.174   4.709   3.511
12685TIP3    H288524   3.228   4.691   3.371
12686TIP3   OH288525   3.548   3.799   3.437
12686TIP3    H188526   3.454   3.791   3.421
12686TIP3    H288527   3.570   3.887   3.404
12687TIP3   OH288528   3.668   5.272   3.249
12687TIP3    H188529   3.684   5.362   3.277
12687TIP3    H288530   3.755   5.233   3.240
12688TIP3   OH288531   3.218   5.529   3.335
12688TIP3    H188532   3.265   5.454   3.299
12688TIP3    H288533   3.250   5.536   3.425
12689TIP3   OH288534   3.300   4.778   3.227
12689TIP3    H188535   3.396   4.772   3.224
12689TIP3    H288536   3.284   4.867   3.260
12690TIP3   OH288537   2.872   4.157   3.317
12690TIP3    H188538   2.864   4.136   3.410
12690TIP3    H288539   2.816   4.092   3.273
12691TIP3   OH288540   2.542   4.210   3.188
12691TIP3    H188541   2.518   4.188   3.278
12691TIP3    H288542   2.472   4.268   3.158
12692TIP3   OH288543   1.950   4.182   3.437
12692TIP3    H188544   2.045   4.193   3.438
12692TIP3    H288545   1.915   4.271   3.442
12693TIP3   OH288546   2.397   4.419   3.375
12693TIP3    H188547   2.311   4.422   3.334
12693TIP3    H288548   2.452   4.476   3.321
12694TIP3   OH288549   3.122   4.252   3.287
12694TIP3    H188550   3.033   4.218   3.297
12694TIP3    H288551   3.144   4.286   3.373
12695TIP3   OH288552   3.184   4.384   3.518
12695TIP3    H188553   3.269   4.355   3.552
12695TIP3    H288554   3.197   4.475   3.493
12696TIP3   OH288555   2.994   5.116   3.460
12696TIP3    H188556   2.955   5.203   3.469
12696TIP3    H288557   2.995   5.081   3.549
12697TIP3   OH288558   3.709   4.447   3.473
12697TIP3    H188559   3.655   4.435   3.395
12697TIP3    H288560   3.718   4.542   3.482
12698TIP3   OH288561   2.034   4.678   3.232
12698TIP3    H188562   2.089   4.743   3.275
12698TIP3    H288563   1.956   4.673   3.287
12699TIP3   OH288564   3.254   5.020   3.376
12699TIP3    H188565   3.285   5.030   3.466
12699TIP3    H288566   3.167   5.059   3.376
12700TIP3   OH288567   3.725   5.530   3.329
12700TIP3    H188568   3.796   5.594   3.332
12700TIP3    H288569   3.651   5.575   3.370
12701TIP3   OH288570   2.692   5.171   3.187
12701TIP3    H188571   2.622   5.127   3.139
12701TIP3    H288572   2.659   5.178   3.276
12702TIP3   OH288573   2.569   5.197   3.438
12702TIP3    H188574   2.579   5.168   3.529
12702TIP3    H288575   2.569   5.292   3.443
12703TIP3   OH288576   2.154   4.871   3.378
12703TIP3    H188577   2.116   4.862   3.465
12703TIP3    H288578   2.222   4.937   3.389
12704TIP3   OH288579   2.866   5.362   3.479
12704TIP3    H188580   2.771   5.373   3.474
12704TIP3    H288581   2.900   5.429   3.420
12705TIP3   OH288582   2.600   5.463   3.471
12705TIP3    H188583   2.616   5.536   3.411
12705TIP3    H288584   2.608   5.503   3.558
12706TIP3   OH288585   2.443   4.153   3.441
12706TIP3    H188586   2.426   4.248   3.443
12706TIP3    H288587   2.457   4.130   3.533
12707TIP3   OH288588   2.334   5.081   3.355
12707TIP3    H188589   2.412   5.130   3.382
12707TIP3    H288590   2.360   5.038   3.273
12708TIP3   OH288591   2.147   4.423   3.261
12708TIP3    H188592   2.105   4.509   3.263
12708TIP3    H288593   2.080   4.364   3.228
12709TIP3   OH288594   2.878   5.385   3.135
12709TIP3    H188595   2.815   5.313   3.141
12709TIP3    H288596   2.956   5.347   3.096
12710TIP3   OH288597   3.362   5.330   3.198
12710TIP3    H188598   3.438   5.319   3.255
12710TIP3    H288599   3.398   5.349   3.112
12711TIP3   OH288600   2.464   4.941   3.143
12711TIP3    H188601   2.485   4.886   3.217
12711TIP3    H288602   2.509   4.900   3.069
12712TIP3   OH288603   2.949   5.064   3.196
12712TIP3    H188604   2.964   5.076   3.290
12712TIP3    H288605   2.860   5.095   3.182
12713TIP3   OH288606   2.545   4.770   3.339
12713TIP3    H188607   2.553   4.763   3.434
12713TIP3    H288608   2.592   4.693   3.305
12714TIP3   OH288609   2.682   4.545   3.256
12714TIP3    H188610   2.681   4.489   3.179
12714TIP3    H288611   2.775   4.559   3.275
12715TIP3   OH288612   3.579   4.791   3.202
12715TIP3    H188613   3.580   4.774   3.107
12715TIP3    H288614   3.565   4.885   3.209
12716TIP3   OH288615   2.702   5.694   3.360
12716TIP3    H188616   2.792   5.662   3.357
12716TIP3    H288617   2.687   5.730   3.273
12717TIP3   OH288618   2.058   5.146   3.213
12717TIP3    H188619   2.124   5.129   3.280
12717TIP3    H288620   2.039   5.061   3.175
12718TIP3   OH288621   3.730   4.728   3.428
12718TIP3    H188622   3.672   4.750   3.355
12718TIP3    H288623   3.803   4.789   3.420
12719TIP3   OH288624   3.587   4.424   3.229
12719TIP3    H188625   3.562   4.486   3.160
12719TIP3    H288626   3.555   4.340   3.197
12720TIP3   OH288627   3.489   4.182   3.139
12720TIP3    H188628   3.525   4.123   3.205
12720TIP3    H288629   3.406   4.143   3.114
12721TIP3   OH288630   3.656   4.039   3.339
12721TIP3    H188631   3.690   3.985   3.268
12721TIP3    H288632   3.723   4.107   3.352
12722TIP3   OH288633   2.067   3.845   3.380
12722TIP3    H188634   2.092   3.909   3.314
12722TIP3    H288635   2.102   3.881   3.462
12723TIP3   OH288636   2.255   4.044   3.259
12723TIP3    H188637   2.307   3.987   3.202
12723TIP3    H288638   2.314   4.067   3.330
12724TIP3   OH288639   2.945   5.573   3.322
12724TIP3    H188640   3.041   5.572   3.328
12724TIP3    H288641   2.926   5.524   3.242
12725TIP3   OH288642   2.277   5.622   3.201
12725TIP3    H188643   2.229   5.583   3.274
12725TIP3    H288644   2.342   5.556   3.177
12726TIP3   OH288645   4.840   4.611   3.258
12726TIP3    H188646   4.895   4.631   3.333
12726TIP3    H288647   4.890   4.547   3.207
12727TIP3   OH288648   5.072   4.666   3.411
12727TIP3    H188649   5.081   4.751   3.453
12727TIP3    H288650   5.119   4.675   3.328
12728TIP3   OH288651   5.405   3.837   3.348
12728TIP3    H188652   5.327   3.838   3.404
12728TIP3    H288653   5.456   3.913   3.377
12729TIP3   OH288654   5.587   5.282   3.218
12729TIP3    H188655   5.593   5.369   3.258
12729TIP3    H288656   5.674   5.244   3.230
12730TIP3   OH288657   5.090   5.557   3.318
12730TIP3    H188658   5.142   5.493   3.270
12730TIP3    H288659   5.087   5.523   3.407
12731TIP3   OH288660   5.201   4.671   3.168
12731TIP3    H188661   5.180   4.711   3.083
12731TIP3    H288662   5.285   4.710   3.192
12732TIP3   OH288663   4.756   4.137   3.309
12732TIP3    H188664   4.745   4.126   3.403
12732TIP3    H288665   4.702   4.068   3.270
12733TIP3   OH288666   4.410   4.189   3.148
12733TIP3    H188667   4.382   4.188   3.239
12733TIP3    H288668   4.329   4.203   3.098
12734TIP3   OH288669   3.855   4.221   3.406
12734TIP3    H188670   3.932   4.259   3.364
12734TIP3    H288671   3.805   4.296   3.438
12735TIP3   OH288672   4.295   4.403   3.394
12735TIP3    H188673   4.211   4.405   3.347
12735TIP3    H288674   4.344   4.478   3.358
12736TIP3   OH288675   5.017   4.225   3.285
12736TIP3    H188676   4.926   4.197   3.289
12736TIP3    H288677   5.031   4.273   3.366
12737TIP3   OH288678   5.066   4.402   3.501
12737TIP3    H188679   5.155   4.371   3.520
12737TIP3    H288680   5.078   4.492   3.472
12738TIP3   OH288681   4.920   5.077   3.391
12738TIP3    H188682   4.941   5.161   3.432
12738TIP3    H288683   4.871   5.029   3.458
12739TIP3   OH288684   5.544   4.455   3.482
12739TIP3    H188685   5.498   4.434   3.401
12739TIP3    H288686   5.566   4.548   3.474
12740TIP3   OH288687   3.948   4.627   3.253
12740TIP3    H188688   3.982   4.706   3.296
12740TIP3    H288689   3.861   4.616   3.290
12741TIP3   OH288690   5.194   5.022   3.350
12741TIP3    H188691   5.202   5.023   3.445
12741TIP3    H288692   5.102   5.046   3.334
12742TIP3   OH288693   5.650   5.530   3.331
12742TIP3    H188694   5.717   5.598   3.333
12742TIP3    H288695   5.577   5.566   3.381
12743TIP3   OH288696   4.510   5.175   3.152
12743TIP3    H188697   4.603   5.151   3.150
12743TIP3    H288698   4.484   5.163   3.243
12744TIP3   OH288699   4.399   5.188   3.430
12744TIP3    H188700   4.448   5.151   3.503
12744TIP3    H288701   4.413   5.283   3.438
12745TIP3   OH288702   3.984   4.859   3.403
12745TIP3    H188703   4.003   4.823   3.490
12745TIP3    H288704   4.051   4.925   3.389
12746TIP3   OH288705   4.699   5.301   3.402
12746TIP3    H188706   4.630   5.351   3.446
12746TIP3    H288707   4.776   5.313   3.457
12747TIP3   OH288708   4.473   5.448   3.489
12747TIP3    H188709   4.493   5.523   3.432
12747TIP3    H288710   4.484   5.483   3.578
12748TIP3   OH288711   4.321   4.134   3.425
12748TIP3    H188712   4.309   4.229   3.428
12748TIP3    H288713   4.378   4.114   3.499
12749TIP3   OH288714   4.174   5.061   3.330
12749TIP3    H188715   4.246   5.116   3.360
12749TIP3    H288716   4.213   5.009   3.260
12750TIP3   OH288717   4.054   4.371   3.255
12750TIP3    H188718   4.015   4.459   3.251
12750TIP3    H288719   4.035   4.332   3.170
12751TIP3   OH288720   4.765   5.371   3.147
12751TIP3    H188721   4.735   5.347   3.235
12751TIP3    H288722   4.790   5.288   3.107
12752TIP3   OH288723   5.252   5.372   3.200
12752TIP3    H188724   5.269   5.345   3.291
12752TIP3    H288725   5.316   5.322   3.148
12753TIP3   OH288726   4.314   4.897   3.152
12753TIP3    H188727   4.332   4.847   3.231
12753TIP3    H288728   4.396   4.892   3.102
12754TIP3   OH288729   4.781   5.086   3.148
12754TIP3    H188730   4.827   5.093   3.232
12754TIP3    H288731   4.799   4.998   3.118
12755TIP3   OH288732   4.388   4.756   3.376
12755TIP3    H188733   4.407   4.764   3.470
12755TIP3    H288734   4.459   4.700   3.343
12756TIP3   OH288735   4.568   4.576   3.263
12756TIP3    H188736   4.546   4.549   3.174
12756TIP3    H288737   4.663   4.589   3.261
12757TIP3   OH288738   5.447   4.799   3.194
12757TIP3    H188739   5.458   4.780   3.100
12757TIP3    H288740   5.433   4.893   3.197
12758TIP3   OH288741   4.583   5.688   3.396
12758TIP3    H188742   4.669   5.654   3.375
12758TIP3    H288743   4.561   5.746   3.324
12759TIP3   OH288744   3.929   5.152   3.214
12759TIP3    H188745   4.009   5.135   3.264
12759TIP3    H288746   3.919   5.074   3.159
12760TIP3   OH288747   5.598   4.718   3.409
12760TIP3    H188748   5.538   4.743   3.338
12760TIP3    H288749   5.646   4.799   3.428
12761TIP3   OH288750   5.441   4.402   3.226
12761TIP3    H188751   5.408   4.442   3.146
12761TIP3    H288752   5.425   4.309   3.215
12762TIP3   OH288753   5.403   4.130   3.189
12762TIP3    H188754   5.445   4.099   3.269
12762TIP3    H288755   5.316   4.090   3.190
12763TIP3   OH288756   5.596   4.039   3.385
12763TIP3    H188757   5.668   3.980   3.363
12763TIP3    H288758   5.638   4.122   3.405
12764TIP3   OH288759   3.945   3.866   3.399
12764TIP3    H188760   4.006   3.907   3.337
12764TIP3    H288761   3.903   3.940   3.443
12765TIP3   OH288762   4.142   4.007   3.252
12765TIP3    H188763   4.193   3.947   3.198
12765TIP3    H288764   4.205   4.044   3.314
12766TIP3   OH288765   4.817   5.595   3.301
12766TIP3    H188766   4.912   5.591   3.315
12766TIP3    H288767   4.801   5.528   3.235
12767TIP3   OH288768   4.162   5.557   3.221
12767TIP3    H188769   4.142   5.542   3.313
12767TIP3    H288770   4.231   5.494   3.200
12768TIP3   OH288771   6.726   4.573   3.264
12768TIP3    H188772   6.782   4.587   3.340
12768TIP3    H288773   6.781   4.523   3.203
12769TIP3   OH288774   6.961   4.630   3.410
12769TIP3    H188775   6.957   4.706   3.468
12769TIP3    H288776   6.994   4.665   3.327
12770TIP3   OH288777   7.300   3.798   3.450
12770TIP3    H188778   7.274   3.836   3.534
12770TIP3    H288779   7.327   3.873   3.397
12771TIP3   OH288780   7.440   5.299   3.228
12771TIP3    H188781   7.459   5.388   3.254
12771TIP3    H288782   7.525   5.256   3.225
12772TIP3   OH288783   6.970   5.529   3.358
12772TIP3    H188784   7.036   5.465   3.331
12772TIP3    H288785   6.980   5.534   3.453
12773TIP3   OH288786   7.053   4.750   3.168
12773TIP3    H188787   7.054   4.764   3.073
12773TIP3    H288788   7.144   4.758   3.194
12774TIP3   OH288789   6.639   4.111   3.351
12774TIP3    H188790   6.622   4.089   3.442
12774TIP3    H288791   6.584   4.050   3.301
12775TIP3   OH288792   6.341   4.200   3.150
12775TIP3    H188793   6.328   4.226   3.241
12775TIP3    H288794   6.277   4.253   3.101
12776TIP3   OH288795   5.734   4.259   3.474
12776TIP3    H188796   5.790   4.287   3.401
12776TIP3    H288797   5.671   4.330   3.483
12777TIP3   OH288798   6.232   4.405   3.323
12777TIP3    H188799   6.181   4.415   3.243
12777TIP3    H288800   6.305   4.467   3.312
12778TIP3   OH288801   6.868   4.239   3.280
12778TIP3    H188802   6.784   4.198   3.302
12778TIP3    H288803   6.898   4.277   3.363
12779TIP3   OH288804   6.964   4.364   3.506
12779TIP3    H188805   7.052   4.334   3.530
12779TIP3    H288806   6.977   4.455   3.477
12780TIP3   OH288807   6.739   5.087   3.465
12780TIP3    H188808   6.693   5.171   3.466
12780TIP3    H288809   6.750   5.064   3.557
12781TIP3   OH288810   7.483   4.442   3.445
12781TIP3    H188811   7.419   4.432   3.374
12781TIP3    H288812   7.499   4.537   3.449
12782TIP3   OH288813   5.831   4.638   3.275
12782TIP3    H188814   5.880   4.712   3.312
12782TIP3    H288815   5.746   4.642   3.318
12783TIP3   OH288816   7.064   5.106   3.352
12783TIP3    H188817   7.049   5.099   3.446
12783TIP3    H288818   6.980   5.085   3.313
12784TIP3   OH288819   7.509   5.557   3.302
12784TIP3    H188820   7.578   5.622   3.318
12784TIP3    H288821   7.430   5.597   3.338
12785TIP3   OH288822   6.454   5.187   3.189
12785TIP3    H188823   6.456   5.102   3.145
12785TIP3    H288824   6.416   5.168   3.276
12786TIP3   OH288825   6.314   5.179   3.437
12786TIP3    H188826   6.331   5.149   3.526
12786TIP3    H288827   6.319   5.274   3.442
12787TIP3   OH288828   5.906   4.866   3.404
12787TIP3    H188829   5.904   4.834   3.495
12787TIP3    H288830   5.968   4.938   3.405
12788TIP3   OH288831   6.614   5.329   3.479
12788TIP3    H188832   6.521   5.350   3.487
12788TIP3    H288833   6.654   5.407   3.442
12789TIP3   OH288834   6.357   5.444   3.480
12789TIP3    H188835   6.367   5.514   3.416
12789TIP3    H288836   6.363   5.487   3.565
12790TIP3   OH288837   6.181   4.157   3.437
12790TIP3    H188838   6.179   4.248   3.407
12790TIP3    H288839   6.259   4.152   3.493
12791TIP3   OH288840   6.072   5.085   3.341
12791TIP3    H188841   6.146   5.128   3.383
12791TIP3    H288842   6.110   5.036   3.268
12792TIP3   OH288843   5.842   4.365   3.243
12792TIP3    H188844   5.854   4.458   3.260
12792TIP3    H288845   5.800   4.362   3.157
12793TIP3   OH288846   6.659   5.366   3.130
12793TIP3    H188847   6.594   5.301   3.157
12793TIP3    H288848   6.738   5.315   3.112
12794TIP3   OH288849   7.140   5.340   3.220
12794TIP3    H188850   7.118   5.267   3.278
12794TIP3    H288851   7.236   5.343   3.222
12795TIP3   OH288852   6.201   4.928   3.155
12795TIP3    H188853   6.218   4.871   3.229
12795TIP3    H288854   6.287   4.942   3.114
12796TIP3   OH288855   6.825   5.061   3.209
12796TIP3    H188856   6.780   5.065   3.293
12796TIP3    H288857   6.796   4.978   3.170
12797TIP3   OH288858   6.285   4.775   3.363
12797TIP3    H188859   6.303   4.783   3.457
12797TIP3    H288860   6.346   4.707   3.333
12798TIP3   OH288861   6.454   4.579   3.257
12798TIP3    H188862   6.441   4.609   3.167
12798TIP3    H288863   6.548   4.567   3.264
12799TIP3   OH288864   7.334   4.796   3.168
12799TIP3    H188865   7.333   4.789   3.073
12799TIP3    H288866   7.321   4.890   3.185
12800TIP3   OH288867   6.474   5.691   3.402
12800TIP3    H188868   6.557   5.647   3.385
12800TIP3    H288869   6.458   5.744   3.324
12801TIP3   OH288870   5.837   5.158   3.214
12801TIP3    H188871   5.914   5.143   3.268
12801TIP3    H288872   5.815   5.073   3.178
12802TIP3   OH288873   7.491   4.718   3.388
12802TIP3    H188874   7.429   4.735   3.317
12802TIP3    H288875   7.472   4.784   3.454
12803TIP3   OH288876   7.319   4.424   3.227
12803TIP3    H188877   7.269   4.470   3.160
12803TIP3    H288878   7.306   4.331   3.207
12804TIP3   OH288879   7.253   4.174   3.132
12804TIP3    H188880   7.297   4.111   3.190
12804TIP3    H288881   7.168   4.133   3.113
12805TIP3   OH288882   7.411   4.014   3.309
12805TIP3    H188883   7.457   3.968   3.238
12805TIP3    H288884   7.476   4.075   3.344
12806TIP3   OH288885   5.807   3.876   3.317
12806TIP3    H188886   5.879   3.931   3.285
12806TIP3    H288887   5.847   3.821   3.385
12807TIP3   OH288888   6.029   4.020   3.237
12807TIP3    H188889   6.092   3.971   3.184
12807TIP3    H288890   6.082   4.063   3.304
12808TIP3   OH288891   6.698   5.550   3.332
12808TIP3    H188892   6.793   5.552   3.342
12808TIP3    H288893   6.683   5.497   3.253
12809TIP3   OH288894   6.030   5.546   3.190
12809TIP3    H188895   6.000   5.552   3.281
12809TIP3    H288896   6.098   5.479   3.191
12810TIP3   OH288897   7.592   4.191   3.428
12810TIP3    H188898   7.686   4.204   3.429
12810TIP3    H288899   7.555   4.278   3.439
12811TIP3   OH288900   8.100   4.428   3.365
12811TIP3    H188901   8.006   4.416   3.349
12811TIP3    H288902   8.142   4.393   3.286
12812TIP3   OH288903   7.739   4.659   3.284
12812TIP3    H188904   7.796   4.723   3.328
12812TIP3    H288905   7.653   4.673   3.323
12813TIP3   OH288906   7.881   4.854   3.423
12813TIP3    H188907   7.828   4.837   3.501
12813TIP3    H288908   7.897   4.948   3.424
12814TIP3   OH288909   0.015   4.040   3.447
12814TIP3    H188910   8.119   4.061   3.532
12814TIP3    H288911   0.083   4.106   3.436
12815TIP3   OH288912   7.951   5.124   3.337
12815TIP3    H188913   8.030   5.176   3.353
12815TIP3    H288914   7.976   5.063   3.268
12816TIP3   OH288915   7.832   4.398   3.292
12816TIP3    H188916   7.796   4.487   3.298
12816TIP3    H288917   7.771   4.353   3.233
12817TIP3   OH288918   8.014   4.911   3.177
12817TIP3    H188919   7.998   4.856   3.254
12817TIP3    H288920   8.107   4.898   3.158
12818TIP3   OH288921   7.698   5.167   3.214
12818TIP3    H188922   7.772   5.156   3.274
12818TIP3    H288923   7.684   5.080   3.177
12819TIP3   OH288924   7.692   3.835   3.371
12819TIP3    H188925   7.750   3.901   3.334
12819TIP3    H288926   7.682   3.862   3.463
12820TIP3   OH288927   7.925   3.986   3.310
12820TIP3    H188928   7.946   3.951   3.223
12820TIP3    H288929   8.009   4.012   3.347
12821TIP3   OH288930   7.842   5.562   3.203
12821TIP3    H188931   7.798   5.618   3.267
12821TIP3    H288932   7.840   5.475   3.242
12822TIP3   OH288933   1.059   6.443   3.311
12822TIP3    H188934   1.126   6.473   3.373
12822TIP3    H288935   1.109   6.407   3.238
12823TIP3   OH288936   1.310   6.507   3.429
12823TIP3    H188937   1.320   6.590   3.476
12823TIP3    H288938   1.353   6.520   3.345
12824TIP3   OH288939   1.675   5.691   3.449
12824TIP3    H188940   1.594   5.706   3.497
12824TIP3    H288941   1.690   5.772   3.399
12825TIP3   OH288942   1.792   7.162   3.257
12825TIP3    H188943   1.802   7.254   3.283
12825TIP3    H288944   1.882   7.128   3.254
12826TIP3   OH288945   1.316   7.420   3.341
12826TIP3    H188946   1.362   7.347   3.299
12826TIP3    H288947   1.351   7.421   3.431
12827TIP3   OH288948   1.434   6.559   3.192
12827TIP3    H188949   1.413   6.593   3.105
12827TIP3    H288950   1.520   6.594   3.212
12828TIP3   OH288951   0.963   6.025   3.332
12828TIP3    H188952   0.949   6.010   3.425
12828TIP3    H288953   0.914   5.955   3.289
12829TIP3   OH288954   0.637   6.056   3.122
12829TIP3    H188955   0.623   6.052   3.216
12829TIP3    H288956   0.550   6.062   3.084
12830TIP3   OH288957   0.128   6.170   3.398
12830TIP3    H188958   0.213   6.207   3.375
12830TIP3    H288959   0.065   6.234   3.365
12831TIP3   OH288960   0.570   6.300   3.383
12831TIP3    H188961   0.488   6.313   3.336
12831TIP3    H288962   0.634   6.351   3.334
12832TIP3   OH288963   1.219   6.111   3.292
12832TIP3    H188964   1.127   6.085   3.302
12832TIP3    H288965   1.243   6.147   3.377
12833TIP3   OH288966   1.300   6.245   3.524
12833TIP3    H188967   1.385   6.203   3.541
12833TIP3    H288968   1.322   6.331   3.488
12834TIP3   OH288969   1.114   6.975   3.432
12834TIP3    H188970   1.064   7.057   3.439
12834TIP3    H288971   1.119   6.942   3.522
12835TIP3   OH288972   1.789   6.314   3.464
12835TIP3    H188973   1.740   6.303   3.382
12835TIP3    H288974   1.806   6.408   3.469
12836TIP3   OH288975   0.170   6.543   3.283
12836TIP3    H188976   0.200   6.614   3.340
12836TIP3    H288977   0.089   6.513   3.324
12837TIP3   OH288978   1.398   6.995   3.377
12837TIP3    H188979   1.411   6.988   3.471
12837TIP3    H288980   1.303   6.993   3.365
12838TIP3   OH288981   1.835   7.431   3.334
12838TIP3    H188982   1.903   7.498   3.326
12838TIP3    H288983   1.759   7.478   3.369
12839TIP3   OH288984   0.772   7.076   3.182
12839TIP3    H188985   0.782   6.991   3.138
12839TIP3    H288986   0.743   7.054   3.270
12840TIP3   OH288987   0.650   7.064   3.441
12840TIP3    H188988   0.667   7.036   3.531
12840TIP3    H288989   0.663   7.159   3.443
12841TIP3   OH288990   0.266   6.753   3.438
12841TIP3    H188991   0.296   6.752   3.529
12841TIP3    H288992   0.321   6.819   3.396
12842TIP3   OH288993   0.971   7.206   3.477
12842TIP3    H188994   0.879   7.229   3.486
12842TIP3    H288995   1.013   7.287   3.446
12843TIP3   OH288996   0.716   7.325   3.479
12843TIP3    H188997   0.723   7.398   3.418
12843TIP3    H288998   0.711   7.366   3.565
12844TIP3   OH288999   0.610   6.029   3.398
12844TIP3    H189000   0.599   6.123   3.409
12844TIP3    H289001   0.679   6.005   3.460
12845TIP3   OH289002   0.423   6.959   3.328
12845TIP3    H189003   0.499   7.008   3.359
12845TIP3    H289004   0.456   6.908   3.254
12846TIP3   OH289005   0.327   6.319   3.251
12846TIP3    H189006   0.279   6.401   3.264
12846TIP3    H289007   0.286   6.279   3.174
12847TIP3   OH289008   0.989   7.252   3.152
12847TIP3    H189009   0.921   7.187   3.170
12847TIP3    H289010   1.065   7.200   3.126
12848TIP3   OH289011   1.436   7.221   3.191
12848TIP3    H189012   1.462   7.151   3.251
12848TIP3    H289013   1.509   7.227   3.129
12849TIP3   OH289014   0.536   6.794   3.141
12849TIP3    H189015   0.561   6.738   3.215
12849TIP3    H289016   0.616   6.801   3.088
12850TIP3   OH289017   1.114   6.930   3.152
12850TIP3    H189018   1.105   6.924   3.248
12850TIP3    H289019   1.107   6.840   3.121
12851TIP3   OH289020   0.634   6.650   3.352
12851TIP3    H189021   0.655   6.660   3.445
12851TIP3    H289022   0.693   6.581   3.321
12852TIP3   OH289023   0.792   6.444   3.256
12852TIP3    H189024   0.788   6.447   3.161
12852TIP3    H289025   0.885   6.440   3.277
12853TIP3   OH289026   1.683   6.683   3.211
12853TIP3    H189027   1.694   6.665   3.117
12853TIP3    H289028   1.667   6.777   3.216
12854TIP3   OH289029   0.815   7.586   3.411
12854TIP3    H189030   0.898   7.539   3.407
12854TIP3    H289031   0.811   7.635   3.328
12855TIP3   OH289032   0.171   7.023   3.227
12855TIP3    H189033   0.256   7.009   3.269
12855TIP3    H289034   0.162   6.950   3.166
12856TIP3   OH289035   1.830   6.595   3.428
12856TIP3    H189036   1.774   6.623   3.355
12856TIP3    H289037   1.891   6.668   3.441
12857TIP3   OH289038   1.664   6.290   3.216
12857TIP3    H189039   1.643   6.344   3.140
12857TIP3    H289040   1.650   6.200   3.186
12858TIP3   OH289041   1.604   6.040   3.105
12858TIP3    H189042   1.639   5.987   3.176
12858TIP3    H289043   1.515   6.009   3.093
12859TIP3   OH289044   1.756   5.909   3.299
12859TIP3    H189045   1.805   5.853   3.238
12859TIP3    H289046   1.823   5.966   3.338
12860TIP3   OH289047   0.186   5.737   3.350
12860TIP3    H189048   0.250   5.807   3.338
12860TIP3    H289049   0.108   5.782   3.384
12861TIP3   OH289050   0.384   5.920   3.283
12861TIP3    H189051   0.423   5.854   3.224
12861TIP3    H289052   0.457   5.948   3.338
12862TIP3   OH289053   1.041   7.442   3.345
12862TIP3    H189054   1.136   7.450   3.347
12862TIP3    H289055   1.023   7.387   3.268
12863TIP3   OH289056   0.353   7.437   3.237
12863TIP3    H189057   0.338   7.435   3.332
12863TIP3    H289058   0.417   7.368   3.222
12864TIP3   OH289059   2.968   6.400   3.284
12864TIP3    H189060   3.020   6.436   3.356
12864TIP3    H289061   2.981   6.305   3.292
12865TIP3   OH289062   3.175   6.501   3.446
12865TIP3    H189063   3.190   6.550   3.527
12865TIP3    H289064   3.219   6.552   3.379
12866TIP3   OH289065   3.525   5.688   3.443
12866TIP3    H189066   3.509   5.704   3.536
12866TIP3    H289067   3.554   5.773   3.410
12867TIP3   OH289068   3.668   7.166   3.240
12867TIP3    H189069   3.685   7.253   3.277
12867TIP3    H289070   3.755   7.127   3.231
12868TIP3   OH289071   3.211   7.435   3.333
12868TIP3    H189072   3.263   7.362   3.299
12868TIP3    H289073   3.239   7.445   3.424
12869TIP3   OH289074   3.282   6.612   3.208
12869TIP3    H189075   3.281   6.664   3.128
12869TIP3    H289076   3.375   6.610   3.234
12870TIP3   OH289077   2.851   6.002   3.349
12870TIP3    H189078   2.848   5.988   3.443
12870TIP3    H289079   2.805   5.927   3.312
12871TIP3   OH289080   2.560   6.053   3.171
12871TIP3    H189081   2.536   6.034   3.261
12871TIP3    H289082   2.498   6.120   3.143
12872TIP3   OH289083   1.939   6.082   3.416
12872TIP3    H189084   2.005   6.118   3.358
12872TIP3    H289085   1.889   6.158   3.447
12873TIP3   OH289086   2.453   6.294   3.349
12873TIP3    H189087   2.402   6.294   3.268
12873TIP3    H289088   2.531   6.346   3.328
12874TIP3   OH289089   3.088   6.114   3.279
12874TIP3    H189090   3.006   6.070   3.302
12874TIP3    H289091   3.127   6.137   3.364
12875TIP3   OH289092   3.197   6.228   3.502
12875TIP3    H189093   3.284   6.199   3.530
12875TIP3    H289094   3.208   6.322   3.486
12876TIP3   OH289095   3.010   6.987   3.453
12876TIP3    H189096   2.957   7.066   3.458
12876TIP3    H289097   3.013   6.954   3.543
12877TIP3   OH289098   3.660   6.325   3.460
12877TIP3    H189099   3.599   6.315   3.386
12877TIP3    H289100   3.680   6.419   3.462
12878TIP3   OH289101   2.055   6.507   3.276
12878TIP3    H189102   2.105   6.582   3.309
12878TIP3    H289103   1.973   6.509   3.326
12879TIP3   OH289104   3.284   6.999   3.386
12879TIP3    H189105   3.311   6.990   3.478
12879TIP3    H289106   3.189   6.992   3.388
12880TIP3   OH289107   3.725   7.420   3.339
12880TIP3    H189108   3.792   7.488   3.352
12880TIP3    H289109   3.644   7.460   3.371
12881TIP3   OH289110   2.709   7.056   3.193
12881TIP3    H189111   2.681   6.981   3.140
12881TIP3    H289112   2.662   7.046   3.276
12882TIP3   OH289113   2.553   7.066   3.435
12882TIP3    H189114   2.567   7.036   3.525
12882TIP3    H289115   2.559   7.161   3.441
12883TIP3   OH289116   2.149   6.735   3.392
12883TIP3    H189117   2.131   6.714   3.484
12883TIP3    H289118   2.207   6.810   3.396
12884TIP3   OH289119   2.857   7.211   3.463
12884TIP3    H189120   2.765   7.231   3.480
12884TIP3    H289121   2.896   7.294   3.437
12885TIP3   OH289122   2.599   7.329   3.483
12885TIP3    H189123   2.607   7.402   3.422
12885TIP3    H289124   2.607   7.369   3.570
12886TIP3   OH289125   2.431   6.029   3.434
12886TIP3    H189126   2.426   6.123   3.417
12886TIP3    H289127   2.492   6.021   3.508
12887TIP3   OH289128   2.305   6.969   3.357
12887TIP3    H189129   2.384   7.018   3.380
12887TIP3    H289130   2.330   6.920   3.278
12888TIP3   OH289131   2.081   6.236   3.235
12888TIP3    H189132   2.084   6.330   3.255
12888TIP3    H289133   2.034   6.231   3.151
12889TIP3   OH289134   2.889   7.268   3.138
12889TIP3    H189135   2.831   7.198   3.166
12889TIP3    H289136   2.972   7.224   3.118
12890TIP3   OH289137   3.351   7.218   3.228
12890TIP3    H189138   3.338   7.151   3.295
12890TIP3    H289139   3.446   7.224   3.218
12891TIP3   OH289140   2.425   6.818   3.159
12891TIP3    H189141   2.446   6.760   3.232
12891TIP3    H289142   2.508   6.829   3.112
12892TIP3   OH289143   2.973   6.949   3.186
12892TIP3    H189144   2.990   6.952   3.280
12892TIP3    H289145   2.883   6.983   3.177
12893TIP3   OH289146   2.529   6.668   3.362
12893TIP3    H189147   2.535   6.668   3.458
12893TIP3    H289148   2.583   6.595   3.335
12894TIP3   OH289149   2.692   6.463   3.259
12894TIP3    H189150   2.676   6.486   3.168
12894TIP3    H289151   2.784   6.435   3.261
12895TIP3   OH289152   3.556   6.674   3.208
12895TIP3    H189153   3.562   6.654   3.114
12895TIP3    H289154   3.545   6.769   3.212
12896TIP3   OH289155   2.707   7.583   3.413
12896TIP3    H189156   2.791   7.539   3.404
12896TIP3    H289157   2.697   7.632   3.331
12897TIP3   OH289158   2.047   7.035   3.239
12897TIP3    H189159   2.130   7.021   3.284
12897TIP3    H289160   2.032   6.953   3.192
12898TIP3   OH289161   3.712   6.598   3.421
12898TIP3    H189162   3.654   6.624   3.349
12898TIP3    H289163   3.772   6.673   3.431
12899TIP3   OH289164   3.508   6.303   3.214
12899TIP3    H189165   3.526   6.340   3.127
12899TIP3    H289166   3.506   6.209   3.200
12900TIP3   OH289167   3.476   6.044   3.137
12900TIP3    H189168   3.522   5.986   3.198
12900TIP3    H289169   3.401   5.994   3.107
12901TIP3   OH289170   3.643   5.910   3.322
12901TIP3    H189171   3.687   5.851   3.261
12901TIP3    H289172   3.711   5.972   3.349
12902TIP3   OH289173   2.058   5.720   3.400
12902TIP3    H189174   2.093   5.796   3.354
12902TIP3    H289175   2.042   5.752   3.489
12903TIP3   OH289176   2.247   5.893   3.256
12903TIP3    H189177   2.271   5.803   3.237
12903TIP3    H289178   2.315   5.924   3.316
12904TIP3   OH289179   2.935   7.448   3.342
12904TIP3    H189180   3.030   7.457   3.344
12904TIP3    H289181   2.917   7.401   3.261
12905TIP3   OH289182   2.307   7.451   3.217
12905TIP3    H189183   2.226   7.411   3.248
12905TIP3    H289184   2.365   7.377   3.199
12906TIP3   OH289185   4.844   6.495   3.256
12906TIP3    H189186   4.898   6.503   3.335
12906TIP3    H289187   4.892   6.435   3.201
12907TIP3   OH289188   5.072   6.524   3.426
12907TIP3    H189189   5.066   6.609   3.469
12907TIP3    H289190   5.123   6.539   3.347
12908TIP3   OH289191   5.452   5.682   3.456
12908TIP3    H189192   5.361   5.668   3.482
12908TIP3    H289193   5.452   5.765   3.410
12909TIP3   OH289194   5.563   7.185   3.240
12909TIP3    H189195   5.583   7.271   3.275
12909TIP3    H289196   5.648   7.140   3.236
12910TIP3   OH289197   5.087   7.425   3.359
12910TIP3    H189198   5.155   7.368   3.323
12910TIP3    H289199   5.097   7.419   3.454
12911TIP3   OH289200   5.208   6.576   3.199
12911TIP3    H189201   5.190   6.602   3.109
12911TIP3    H289202   5.296   6.610   3.217
12912TIP3   OH289203   4.752   6.010   3.320
12912TIP3    H189204   4.741   5.995   3.414
12912TIP3    H289205   4.702   5.940   3.278
12913TIP3   OH289206   4.439   6.073   3.185
12913TIP3    H189207   4.411   6.057   3.275
12913TIP3    H289208   4.376   6.136   3.151
12914TIP3   OH289209   3.817   6.099   3.424
12914TIP3    H189210   3.896   6.135   3.384
12914TIP3    H289211   3.764   6.176   3.448
12915TIP3   OH289212   4.332   6.305   3.373
12915TIP3    H189213   4.263   6.311   3.307
12915TIP3    H289214   4.407   6.350   3.332
12916TIP3   OH289215   4.990   6.131   3.276
12916TIP3    H189216   4.905   6.089   3.288
12916TIP3    H289217   5.014   6.164   3.362
12917TIP3   OH289218   5.060   6.260   3.516
12917TIP3    H189219   5.142   6.221   3.547
12917TIP3    H289220   5.085   6.347   3.485
12918TIP3   OH289221   4.853   6.985   3.469
12918TIP3    H189222   4.814   7.072   3.478
12918TIP3    H289223   4.865   6.954   3.559
12919TIP3   OH289224   5.563   6.321   3.459
12919TIP3    H189225   5.517   6.305   3.377
12919TIP3    H289226   5.580   6.415   3.459
12920TIP3   OH289227   3.943   6.520   3.274
12920TIP3    H189228   3.982   6.601   3.306
12920TIP3    H289229   3.860   6.513   3.321
12921TIP3   OH289230   5.165   7.016   3.311
12921TIP3    H189231   5.141   7.010   3.403
12921TIP3    H289232   5.082   7.006   3.264
12922TIP3   OH289233   5.637   7.430   3.344
12922TIP3    H189234   5.713   7.488   3.341
12922TIP3    H289235   5.572   7.478   3.395
12923TIP3   OH289236   4.553   7.065   3.202
12923TIP3    H189237   4.560   6.980   3.158
12923TIP3    H289238   4.521   7.044   3.290
12924TIP3   OH289239   4.421   7.066   3.454
12924TIP3    H189240   4.441   7.041   3.545
12924TIP3    H289241   4.434   7.161   3.453
12925TIP3   OH289242   3.991   6.763   3.397
12925TIP3    H189243   3.989   6.732   3.487
12925TIP3    H289244   4.062   6.827   3.395
12926TIP3   OH289245   4.739   7.236   3.497
12926TIP3    H189246   4.644   7.249   3.491
12926TIP3    H289247   4.776   7.302   3.438
12927TIP3   OH289248   4.475   7.332   3.468
12927TIP3    H189249   4.474   7.393   3.394
12927TIP3    H289250   4.487   7.388   3.545
12928TIP3   OH289251   4.321   6.034   3.436
12928TIP3    H189252   4.316   6.129   3.433
12928TIP3    H289253   4.344   6.013   3.527
12929TIP3   OH289254   4.184   6.966   3.357
12929TIP3    H189255   4.262   7.015   3.385
12929TIP3    H289256   4.213   6.916   3.281
12930TIP3   OH289257   4.006   6.249   3.282
12930TIP3    H189258   3.992   6.344   3.280
12930TIP3    H289259   4.011   6.225   3.189
12931TIP3   OH289260   4.782   7.211   3.137
12931TIP3    H189261   4.696   7.174   3.158
12931TIP3    H289262   4.843   7.139   3.153
12932TIP3   OH289263   5.280   7.263   3.253
12932TIP3    H189264   5.244   7.176   3.272
12932TIP3    H289265   5.374   7.248   3.240
12933TIP3   OH289266   4.303   6.810   3.164
12933TIP3    H189267   4.321   6.751   3.237
12933TIP3    H289268   4.388   6.824   3.122
12934TIP3   OH289269   4.911   6.973   3.200
12934TIP3    H189270   4.880   6.962   3.290
12934TIP3    H289271   4.900   6.886   3.161
12935TIP3   OH289272   4.391   6.659   3.373
12935TIP3    H189273   4.407   6.660   3.467
12935TIP3    H289274   4.454   6.595   3.339
12936TIP3   OH289275   4.568   6.477   3.257
12936TIP3    H189276   4.547   6.499   3.166
12936TIP3    H289277   4.663   6.477   3.261
12937TIP3   OH289278   5.465   6.691   3.203
12937TIP3    H189279   5.466   6.667   3.110
12937TIP3    H289280   5.449   6.785   3.204
12938TIP3   OH289281   4.597   7.592   3.385
12938TIP3    H189282   4.675   7.538   3.371
12938TIP3    H289283   4.587   7.641   3.303
12939TIP3   OH289284   3.939   7.042   3.205
12939TIP3    H189285   4.007   7.025   3.270
12939TIP3    H289286   3.920   6.956   3.168
12940TIP3   OH289287   5.606   6.595   3.418
12940TIP3    H189288   5.549   6.629   3.349
12940TIP3    H289289   5.663   6.668   3.440
12941TIP3   OH289290   5.458   6.281   3.201
12941TIP3    H189291   5.421   6.329   3.127
12941TIP3    H289292   5.439   6.189   3.182
12942TIP3   OH289293   5.376   6.030   3.105
12942TIP3    H189294   5.397   5.979   3.183
12942TIP3    H289295   5.284   6.010   3.087
12943TIP3   OH289296   5.521   5.916   3.324
12943TIP3    H189297   5.566   5.860   3.261
12943TIP3    H289298   5.588   5.977   3.354
12944TIP3   OH289299   3.935   5.728   3.362
12944TIP3    H189300   3.989   5.796   3.322
12944TIP3    H289301   3.989   5.693   3.432
12945TIP3   OH289302   4.141   5.906   3.253
12945TIP3    H189303   4.201   5.853   3.200
12945TIP3    H289304   4.197   5.943   3.321
12946TIP3   OH289305   4.812   7.428   3.314
12946TIP3    H189306   4.906   7.442   3.323
12946TIP3    H289307   4.804   7.369   3.239
12947TIP3   OH289308   4.176   7.447   3.210
12947TIP3    H189309   4.099   7.397   3.238
12947TIP3    H289310   4.242   7.381   3.191
12948TIP3   OH289311   6.732   6.462   3.285
12948TIP3    H189312   6.769   6.475   3.372
12948TIP3    H289313   6.799   6.414   3.237
12949TIP3   OH289314   6.990   6.533   3.434
12949TIP3    H189315   6.950   6.612   3.471
12949TIP3    H289316   7.033   6.564   3.354
12950TIP3   OH289317   7.303   5.710   3.401
12950TIP3    H189318   7.263   5.728   3.487
12950TIP3    H289319   7.332   5.795   3.369
12951TIP3   OH289320   7.464   7.163   3.224
12951TIP3    H189321   7.464   7.251   3.261
12951TIP3    H289322   7.551   7.152   3.185
12952TIP3   OH289323   6.959   7.432   3.342
12952TIP3    H189324   7.014   7.362   3.306
12952TIP3    H289325   6.974   7.429   3.436
12953TIP3   OH289326   7.096   6.659   3.217
12953TIP3    H189327   7.073   6.656   3.124
12953TIP3    H289328   7.087   6.751   3.241
12954TIP3   OH289329   6.645   6.000   3.336
12954TIP3    H189330   6.629   5.988   3.430
12954TIP3    H289331   6.589   5.936   3.293
12955TIP3   OH289332   6.349   6.077   3.194
12955TIP3    H189333   6.319   6.054   3.283
12955TIP3    H289334   6.280   6.132   3.159
12956TIP3   OH289335   5.712   6.090   3.425
12956TIP3    H189336   5.783   6.128   3.374
12956TIP3    H289337   5.659   6.165   3.452
12957TIP3   OH289338   6.212   6.304   3.381
12957TIP3    H189339   6.159   6.298   3.301
12957TIP3    H289340   6.292   6.349   3.353
12958TIP3   OH289341   6.890   6.109   3.304
12958TIP3    H189342   6.802   6.074   3.316
12958TIP3    H289343   6.911   6.153   3.387
12959TIP3   OH289344   6.963   6.272   3.516
12959TIP3    H189345   7.043   6.229   3.548
12959TIP3    H289346   6.992   6.358   3.487
12960TIP3   OH289347   6.736   6.969   3.435
12960TIP3    H189348   6.696   7.056   3.439
12960TIP3    H289349   6.747   6.943   3.527
12961TIP3   OH289350   7.457   6.324   3.478
12961TIP3    H189351   7.402   6.307   3.401
12961TIP3    H289352   7.491   6.412   3.464
12962TIP3   OH289353   5.821   6.537   3.241
12962TIP3    H189354   5.867   6.608   3.285
12962TIP3    H289355   5.739   6.526   3.290
12963TIP3   OH289356   7.071   6.922   3.315
12963TIP3    H189357   7.055   6.956   3.403
12963TIP3    H289358   6.987   6.933   3.270
12964TIP3   OH289359   7.496   7.417   3.315
12964TIP3    H189360   7.572   7.472   3.335
12964TIP3    H289361   7.423   7.460   3.358
12965TIP3   OH289362   6.443   7.086   3.201
12965TIP3    H189363   6.448   7.006   3.150
12965TIP3    H289364   6.413   7.058   3.287
12966TIP3   OH289365   6.307   7.071   3.452
12966TIP3    H189366   6.328   7.045   3.542
12966TIP3    H289367   6.320   7.166   3.451
12967TIP3   OH289368   5.896   6.753   3.388
12967TIP3    H189369   5.888   6.728   3.480
12967TIP3    H289370   5.963   6.822   3.387
12968TIP3   OH289371   6.622   7.216   3.469
12968TIP3    H189372   6.530   7.240   3.476
12968TIP3    H289373   6.665   7.296   3.440
12969TIP3   OH289374   6.367   7.335   3.473
12969TIP3    H189375   6.361   7.400   3.403
12969TIP3    H289376   6.378   7.387   3.552
12970TIP3   OH289377   6.213   6.030   3.434
12970TIP3    H189378   6.201   6.125   3.434
12970TIP3    H289379   6.223   6.007   3.526
12971TIP3   OH289380   6.076   6.967   3.349
12971TIP3    H189381   6.153   7.015   3.379
12971TIP3    H289382   6.105   6.921   3.270
12972TIP3   OH289383   5.856   6.256   3.251
12972TIP3    H189384   5.862   6.351   3.259
12972TIP3    H289385   5.799   6.242   3.175
12973TIP3   OH289386   6.633   7.281   3.144
12973TIP3    H189387   6.576   7.209   3.170
12973TIP3    H289388   6.718   7.239   3.126
12974TIP3   OH289389   7.123   7.245   3.207
12974TIP3    H189390   7.178   7.213   3.278
12974TIP3    H289391   7.184   7.268   3.137
12975TIP3   OH289392   6.197   6.825   3.143
12975TIP3    H189393   6.214   6.757   3.208
12975TIP3    H289394   6.281   6.838   3.099
12976TIP3   OH289395   6.829   6.912   3.182
12976TIP3    H189396   6.780   6.925   3.263
12976TIP3    H289397   6.795   6.829   3.147
12977TIP3   OH289398   6.283   6.649   3.336
12977TIP3    H189399   6.288   6.654   3.432
12977TIP3    H289400   6.347   6.582   3.312
12978TIP3   OH289401   6.457   6.433   3.274
12978TIP3    H189402   6.437   6.397   3.188
12978TIP3    H289403   6.552   6.444   3.275
12979TIP3   OH289404   7.371   6.668   3.190
12979TIP3    H189405   7.283   6.630   3.191
12979TIP3    H289406   7.356   6.762   3.192
12980TIP3   OH289407   6.464   7.616   3.406
12980TIP3    H189408   6.544   7.564   3.400
12980TIP3    H289409   6.456   7.657   3.319
12981TIP3   OH289410   5.818   7.054   3.222
12981TIP3    H189411   5.895   7.036   3.276
12981TIP3    H289412   5.798   6.969   3.182
12982TIP3   OH289413   7.518   6.586   3.405
12982TIP3    H189414   7.463   6.609   3.330
12982TIP3    H289415   7.483   6.638   3.477
12983TIP3   OH289416   7.335   6.313   3.230
12983TIP3    H189417   7.330   6.370   3.153
12983TIP3    H289418   7.303   6.228   3.198
12984TIP3   OH289419   7.240   6.078   3.117
12984TIP3    H189420   7.294   6.023   3.174
12984TIP3    H289421   7.158   6.029   3.107
12985TIP3   OH289422   7.417   5.934   3.281
12985TIP3    H189423   7.468   5.898   3.209
12985TIP3    H289424   7.479   5.985   3.332
12986TIP3   OH289425   5.836   5.743   3.357
12986TIP3    H189426   5.898   5.798   3.309
12986TIP3    H289427   5.823   5.790   3.439
12987TIP3   OH289428   6.036   5.908   3.244
12987TIP3    H189429   6.094   5.856   3.189
12987TIP3    H289430   6.093   5.943   3.313
12988TIP3   OH289431   6.684   7.461   3.345
12988TIP3    H189432   6.780   7.468   3.344
12988TIP3    H289433   6.663   7.412   3.266
12989TIP3   OH289434   6.030   7.435   3.212
12989TIP3    H189435   6.004   7.438   3.304
12989TIP3    H289436   6.098   7.368   3.210
12990TIP3   OH289437   7.603   6.094   3.408
12990TIP3    H189438   7.693   6.115   3.431
12990TIP3    H289439   7.552   6.167   3.444
12991TIP3   OH289440   8.085   6.347   3.295
12991TIP3    H189441   8.000   6.320   3.330
12991TIP3    H289442   8.075   6.341   3.200
12992TIP3   OH289443   7.763   6.547   3.292
12992TIP3    H189444   7.815   6.617   3.332
12992TIP3    H289445   7.675   6.558   3.329
12993TIP3   OH289446   7.890   6.759   3.418
12993TIP3    H189447   7.834   6.744   3.495
12993TIP3    H289448   7.902   6.854   3.416
12994TIP3   OH289449   8.142   5.932   3.433
12994TIP3    H189450   8.111   5.948   3.522
12994TIP3    H289451   0.053   6.009   3.413
12995TIP3   OH289452   7.945   7.027   3.333
12995TIP3    H189453   7.999   7.103   3.356
12995TIP3    H289454   7.996   6.980   3.267
12996TIP3   OH289455   7.818   6.279   3.323
12996TIP3    H189456   7.790   6.371   3.317
12996TIP3    H289457   7.758   6.232   3.265
12997TIP3   OH289458   8.030   6.812   3.175
12997TIP3    H189459   8.005   6.763   3.254
12997TIP3    H289460   8.124   6.796   3.167
12998TIP3   OH289461   7.716   7.014   3.176
12998TIP3    H189462   7.788   7.029   3.237
12998TIP3    H289463   7.648   6.972   3.228
12999TIP3   OH289464   7.716   5.750   3.358
12999TIP3    H189465   7.765   5.820   3.314
12999TIP3    H289466   7.727   5.769   3.451
13000TIP3   OH289467   7.929   5.910   3.253
13000TIP3    H189468   7.968   5.848   3.192
13000TIP3    H289469   7.994   5.919   3.323
13001TIP3   OH289470   7.866   7.439   3.250
13001TIP3    H189471   7.815   7.513   3.285
13001TIP3    H289472   7.889   7.388   3.327
13002TIP3   OH289473   1.646   7.626   3.420
13002TIP3    H189474   1.573   7.663   3.469
13002TIP3    H289475   1.684   7.701   3.373
13003TIP3   OH289476   1.001   7.901   3.323
13003TIP3    H189477   0.985   7.892   3.417
13003TIP3    H289478   0.954   7.829   3.283
13004TIP3   OH289479   0.675   7.941   3.148
13004TIP3    H189480   0.633   7.942   3.234
13004TIP3    H289481   0.602   7.932   3.086
13005TIP3   OH289482   0.150   8.049   3.475
13005TIP3    H189483   0.153   8.136   3.435
13005TIP3    H289484   0.173   8.064   3.567
13006TIP3   OH289485   1.262   7.985   3.300
13006TIP3    H189486   1.170   7.966   3.315
13006TIP3    H289487   1.304   7.971   3.386
13007TIP3   OH289488   0.603   7.845   3.426
13007TIP3    H189489   0.605   7.886   3.513
13007TIP3    H289490   0.667   7.774   3.432
13008TIP3   OH289491   1.585   7.950   3.123
13008TIP3    H189492   1.630   7.910   3.197
13008TIP3    H289493   1.506   7.896   3.112
13009TIP3   OH289494   1.774   7.842   3.300
13009TIP3    H189495   1.840   7.781   3.267
13009TIP3    H289496   1.824   7.912   3.342
13010TIP3   OH289497   0.247   7.678   3.448
13010TIP3    H189498   0.281   7.712   3.366
13010TIP3    H289499   0.156   7.707   3.450
13011TIP3   OH289500   0.400   7.809   3.241
13011TIP3    H189501   0.442   7.740   3.191
13011TIP3    H289502   0.460   7.826   3.314
13012TIP3   OH289503   3.516   7.583   3.423
13012TIP3    H189504   3.479   7.611   3.507
13012TIP3    H289505   3.551   7.663   3.384
13013TIP3   OH289506   2.886   7.898   3.335
13013TIP3    H189507   2.872   7.889   3.429
13013TIP3    H289508   2.838   7.825   3.297
13014TIP3   OH289509   2.554   7.937   3.156
13014TIP3    H189510   2.500   7.931   3.235
13014TIP3    H289511   2.492   7.924   3.084
13015TIP3   OH289512   1.910   8.049   3.429
13015TIP3    H189513   1.954   8.131   3.408
13015TIP3    H289514   1.937   8.031   3.519
13016TIP3   OH289515   3.144   7.987   3.309
13016TIP3    H189516   3.053   7.964   3.323
13016TIP3    H289517   3.181   7.992   3.397
13017TIP3   OH289518   2.450   7.863   3.416
13017TIP3    H189519   2.442   7.905   3.502
13017TIP3    H289520   2.512   7.792   3.430
13018TIP3   OH289521   3.504   7.900   3.084
13018TIP3    H189522   3.539   7.873   3.169
13018TIP3    H289523   3.411   7.880   3.089
13019TIP3   OH289524   3.666   7.779   3.292
13019TIP3    H189525   3.693   7.717   3.224
13019TIP3    H289526   3.738   7.780   3.354
13020TIP3   OH289527   2.038   7.642   3.341
13020TIP3    H189528   2.102   7.700   3.299
13020TIP3    H289529   2.078   7.618   3.424
13021TIP3   OH289530   2.247   7.803   3.232
13021TIP3    H189531   2.302   7.744   3.180
13021TIP3    H289532   2.301   7.828   3.307
13022TIP3   OH289533   5.469   7.632   3.454
13022TIP3    H189534   5.378   7.603   3.455
13022TIP3    H289535   5.473   7.698   3.385
13023TIP3   OH289536   4.740   7.926   3.301
13023TIP3    H189537   4.730   7.913   3.395
13023TIP3    H289538   4.701   7.848   3.261
13024TIP3   OH289539   4.379   7.922   3.168
13024TIP3    H189540   4.381   7.929   3.264
13024TIP3    H289541   4.327   7.844   3.151
13025TIP3   OH289542   3.843   8.015   3.440
13025TIP3    H189543   3.876   7.986   3.525
13025TIP3    H289544   3.763   8.063   3.459
13026TIP3   OH289545   5.006   8.005   3.295
13026TIP3    H189546   4.911   7.988   3.293
13026TIP3    H289547   5.028   8.010   3.388
13027TIP3   OH289548   4.357   7.853   3.441
13027TIP3    H189549   4.362   7.884   3.531
13027TIP3    H289550   4.419   7.780   3.437
13028TIP3   OH289551   5.358   7.951   3.083
13028TIP3    H189552   5.397   7.912   3.162
13028TIP3    H289553   5.273   7.907   3.075
13029TIP3   OH289554   5.530   7.834   3.278
13029TIP3    H189555   5.583   7.777   3.222
13029TIP3    H289556   5.592   7.898   3.313
13030TIP3   OH289557   3.905   7.647   3.419
13030TIP3    H189558   3.968   7.709   3.383
13030TIP3    H289559   3.950   7.606   3.493
13031TIP3   OH289560   4.104   7.822   3.316
13031TIP3    H189561   4.148   7.759   3.258
13031TIP3    H289562   4.171   7.847   3.380
13032TIP3   OH289563   7.311   7.574   3.437
13032TIP3    H189564   7.259   7.582   3.518
13032TIP3    H289565   7.349   7.661   3.425
13033TIP3   OH289566   6.659   7.883   3.327
13033TIP3    H189567   6.642   7.856   3.417
13033TIP3    H289568   6.600   7.828   3.275
13034TIP3   OH289569   6.282   7.941   3.160
13034TIP3    H189570   6.273   7.927   3.254
13034TIP3    H289571   6.192   7.935   3.126
13035TIP3   OH289572   5.697   8.024   3.406
13035TIP3    H189573   5.769   8.087   3.399
13035TIP3    H289574   5.631   8.069   3.459
13036TIP3   OH289575   6.906   7.995   3.334
13036TIP3    H189576   6.814   7.968   3.328
13036TIP3    H289577   6.928   7.987   3.426
13037TIP3   OH289578   6.254   7.836   3.427
13037TIP3    H189579   6.244   7.873   3.515
13037TIP3    H289580   6.319   7.767   3.437
13038TIP3   OH289581   7.257   7.898   3.123
13038TIP3    H189582   7.264   7.924   3.214
13038TIP3    H289583   7.164   7.876   3.111
13039TIP3   OH289584   7.497   7.784   3.355
13039TIP3    H189585   7.504   7.762   3.262
13039TIP3    H289586   7.533   7.873   3.361
13040TIP3   OH289587   5.835   7.626   3.384
13040TIP3    H189588   5.901   7.671   3.331
13040TIP3    H289589   5.790   7.697   3.430
13041TIP3   OH289590   6.040   7.772   3.261
13041TIP3    H189591   6.090   7.717   3.201
13041TIP3    H289592   6.102   7.794   3.330
13042TIP3   OH289593   7.609   8.026   3.414
13042TIP3    H189594   7.689   8.077   3.428
13042TIP3    H289595   7.539   8.080   3.452
13043TIP3   OH289596   0.006   7.820   3.455
13043TIP3    H189597   8.108   7.828   3.541
13043TIP3    H289598   0.059   7.899   3.447
13044TIP3   OH289599   7.734   7.643   3.381
13044TIP3    H189600   7.791   7.706   3.338
13044TIP3    H289601   7.648   7.684   3.380
13045TIP3   OH289602   7.941   7.794   3.280
13045TIP3    H189603   7.977   7.737   3.212
13045TIP3    H289604   8.013   7.803   3.343
13046TIP3   OH289605   1.187   1.040   4.142
13046TIP3    H189606   1.173   1.134   4.135
13046TIP3    H289607   1.147   1.016   4.226
13047TIP3   OH289608   1.095   0.950   4.559
13047TIP3    H189609   1.118   0.914   4.645
13047TIP3    H289610   1.057   0.876   4.512
13048TIP3   OH289611   0.279   0.844   4.695
13048TIP3    H189612   0.270   0.775   4.760
13048TIP3    H289613   0.349   0.900   4.729
13049TIP3   OH289614   1.457   1.260   4.403
13049TIP3    H189615   1.428   1.183   4.452
13049TIP3    H289616   1.472   1.327   4.470
13050TIP3   OH289617   0.313   1.322   4.496
13050TIP3    H189618   0.331   1.233   4.466
13050TIP3    H289619   0.379   1.338   4.564
13051TIP3   OH289620   0.155   0.728   4.021
13051TIP3    H189621   0.176   0.807   4.070
13051TIP3    H289622   0.068   0.703   4.051
13052TIP3   OH289623   0.202   0.918   4.239
13052TIP3    H189624   0.197   0.844   4.300
13052TIP3    H289625   0.258   0.982   4.284
13053TIP3   OH289626   1.190   1.711   4.441
13053TIP3    H189627   1.248   1.657   4.386
13053TIP3    H289628   1.171   1.655   4.517
13054TIP3   OH289629   0.948   1.188   4.587
13054TIP3    H189630   0.986   1.105   4.559
13054TIP3    H289631   1.016   1.230   4.640
13055TIP3   OH289632   1.822   0.338   4.675
13055TIP3    H189633   1.826   0.408   4.740
13055TIP3    H289634   1.891   0.357   4.613
13056TIP3   OH289635   1.230   0.633   4.607
13056TIP3    H189636   1.248   0.539   4.605
13056TIP3    H289637   1.154   0.644   4.551
13057TIP3   OH289638   0.573   0.412   4.354
13057TIP3    H189639   0.614   0.493   4.322
13057TIP3    H289640   0.537   0.371   4.276
13058TIP3   OH289641   1.360   0.433   4.150
13058TIP3    H189642   1.387   0.418   4.240
13058TIP3    H289643   1.432   0.483   4.111
13059TIP3   OH289644   0.218   0.685   4.385
13059TIP3    H189645   0.266   0.659   4.464
13059TIP3    H289646   0.268   0.647   4.313
13060TIP3   OH289647   0.712   0.836   4.361
13060TIP3    H189648   0.799   0.805   4.388
13060TIP3    H289649   0.678   0.765   4.305
13061TIP3   OH289650   1.814   0.505   4.896
13061TIP3    H189651   1.760   0.577   4.862
13061TIP3    H289652   1.760   0.465   4.964
13062TIP3   OH289653   0.366   0.323   4.751
13062TIP3    H189654   0.358   0.389   4.682
13062TIP3    H289655   0.296   0.344   4.812
13063TIP3   OH289656   1.169   1.305   4.067
13063TIP3    H189657   1.164   1.302   3.971
13063TIP3    H289658   1.136   1.392   4.090
13064TIP3   OH289659   0.728   1.091   4.730
13064TIP3    H189660   0.679   1.160   4.773
13064TIP3    H289661   0.797   1.137   4.682
13065TIP3   OH289662   1.439   0.403   4.413
13065TIP3    H189663   1.372   0.384   4.478
13065TIP3    H289664   1.501   0.461   4.458
13066TIP3   OH289665   0.389   0.508   4.543
13066TIP3    H189666   0.440   0.567   4.598
13066TIP3    H289667   0.451   0.476   4.478
13067TIP3   OH289668   0.578   1.285   4.862
13067TIP3    H189669   0.580   1.380   4.854
13067TIP3    H289670   0.495   1.265   4.905
13068TIP3   OH289671   0.178   1.295   3.893
13068TIP3    H189672   0.114   1.316   3.826
13068TIP3    H289673   0.159   1.355   3.965
13069TIP3   OH289674   1.480   1.473   4.591
13069TIP3    H189675   1.386   1.484   4.608
13069TIP3    H289676   1.510   1.560   4.564
13070TIP3   OH289677   1.568   0.242   4.742
13070TIP3    H189678   1.496   0.293   4.704
13070TIP3    H289679   1.647   0.281   4.706
13071TIP3   OH289680   0.810   0.068   4.485
13071TIP3    H189681   0.831   8.143   4.548
13071TIP3    H289682   0.726   0.102   4.515
13072TIP3   OH289683   1.346   1.581   4.255
13072TIP3    H189684   1.388   1.500   4.226
13072TIP3    H289685   1.411   1.649   4.239
13073TIP3   OH289686   1.439   1.347   4.144
13073TIP3    H189687   1.354   1.311   4.118
13073TIP3    H289688   1.458   1.305   4.228
13074TIP3   OH289689   1.597   1.243   4.962
13074TIP3    H189690   1.591   1.184   4.887
13074TIP3    H289691   1.607   1.330   4.923
13075TIP3   OH289692   1.072   0.940   3.887
13075TIP3    H189693   1.008   1.011   3.885
13075TIP3    H289694   1.139   0.970   3.949
13076TIP3   OH289695   1.044   0.797   3.648
13076TIP3    H189696   1.062   0.842   3.730
13076TIP3    H289697   1.123   0.746   3.631
13077TIP3   OH289698   1.774   0.916   4.784
13077TIP3    H189699   1.701   0.978   4.777
13077TIP3    H289700   1.834   0.942   4.714
13078TIP3   OH289701   1.434   0.981   4.038
13078TIP3    H189702   1.355   0.995   4.090
13078TIP3    H289703   1.493   0.932   4.095
13079TIP3   OH289704   1.400   0.784   4.969
13079TIP3    H189705   1.395   0.847   5.040
13079TIP3    H289706   1.332   0.811   4.908
13080TIP3   OH289707   0.585   1.033   4.209
13080TIP3    H189708   0.561   0.988   4.128
13080TIP3    H289709   0.639   0.970   4.257
13081TIP3   OH289710   0.802   1.396   4.462
13081TIP3    H189711   0.774   1.353   4.382
13081TIP3    H289712   0.853   1.330   4.509
13082TIP3   OH289713   0.570   0.913   4.587
13082TIP3    H189714   0.625   0.890   4.512
13082TIP3    H289715   0.624   0.974   4.638
13083TIP3   OH289716   1.217   1.511   4.662
13083TIP3    H189717   1.209   1.567   4.739
13083TIP3    H289718   1.191   1.424   4.693
13084TIP3   OH289719   0.719   1.353   5.097
13084TIP3    H189720   0.648   1.407   5.130
13084TIP3    H289721   0.683   1.312   5.018
13085TIP3   OH289722   1.382   0.907   3.780
13085TIP3    H189723   1.391   0.922   3.874
13085TIP3    H289724   1.421   0.985   3.740
13086TIP3   OH289725   0.390   0.958   4.949
13086TIP3    H189726   0.400   1.051   4.970
13086TIP3    H289727   0.296   0.942   4.953
13087TIP3   OH289728   1.106   1.573   4.126
13087TIP3    H189729   1.181   1.574   4.185
13087TIP3    H289730   1.033   1.606   4.179
13088TIP3   OH289731   0.489   1.515   5.140
13088TIP3    H189732   0.514   1.542   5.051
13088TIP3    H289733   0.457   1.596   5.180
13089TIP3   OH289734   1.627   0.128   3.814
13089TIP3    H189735   1.566   0.100   3.746
13089TIP3    H289736   1.686   0.189   3.770
13090TIP3   OH289737   0.501   0.916   3.962
13090TIP3    H189738   0.432   0.969   3.922
13090TIP3    H289739   0.462   0.829   3.971
13091TIP3   OH289740   1.753   1.520   3.660
13091TIP3    H189741   1.782   1.611   3.656
13091TIP3    H289742   1.834   1.469   3.658
13092TIP3   OH289743   0.079   1.187   4.967
13092TIP3    H189744   0.024   1.215   4.894
13092TIP3    H289745   0.083   1.092   4.959
13093TIP3   OH289746   0.096   1.498   4.542
13093TIP3    H189747   0.159   1.428   4.527
13093TIP3    H289748   0.122   1.537   4.625
13094TIP3   OH289749   1.914   1.548   5.109
13094TIP3    H189750   1.868   1.468   5.136
13094TIP3    H289751   1.900   1.610   5.180
13095TIP3   OH289752   0.958   1.480   5.061
13095TIP3    H189753   0.955   1.556   5.119
13095TIP3    H289754   0.873   1.437   5.073
13096TIP3   OH289755   1.039   1.861   3.963
13096TIP3    H189756   1.131   1.841   3.977
13096TIP3    H289757   1.021   1.935   4.020
13097TIP3   OH289758   0.373   1.742   4.180
13097TIP3    H189759   0.405   1.682   4.248
13097TIP3    H289760   0.294   1.699   4.146
13098TIP3   OH289761   1.279   1.718   3.715
13098TIP3    H189762   1.350   1.672   3.670
13098TIP3    H289763   1.311   1.731   3.804
13099TIP3   OH289764   1.297   1.762   3.998
13099TIP3    H189765   1.249   1.684   4.026
13099TIP3    H289766   1.368   1.770   4.061
13100TIP3   OH289767   0.351   1.227   5.011
13100TIP3    H189768   0.353   1.263   5.100
13100TIP3    H289769   0.258   1.228   4.987
13101TIP3   OH289770   0.561   0.202   4.542
13101TIP3    H189771   0.477   0.169   4.511
13101TIP3    H289772   0.583   0.273   4.483
13102TIP3   OH289773   1.082   0.118   4.963
13102TIP3    H189774   1.165   0.072   4.947
13102TIP3    H289775   1.033   0.059   5.021
13103TIP3   OH289776   1.354   0.508   5.016
13103TIP3    H189777   1.303   0.518   5.096
13103TIP3    H289778   1.369   0.598   4.986
13104TIP3   OH289779   0.958   0.346   3.610
13104TIP3    H189780   0.907   0.318   3.686
13104TIP3    H289781   1.039   0.381   3.647
13105TIP3   OH289782   0.535   0.665   4.717
13105TIP3    H189783   0.470   0.676   4.786
13105TIP3    H289784   0.546   0.752   4.679
13106TIP3   OH289785   0.610   0.644   4.196
13106TIP3    H189786   0.515   0.637   4.189
13106TIP3    H289787   0.642   0.628   4.107
13107TIP3   OH289788   1.080   0.674   3.974
13107TIP3    H189789   1.067   0.767   3.955
13107TIP3    H289790   1.172   0.658   3.957
13108TIP3   OH289791   1.248   0.674   4.285
13108TIP3    H189792   1.159   0.679   4.320
13108TIP3    H289793   1.247   0.594   4.232
13109TIP3   OH289794   0.318   0.645   4.892
13109TIP3    H189795   0.306   0.685   4.978
13109TIP3    H289796   0.273   0.560   4.898
13110TIP3   OH289797   0.108   0.397   4.201
13110TIP3    H189798   0.120   0.421   4.293
13110TIP3    H289799   0.173   0.328   4.186
13111TIP3   OH289800   0.128   0.506   3.837
13111TIP3    H189801   0.200   0.525   3.776
13111TIP3    H289802   0.126   0.581   3.896
13112TIP3   OH289803   1.183   0.821   4.794
13112TIP3    H189804   1.213   0.759   4.728
13112TIP3    H289805   1.122   0.771   4.848
13113TIP3   OH289806   0.883   0.426   4.268
13113TIP3    H189807   0.825   0.387   4.334
13113TIP3    H289808   0.924   0.500   4.312
13114TIP3   OH289809   0.348   0.591   4.163
13114TIP3    H189810   0.282   0.621   4.101
13114TIP3    H289811   0.368   0.501   4.135
13115TIP3   OH289812   0.605   0.583   3.902
13115TIP3    H189813   0.698   0.576   3.924
13115TIP3    H289814   0.604   0.621   3.814
13116TIP3   OH289815   1.247   0.355   4.612
13116TIP3    H189816   1.208   0.363   4.699
13116TIP3    H289817   1.186   0.301   4.562
13117TIP3   OH289818   0.597   0.670   3.639
13117TIP3    H189819   0.543   0.667   3.559
13117TIP3    H289820   0.676   0.718   3.612
13118TIP3   OH289821   0.443   0.336   4.114
13118TIP3    H189822   0.390   0.258   4.130
13118TIP3    H289823   0.490   0.316   4.032
13119TIP3   OH289824   0.805   0.538   4.668
13119TIP3    H189825   0.739   0.608   4.668
13119TIP3    H289826   0.872   0.568   4.607
13120TIP3   OH289827   0.893   1.157   3.867
13120TIP3    H189828   0.827   1.106   3.819
13120TIP3    H289829   0.847   1.187   3.945
13121TIP3   OH289830   1.580   1.103   4.724
13121TIP3    H189831   1.643   1.159   4.678
13121TIP3    H289832   1.513   1.083   4.659
13122TIP3   OH289833   1.197   0.446   3.741
13122TIP3    H189834   1.233   0.465   3.654
13122TIP3    H289835   1.234   0.513   3.798
13123TIP3   OH289836   1.063   1.221   5.005
13123TIP3    H189837   1.002   1.158   5.043
13123TIP3    H289838   1.028   1.307   5.029
13124TIP3   OH289839   1.338   0.646   3.875
13124TIP3    H189840   1.420   0.622   3.918
13124TIP3    H289841   1.357   0.729   3.832
13125TIP3   OH289842   0.390   1.063   4.411
13125TIP3    H189843   0.457   1.066   4.343
13125TIP3    H289844   0.428   1.007   4.479
13126TIP3   OH289845   1.116   1.305   3.789
13126TIP3    H189846   1.073   1.389   3.778
13126TIP3    H289847   1.045   1.244   3.809
13127TIP3   OH289848   0.117   0.910   4.970
13127TIP3    H189849   0.139   0.844   5.036
13127TIP3    H289850   0.054   0.866   4.913
13128TIP3   OH289851   1.236   1.487   5.025
13128TIP3    H189852   1.140   1.488   5.024
13128TIP3    H289853   1.259   1.450   5.110
13129TIP3   OH289854   1.776   0.656   3.811
13129TIP3    H189855   1.760   0.611   3.728
13129TIP3    H289856   1.792   0.748   3.786
13130TIP3   OH289857   1.822   1.247   5.121
13130TIP3    H189858   1.737   1.254   5.079
13130TIP3    H289859   1.884   1.236   5.049
13131TIP3   OH289860   1.621   1.548   3.907
13131TIP3    H189861   1.587   1.467   3.945
13131TIP3    H289862   1.657   1.521   3.823
13132TIP3   OH289863   1.375   1.028   4.540
13132TIP3    H189864   1.280   1.012   4.543
13132TIP3    H289865   1.411   0.949   4.500
13133TIP3   OH289866   0.644   1.476   4.170
13133TIP3    H189867   0.664   1.567   4.148
13133TIP3    H289868   0.574   1.482   4.236
13134TIP3   OH289869   0.107   0.909   3.743
13134TIP3    H189870   0.184   0.959   3.768
13134TIP3    H289871   0.046   0.919   3.817
13135TIP3   OH289872   0.714   1.239   4.057
13135TIP3    H189873   0.693   1.322   4.099
13135TIP3    H289874   0.672   1.173   4.113
13136TIP3   OH289875   0.847   1.634   4.842
13136TIP3    H189876   0.896   1.697   4.790
13136TIP3    H289877   0.912   1.591   4.897
13137TIP3   OH289878   0.635   1.746   4.090
13137TIP3    H189879   0.545   1.756   4.121
13137TIP3    H289880   0.683   1.815   4.134
13138TIP3   OH289881   1.164   1.249   4.751
13138TIP3    H189882   1.130   1.240   4.840
13138TIP3    H289883   1.231   1.181   4.744
13139TIP3   OH289884   1.371   1.312   3.659
13139TIP3    H189885   1.432   1.263   3.714
13139TIP3    H289886   1.288   1.309   3.706
13140TIP3   OH289887   1.452   1.648   4.974
13140TIP3    H189888   1.370   1.600   4.988
13140TIP3    H289889   1.426   1.724   4.923
13141TIP3   OH289890   1.844   1.778   3.688
13141TIP3    H189891   1.918   1.839   3.686
13141TIP3    H289892   1.767   1.833   3.703
13142TIP3   OH289893   0.179   0.407   4.933
13142TIP3    H189894   0.085   0.425   4.943
13142TIP3    H289895   0.192   0.326   4.983
13143TIP3   OH289896   1.526   1.157   3.839
13143TIP3    H189897   1.488   1.117   3.916
13143TIP3    H289898   1.621   1.155   3.854
13144TIP3   OH289899   0.206   1.650   4.783
13144TIP3    H189900   0.291   1.632   4.744
13144TIP3    H289901   0.218   1.732   4.831
13145TIP3   OH289902   0.684   1.405   3.750
13145TIP3    H189903   0.695   1.343   3.822
13145TIP3    H289904   0.678   1.490   3.792
13146TIP3   OH289905   0.319   1.072   3.823
13146TIP3    H189906   0.264   1.137   3.868
13146TIP3    H289907   0.375   1.124   3.766
13147TIP3   OH289908   1.143   0.383   4.873
13147TIP3    H189909   1.221   0.409   4.923
13147TIP3    H289910   1.120   0.297   4.908
13148TIP3   OH289911   1.206   0.280   3.980
13148TIP3    H189912   1.197   0.330   3.898
13148TIP3    H289913   1.257   0.338   4.037
13149TIP3   OH289914   0.947   1.519   3.728
13149TIP3    H189915   0.865   1.468   3.730
13149TIP3    H289916   0.968   1.525   3.635
13150TIP3   OH289917   0.852   0.532   4.011
13150TIP3    H189918   0.932   0.584   3.997
13150TIP3    H289919   0.859   0.503   4.102
13151TIP3   OH289920   1.027   0.643   4.930
13151TIP3    H189921   1.011   0.624   5.022
13151TIP3    H289922   1.048   0.559   4.890
13152TIP3   OH289923   0.959   0.210   4.097
13152TIP3    H189924   0.946   0.280   4.160
13152TIP3    H289925   1.048   0.225   4.064
13153TIP3   OH289926   0.706   1.675   3.840
13153TIP3    H189927   0.685   1.760   3.801
13153TIP3    H289928   0.680   1.684   3.931
13154TIP3   OH289929   0.560   0.315   3.855
13154TIP3    H189930   0.558   0.410   3.869
13154TIP3    H289931   0.652   0.293   3.846
13155TIP3   OH289932   1.613   0.411   5.062
13155TIP3    H189933   1.523   0.436   5.041
13155TIP3    H289934   1.613   0.316   5.055
13156TIP3   OH289935   1.455   0.786   4.424
13156TIP3    H189936   1.377   0.748   4.384
13156TIP3    H289937   1.491   0.716   4.479
13157TIP3   OH289938   0.392   1.309   3.681
13157TIP3    H189939   0.372   1.343   3.768
13157TIP3    H289940   0.481   1.341   3.662
13158TIP3   OH289941   1.567   1.735   4.556
13158TIP3    H189942   1.556   1.807   4.494
13158TIP3    H289943   1.661   1.734   4.574
13159TIP3   OH289944   0.306   0.129   4.435
13159TIP3    H189945   0.291   0.134   4.340
13159TIP3    H289946   0.219   0.131   4.473
13160TIP3   OH289947   0.112   1.509   4.051
13160TIP3    H189948   0.109   1.550   4.137
13160TIP3    H289949   0.125   1.582   3.990
13161TIP3   OH289950   1.474   1.565   3.590
13161TIP3    H189951   1.441   1.477   3.609
13161TIP3    H289952   1.569   1.557   3.599
13162TIP3   OH289953   1.354   1.134   5.060
13162TIP3    H189954   1.424   1.188   5.025
13162TIP3    H289955   1.274   1.185   5.046
13163TIP3   OH289956   0.691   1.002   3.764
13163TIP3    H189957   0.635   0.964   3.832
13163TIP3    H289958   0.713   0.928   3.708
13164TIP3   OH289959   0.585   0.777   5.028
13164TIP3    H189960   0.515   0.838   5.006
13164TIP3    H289961   0.661   0.810   4.980
13165TIP3   OH289962   0.798   0.827   3.541
13165TIP3    H189963   0.816   0.820   3.447
13165TIP3    H289964   0.883   0.818   3.583
13166TIP3   OH289965   0.544   0.519   5.115
13166TIP3    H189966   0.586   0.468   5.045
13166TIP3    H289967   0.550   0.610   5.085
13167TIP3   OH289968   0.639   0.429   4.853
13167TIP3    H189969   0.722   0.450   4.811
13167TIP3    H289970   0.581   0.502   4.831
13168TIP3   OH289971   0.802   0.888   4.910
13168TIP3    H189972   0.883   0.847   4.881
13168TIP3    H289973   0.786   0.958   4.846
13169TIP3   OH289974   0.744   0.110   4.880
13169TIP3    H189975   0.825   0.147   4.914
13169TIP3    H289976   0.717   0.048   4.948
13170TIP3   OH289977   0.777   1.910   3.706
13170TIP3    H189978   0.818   1.940   3.624
13170TIP3    H289979   0.769   1.989   3.759
13171TIP3   OH289980   0.101   1.351   3.616
13171TIP3    H189981   0.193   1.332   3.635
13171TIP3    H289982   0.097   1.351   3.520
13172TIP3   OH289983   0.019   1.848   4.154
13172TIP3    H189984   8.071   1.825   4.146
13172TIP3    H289985   0.056   1.779   4.210
13173TIP3   OH289986   0.123   1.644   4.304
13173TIP3    H189987   0.103   1.567   4.358
13173TIP3    H289988   0.161   1.707   4.366
13174TIP3   OH289989   1.829   1.740   4.640
13174TIP3    H189990   1.821   1.720   4.733
13174TIP3    H289991   1.879   1.822   4.637
13175TIP3   OH289992   1.795   1.685   4.905
13175TIP3    H189993   1.732   1.616   4.884
13175TIP3    H289994   1.853   1.645   4.971
13176TIP3   OH289995   1.795   1.107   3.916
13176TIP3    H189996   1.861   1.176   3.927
13176TIP3    H289997   1.810   1.048   3.989
13177TIP3   OH289998   1.850   0.919   4.120
13177TIP3    H189999   1.765   0.890   4.155
13177TIP3    H290000   1.902   0.938   4.197
13178TIP3   OH290001   1.826   1.229   4.659
13178TIP3    H190002   1.876   1.163   4.611
13178TIP3    H290003   1.853   1.313   4.622
13179TIP3   OH290004   1.616   1.485   4.836
13179TIP3    H190005   1.553   1.538   4.885
13179TIP3    H290006   1.576   1.474   4.749
13180TIP3   OH290007   1.825   0.911   3.723
13180TIP3    H190008   1.798   0.944   3.637
13180TIP3    H290009   1.804   0.983   3.783
13181TIP3   OH290010   1.599   0.810   4.187
13181TIP3    H190011   1.587   0.723   4.149
13181TIP3    H290012   1.557   0.804   4.273
13182TIP3   OH290013   0.073   0.938   4.536
13182TIP3    H190014   0.101   1.029   4.527
13182TIP3    H290015   0.140   0.898   4.591
13183TIP3   OH290016   1.726   1.015   5.250
13183TIP3    H190017   1.773   0.937   5.221
13183TIP3    H290018   1.763   1.086   5.198
13184TIP3   OH290019   1.542   0.416   3.570
13184TIP3    H190020   1.625   0.401   3.616
13184TIP3    H290021   1.522   0.333   3.529
13185TIP3   OH290022   1.584   0.567   4.004
13185TIP3    H190023   1.614   0.477   4.016
13185TIP3    H290024   1.647   0.606   3.943
13186TIP3   OH290025   1.597   0.583   4.563
13186TIP3    H190026   1.689   0.598   4.541
13186TIP3    H290027   1.589   0.608   4.655
13187TIP3   OH290028   1.621   0.690   4.821
13187TIP3    H190029   1.544   0.719   4.869
13187TIP3    H290030   1.672   0.770   4.808
13188TIP3   OH290031   1.665   0.302   4.031
13188TIP3    H190032   1.666   0.249   4.110
13188TIP3    H290033   1.640   0.242   3.962
13189TIP3   OH290034   0.135   0.406   4.470
13189TIP3    H190035   0.122   0.322   4.515
13189TIP3    H290036   0.217   0.439   4.507
13190TIP3   OH290037   8.093   0.696   4.464
13190TIP3    H190038   0.039   0.684   4.436
13190TIP3    H290039   8.089   0.785   4.497
13191TIP3   OH290040   1.778   0.314   3.677
13191TIP3    H190041   1.811   0.255   3.610
13191TIP3    H290042   1.857   0.355   3.713
13192TIP3   OH290043   0.089   0.250   3.941
13192TIP3    H190044   0.003   0.256   3.983
13192TIP3    H290045   0.113   0.341   3.923
13193TIP3   OH290046   1.500   1.794   4.182
13193TIP3    H190047   1.579   1.797   4.128
13193TIP3    H290048   1.517   1.856   4.253
13194TIP3   OH290049   8.099   0.073   4.767
13194TIP3    H190050   8.115   0.032   4.852
13194TIP3    H290051   8.059   0.157   4.788
13195TIP3   OH290052   0.588   1.560   4.885
13195TIP3    H190053   0.546   1.591   4.804
13195TIP3    H290054   0.679   1.589   4.877
13196TIP3   OH290055   0.958   1.702   5.228
13196TIP3    H190056   0.987   1.674   5.315
13196TIP3    H290057   1.032   1.750   5.192
13197TIP3   OH290058   1.162   1.829   5.091
13197TIP3    H190059   1.190   1.780   5.014
13197TIP3    H290060   1.230   1.812   5.157
13198TIP3   OH290061   1.642   0.137   4.990
13198TIP3    H190062   1.601   0.163   4.907
13198TIP3    H290063   1.621   0.044   4.999
13199TIP3   OH290064   0.252   1.915   4.879
13199TIP3    H190065   0.184   1.971   4.841
13199TIP3    H290066   0.268   1.952   4.966
13200TIP3   OH290067   0.531   1.907   4.805
13200TIP3    H190068   0.440   1.915   4.835
13200TIP3    H290069   0.532   1.828   4.751
13201TIP3   OH290070   0.985   1.846   4.711
13201TIP3    H190071   0.937   1.875   4.633
13201TIP3    H290072   0.983   1.922   4.770
13202TIP3   OH290073   1.207   1.739   4.828
13202TIP3    H190074   1.132   1.773   4.780
13202TIP3    H290075   1.281   1.791   4.797
13203TIP3   OH290076   1.447   1.860   4.773
13203TIP3    H190077   1.474   1.949   4.751
13203TIP3    H290078   1.487   1.806   4.705
13204TIP3   OH290079   0.208   1.794   4.522
13204TIP3    H190080   0.152   1.779   4.598
13204TIP3    H290081   0.292   1.755   4.545
13205TIP3   OH290082   0.435   1.528   4.344
13205TIP3    H190083   0.382   1.454   4.373
13205TIP3    H290084   0.460   1.572   4.426
13206TIP3   OH290085   0.747   1.669   4.480
13206TIP3    H190086   0.777   1.578   4.477
13206TIP3    H290087   0.665   1.667   4.529
13207TIP3   OH290088   1.072   0.193   4.474
13207TIP3    H190089   0.987   0.148   4.469
13207TIP3    H290090   1.126   0.148   4.409
13208TIP3   OH290091   1.528   0.032   4.407
13208TIP3    H190092   1.594   0.076   4.353
13208TIP3    H290093   1.450   0.087   4.398
13209TIP3   OH290094   1.732   0.142   4.250
13209TIP3    H190095   1.792   0.067   4.256
13209TIP3    H290096   1.785   0.218   4.273
13210TIP3   OH290097   0.248   0.146   4.150
13210TIP3    H190098   0.193   0.161   4.073
13210TIP3    H290099   0.275   0.055   4.143
13211TIP3   OH290100   0.184   0.111   3.722
13211TIP3    H190101   0.260   0.161   3.691
13211TIP3    H290102   0.162   0.152   3.806
13212TIP3   OH290103   0.715   0.108   4.226
13212TIP3    H190104   0.788   0.139   4.171
13212TIP3    H290105   0.755   0.091   4.311
13213TIP3   OH290106   1.245   0.087   4.283
13213TIP3    H190107   1.268   0.149   4.213
13213TIP3    H290108   1.264   0.001   4.245
13214TIP3   OH290109   1.321   0.048   3.867
13214TIP3    H190110   1.285   0.127   3.907
13214TIP3    H290111   1.394   0.023   3.923
13215TIP3   OH290112   0.157   1.694   3.850
13215TIP3    H190113   0.159   1.665   3.759
13215TIP3    H290114   0.171   1.789   3.845
13216TIP3   OH290115   0.394   0.264   3.630
13216TIP3    H190116   0.447   0.300   3.559
13216TIP3    H290117   0.448   0.273   3.708
13217TIP3   OH290118   0.835   0.303   3.861
13217TIP3    H190119   0.878   0.243   3.922
13217TIP3    H290120   0.846   0.389   3.900
13218TIP3   OH290121   1.048   1.810   3.611
13218TIP3    H190122   1.137   1.789   3.637
13218TIP3    H290123   1.052   1.817   3.515
13219TIP3   OH290124   1.705   1.792   3.996
13219TIP3    H190125   1.680   1.706   3.964
13219TIP3    H290126   1.699   1.850   3.920
13220TIP3   OH290127   0.199   0.167   5.058
13220TIP3    H190128   0.142   0.092   5.041
13220TIP3    H290129   0.213   0.165   5.153
13221TIP3   OH290130   0.248   1.823   3.549
13221TIP3    H190131   0.222   1.874   3.626
13221TIP3    H290132   0.338   1.798   3.566
13222TIP3   OH290133   3.087   1.053   4.168
13222TIP3    H190134   3.072   1.147   4.154
13222TIP3    H290135   3.018   1.010   4.117
13223TIP3   OH290136   2.961   0.952   4.568
13223TIP3    H190137   2.989   0.912   4.650
13223TIP3    H290138   2.912   0.883   4.523
13224TIP3   OH290139   2.177   0.872   4.689
13224TIP3    H190140   2.187   0.805   4.756
13224TIP3    H290141   2.266   0.896   4.665
13225TIP3   OH290142   3.352   1.264   4.387
13225TIP3    H190143   3.315   1.188   4.433
13225TIP3    H290144   3.363   1.330   4.456
13226TIP3   OH290145   2.343   1.348   4.470
13226TIP3    H190146   2.306   1.261   4.457
13226TIP3    H290147   2.434   1.332   4.495
13227TIP3   OH290148   1.960   0.675   4.023
13227TIP3    H190149   1.934   0.761   4.058
13227TIP3    H290150   1.895   0.656   3.955
13228TIP3   OH290151   2.036   0.945   4.332
13228TIP3    H190152   2.064   0.856   4.353
13228TIP3    H290153   2.114   0.999   4.345
13229TIP3   OH290154   3.096   1.706   4.446
13229TIP3    H190155   3.126   1.657   4.370
13229TIP3    H290156   3.087   1.640   4.515
13230TIP3   OH290157   2.821   1.197   4.588
13230TIP3    H190158   2.858   1.113   4.561
13230TIP3    H290159   2.889   1.238   4.641
13231TIP3   OH290160   3.711   0.327   4.689
13231TIP3    H190161   3.717   0.398   4.753
13231TIP3    H290162   3.780   0.347   4.625
13232TIP3   OH290163   3.106   0.629   4.579
13232TIP3    H190164   3.113   0.535   4.595
13232TIP3    H290165   3.096   0.637   4.484
13233TIP3   OH290166   2.464   0.440   4.337
13233TIP3    H190167   2.473   0.523   4.290
13233TIP3    H290168   2.414   0.383   4.279
13234TIP3   OH290169   3.248   0.446   4.161
13234TIP3    H190170   3.284   0.417   4.244
13234TIP3    H290171   3.323   0.485   4.115
13235TIP3   OH290172   2.106   0.685   4.400
13235TIP3    H190173   2.169   0.647   4.461
13235TIP3    H290174   2.132   0.651   4.314
13236TIP3   OH290175   2.576   0.830   4.376
13236TIP3    H190176   2.662   0.798   4.403
13236TIP3    H290177   2.543   0.764   4.316
13237TIP3   OH290178   3.714   0.514   4.891
13237TIP3    H190179   3.653   0.581   4.860
13237TIP3    H290180   3.669   0.472   4.964
13238TIP3   OH290181   2.307   0.350   4.754
13238TIP3    H190182   2.289   0.412   4.683
13238TIP3    H290183   2.231   0.358   4.812
13239TIP3   OH290184   3.056   1.306   4.053
13239TIP3    H190185   3.039   1.302   3.959
13239TIP3    H290186   3.008   1.383   4.083
13240TIP3   OH290187   2.585   1.122   4.724
13240TIP3    H190188   2.538   1.194   4.767
13240TIP3    H290189   2.660   1.164   4.682
13241TIP3   OH290190   3.330   0.396   4.417
13241TIP3    H190191   3.258   0.377   4.478
13241TIP3    H290192   3.386   0.456   4.464
13242TIP3   OH290193   2.295   0.527   4.539
13242TIP3    H190194   2.349   0.582   4.595
13242TIP3    H290195   2.356   0.491   4.474
13243TIP3   OH290196   2.435   1.327   4.850
13243TIP3    H190197   2.444   1.421   4.832
13243TIP3    H290198   2.346   1.316   4.881
13244TIP3   OH290199   1.999   1.301   3.926
13244TIP3    H190200   1.989   1.347   3.842
13244TIP3    H290201   2.022   1.370   3.988
13245TIP3   OH290202   3.365   1.471   4.580
13245TIP3    H190203   3.271   1.480   4.598
13245TIP3    H290204   3.395   1.559   4.561
13246TIP3   OH290205   3.454   0.236   4.740
13246TIP3    H190206   3.391   0.306   4.723
13246TIP3    H290207   3.538   0.273   4.712
13247TIP3   OH290208   2.674   0.087   4.491
13247TIP3    H190209   2.700   0.019   4.552
13247TIP3    H290210   2.590   0.119   4.525
13248TIP3   OH290211   3.204   1.604   4.211
13248TIP3    H190212   3.250   1.523   4.189
13248TIP3    H290213   3.271   1.671   4.208
13249TIP3   OH290214   3.321   1.366   4.132
13249TIP3    H190215   3.236   1.330   4.107
13249TIP3    H290216   3.341   1.324   4.216
13250TIP3   OH290217   3.507   1.229   4.953
13250TIP3    H190218   3.490   1.178   4.874
13250TIP3    H290219   3.516   1.319   4.921
13251TIP3   OH290220   2.944   0.949   3.949
13251TIP3    H190221   2.878   1.015   3.926
13251TIP3    H290222   3.007   0.953   3.878
13252TIP3   OH290223   2.978   0.768   3.632
13252TIP3    H190224   3.039   0.816   3.688
13252TIP3    H290225   3.032   0.703   3.587
13253TIP3   OH290226   3.667   0.921   4.772
13253TIP3    H190227   3.591   0.980   4.764
13253TIP3    H290228   3.722   0.944   4.697
13254TIP3   OH290229   3.305   0.975   4.027
13254TIP3    H190230   3.239   1.004   4.089
13254TIP3    H290231   3.367   0.925   4.079
13255TIP3   OH290232   3.277   0.758   4.941
13255TIP3    H190233   3.282   0.822   5.012
13255TIP3    H290234   3.201   0.786   4.890
13256TIP3   OH290235   2.467   1.028   4.210
13256TIP3    H190236   2.443   0.986   4.127
13256TIP3    H290237   2.515   0.960   4.258
13257TIP3   OH290238   2.624   1.369   4.482
13257TIP3    H190239   2.632   1.375   4.387
13257TIP3    H290240   2.697   1.312   4.508
13258TIP3   OH290241   2.437   0.928   4.596
13258TIP3    H190242   2.492   0.899   4.524
13258TIP3    H290243   2.489   0.995   4.641
13259TIP3   OH290244   3.102   1.505   4.649
13259TIP3    H190245   3.088   1.568   4.720
13259TIP3    H290246   3.072   1.422   4.684
13260TIP3   OH290247   2.587   1.397   5.076
13260TIP3    H190248   2.516   1.444   5.120
13260TIP3    H290249   2.544   1.353   5.003
13261TIP3   OH290250   3.181   0.922   3.790
13261TIP3    H190251   3.217   0.937   3.877
13261TIP3    H290252   3.229   0.983   3.734
13262TIP3   OH290253   2.271   0.945   5.044
13262TIP3    H190254   2.250   0.948   5.137
13262TIP3    H290255   2.187   0.958   5.000
13263TIP3   OH290256   2.952   1.555   4.111
13263TIP3    H190257   3.032   1.578   4.159
13263TIP3    H290258   2.922   1.638   4.075
13264TIP3   OH290259   2.329   1.563   5.104
13264TIP3    H190260   2.385   1.594   5.033
13264TIP3    H290261   2.265   1.506   5.062
13265TIP3   OH290262   3.503   0.126   3.827
13265TIP3    H190263   3.417   0.108   3.788
13265TIP3    H290264   3.552   0.171   3.758
13266TIP3   OH290265   2.375   0.937   3.958
13266TIP3    H190266   2.320   1.009   3.928
13266TIP3    H290267   2.318   0.860   3.955
13267TIP3   OH290268   3.648   1.511   3.653
13267TIP3    H190269   3.675   1.603   3.654
13267TIP3    H290270   3.730   1.462   3.649
13268TIP3   OH290271   1.975   1.196   4.899
13268TIP3    H190272   1.922   1.206   4.819
13268TIP3    H290273   1.987   1.101   4.908
13269TIP3   OH290274   1.927   1.483   4.583
13269TIP3    H190275   2.004   1.497   4.639
13269TIP3    H290276   1.875   1.563   4.595
13270TIP3   OH290277   3.801   1.531   5.076
13270TIP3    H190278   3.866   1.466   5.103
13270TIP3    H290279   3.737   1.533   5.148
13271TIP3   OH290280   2.835   1.498   5.042
13271TIP3    H190281   2.842   1.573   5.101
13271TIP3    H290282   2.748   1.463   5.057
13272TIP3   OH290283   2.919   1.814   3.989
13272TIP3    H190284   2.858   1.818   3.916
13272TIP3    H290285   2.901   1.893   4.041
13273TIP3   OH290286   2.268   1.702   4.185
13273TIP3    H190287   2.290   1.673   4.274
13273TIP3    H290288   2.212   1.633   4.151
13274TIP3   OH290289   3.206   1.746   3.650
13274TIP3    H190290   3.268   1.676   3.630
13274TIP3    H290291   3.210   1.756   3.745
13275TIP3   OH290292   3.188   1.766   3.931
13275TIP3    H190293   3.095   1.777   3.953
13275TIP3    H290294   3.226   1.723   4.007
13276TIP3   OH290295   2.184   1.356   4.984
13276TIP3    H190296   2.187   1.326   5.075
13276TIP3    H290297   2.111   1.307   4.945
13277TIP3   OH290298   2.418   0.161   4.579
13277TIP3    H190299   2.355   0.186   4.511
13277TIP3    H290300   2.395   0.214   4.655
13278TIP3   OH290301   2.920   0.143   4.952
13278TIP3    H190302   2.917   0.065   5.008
13278TIP3    H290303   2.831   0.151   4.918
13279TIP3   OH290304   3.237   0.490   5.012
13279TIP3    H190305   3.190   0.505   5.094
13279TIP3    H290306   3.255   0.579   4.979
13280TIP3   OH290307   2.839   0.327   3.611
13280TIP3    H190308   2.799   0.335   3.698
13280TIP3    H290309   2.903   0.256   3.620
13281TIP3   OH290310   2.442   0.676   4.718
13281TIP3    H190311   2.380   0.675   4.791
13281TIP3    H290312   2.447   0.768   4.692
13282TIP3   OH290313   2.450   0.670   4.187
13282TIP3    H190314   2.355   0.660   4.183
13282TIP3    H290315   2.480   0.649   4.098
13283TIP3   OH290316   2.990   0.698   4.053
13283TIP3    H190317   2.966   0.786   4.024
13283TIP3    H290318   3.062   0.673   3.996
13284TIP3   OH290319   3.091   0.634   4.305
13284TIP3    H190320   3.044   0.676   4.233
13284TIP3    H290321   3.135   0.559   4.266
13285TIP3   OH290322   2.214   0.668   4.878
13285TIP3    H190323   2.195   0.705   4.964
13285TIP3    H290324   2.175   0.581   4.879
13286TIP3   OH290325   1.891   0.362   4.289
13286TIP3    H190326   1.938   0.372   4.372
13286TIP3    H290327   1.899   0.447   4.246
13287TIP3   OH290328   2.002   0.435   3.784
13287TIP3    H190329   2.085   0.409   3.744
13287TIP3    H290330   2.004   0.530   3.785
13288TIP3   OH290331   3.039   0.792   4.785
13288TIP3    H190332   3.070   0.737   4.714
13288TIP3    H290333   2.981   0.735   4.835
13289TIP3   OH290334   2.746   0.410   4.280
13289TIP3    H190335   2.659   0.409   4.319
13289TIP3    H290336   2.801   0.364   4.344
13290TIP3   OH290337   2.188   0.588   4.157
13290TIP3    H190338   2.113   0.607   4.100
13290TIP3    H290339   2.213   0.499   4.135
13291TIP3   OH290340   2.513   0.586   3.930
13291TIP3    H190341   2.606   0.581   3.951
13291TIP3    H290342   2.510   0.626   3.843
13292TIP3   OH290343   3.108   0.353   4.582
13292TIP3    H190344   3.082   0.347   4.674
13292TIP3    H290345   3.038   0.311   4.534
13293TIP3   OH290346   2.499   0.679   3.672
13293TIP3    H190347   2.445   0.664   3.595
13293TIP3    H290348   2.581   0.716   3.638
13294TIP3   OH290349   2.813   0.720   4.474
13294TIP3    H190350   2.877   0.662   4.432
13294TIP3    H290351   2.781   0.669   4.549
13295TIP3   OH290352   2.306   0.331   4.131
13295TIP3    H190353   2.246   0.258   4.145
13295TIP3    H290354   2.369   0.299   4.066
13296TIP3   OH290355   2.705   0.587   4.696
13296TIP3    H190356   2.621   0.630   4.714
13296TIP3    H290357   2.758   0.605   4.774
13297TIP3   OH290358   2.772   1.154   3.867
13297TIP3    H190359   2.706   1.099   3.825
13297TIP3    H290360   2.730   1.185   3.947
13298TIP3   OH290361   3.466   1.100   4.711
13298TIP3    H190362   3.523   1.160   4.662
13298TIP3    H290363   3.393   1.083   4.651
13299TIP3   OH290364   3.118   0.418   3.758
13299TIP3    H190365   3.062   0.440   3.684
13299TIP3    H290366   3.145   0.503   3.794
13300TIP3   OH290367   2.882   1.222   4.981
13300TIP3    H190368   2.877   1.172   5.063
13300TIP3    H290369   2.858   1.311   5.007
13301TIP3   OH290370   3.209   0.649   3.881
13301TIP3    H190371   3.294   0.628   3.917
13301TIP3    H290372   3.220   0.736   3.840
13302TIP3   OH290373   2.278   1.073   4.408
13302TIP3    H190374   2.340   1.068   4.335
13302TIP3    H290375   2.320   1.023   4.478
13303TIP3   OH290376   2.989   1.292   3.764
13303TIP3    H190377   2.953   1.380   3.771
13303TIP3    H290378   2.918   1.235   3.794
13304TIP3   OH290379   1.988   0.924   4.966
13304TIP3    H190380   2.009   0.845   5.015
13304TIP3    H290381   1.914   0.900   4.911
13305TIP3   OH290382   3.117   1.448   5.038
13305TIP3    H190383   3.024   1.465   5.026
13305TIP3    H290384   3.129   1.438   5.132
13306TIP3   OH290385   3.660   0.652   3.792
13306TIP3    H190386   3.618   0.620   3.712
13306TIP3    H290387   3.681   0.743   3.772
13307TIP3   OH290388   3.721   1.147   5.106
13307TIP3    H190389   3.640   1.184   5.072
13307TIP3    H290390   3.787   1.170   5.040
13308TIP3   OH290391   3.533   1.544   3.917
13308TIP3    H190392   3.482   1.476   3.959
13308TIP3    H290393   3.557   1.508   3.832
13309TIP3   OH290394   3.258   1.033   4.527
13309TIP3    H190395   3.163   1.026   4.532
13309TIP3    H290396   3.285   0.953   4.481
13310TIP3   OH290397   2.543   1.449   4.221
13310TIP3    H190398   2.556   1.533   4.177
13310TIP3    H290399   2.457   1.456   4.262
13311TIP3   OH290400   2.084   0.995   3.649
13311TIP3    H190401   2.127   1.031   3.726
13311TIP3    H290402   2.006   0.950   3.683
13312TIP3   OH290403   2.622   1.224   4.083
13312TIP3    H190404   2.604   1.307   4.127
13312TIP3    H290405   2.569   1.160   4.130
13313TIP3   OH290406   2.736   1.621   4.802
13313TIP3    H190407   2.787   1.700   4.782
13313TIP3    H290408   2.786   1.576   4.870
13314TIP3   OH290409   2.530   1.701   4.095
13314TIP3    H190410   2.438   1.716   4.117
13314TIP3    H290411   2.576   1.774   4.135
13315TIP3   OH290412   3.035   1.256   4.759
13315TIP3    H190413   2.981   1.244   4.837
13315TIP3    H290414   3.113   1.202   4.774
13316TIP3   OH290415   3.248   1.298   3.650
13316TIP3    H190416   3.304   1.250   3.711
13316TIP3    H290417   3.162   1.301   3.692
13317TIP3   OH290418   3.319   1.628   4.957
13317TIP3    H190419   3.239   1.578   4.977
13317TIP3    H290420   3.287   1.702   4.905
13318TIP3   OH290421   3.727   1.776   3.693
13318TIP3    H190422   3.799   1.838   3.699
13318TIP3    H290423   3.648   1.828   3.705
13319TIP3   OH290424   2.083   0.424   4.910
13319TIP3    H190425   1.992   0.452   4.901
13319TIP3    H290426   2.082   0.358   4.980
13320TIP3   OH290427   3.401   1.146   3.828
13320TIP3    H190428   3.364   1.104   3.905
13320TIP3    H290429   3.496   1.148   3.845
13321TIP3   OH290430   2.110   1.605   4.774
13321TIP3    H190431   2.126   1.540   4.842
13321TIP3    H290432   2.121   1.689   4.818
13322TIP3   OH290433   2.550   1.386   3.723
13322TIP3    H190434   2.599   1.324   3.777
13322TIP3    H290435   2.565   1.471   3.765
13323TIP3   OH290436   2.208   1.133   3.852
13323TIP3    H190437   2.139   1.181   3.898
13323TIP3    H290438   2.246   1.197   3.791
13324TIP3   OH290439   3.042   0.369   4.852
13324TIP3    H190440   3.115   0.393   4.909
13324TIP3    H290441   3.007   0.289   4.891
13325TIP3   OH290442   3.108   0.272   3.993
13325TIP3    H190443   3.107   0.322   3.911
13325TIP3    H290444   3.152   0.328   4.056
13326TIP3   OH290445   2.862   1.529   3.784
13326TIP3    H190446   2.777   1.552   3.822
13326TIP3    H290447   2.895   1.612   3.749
13327TIP3   OH290448   2.765   0.538   4.036
13327TIP3    H190449   2.842   0.596   4.042
13327TIP3    H290450   2.758   0.499   4.123
13328TIP3   OH290451   2.887   0.596   4.909
13328TIP3    H190452   2.880   0.592   5.004
13328TIP3    H290453   2.934   0.516   4.885
13329TIP3   OH290454   2.863   0.188   4.096
13329TIP3    H190455   2.857   0.239   4.176
13329TIP3    H290456   2.952   0.203   4.064
13330TIP3   OH290457   2.609   1.634   3.840
13330TIP3    H190458   2.615   1.721   3.802
13330TIP3    H290459   2.579   1.649   3.930
13331TIP3   OH290460   2.465   0.327   3.833
13331TIP3    H190461   2.461   0.417   3.867
13331TIP3    H290462   2.559   0.307   3.832
13332TIP3   OH290463   3.516   0.434   5.065
13332TIP3    H190464   3.423   0.425   5.047
13332TIP3    H290465   3.543   0.347   5.096
13333TIP3   OH290466   3.324   0.780   4.402
13333TIP3    H190467   3.239   0.739   4.383
13333TIP3    H290468   3.367   0.719   4.463
13334TIP3   OH290469   2.286   1.321   3.651
13334TIP3    H190470   2.371   1.348   3.685
13334TIP3    H290471   2.299   1.310   3.557
13335TIP3   OH290472   3.454   1.733   4.558
13335TIP3    H190473   3.435   1.804   4.497
13335TIP3    H290474   3.547   1.741   4.576
13336TIP3   OH290475   2.184   0.158   4.420
13336TIP3    H190476   2.163   0.149   4.327
13336TIP3    H290477   2.188   0.069   4.453
13337TIP3   OH290478   2.068   1.523   4.086
13337TIP3    H190479   2.020   1.552   4.164
13337TIP3    H290480   2.049   1.589   4.020
13338TIP3   OH290481   3.376   1.541   3.581
13338TIP3    H190482   3.335   1.458   3.605
13338TIP3    H290483   3.469   1.529   3.600
13339TIP3   OH290484   3.241   1.187   5.024
13339TIP3    H190485   3.332   1.211   5.007
13339TIP3    H290486   3.194   1.270   5.026
13340TIP3   OH290487   2.582   0.989   3.769
13340TIP3    H190488   2.514   0.961   3.831
13340TIP3    H290489   2.599   0.911   3.716
13341TIP3   OH290490   2.496   0.782   5.021
13341TIP3    H190491   2.423   0.843   5.023
13341TIP3    H290492   2.557   0.819   4.958
13342TIP3   OH290493   2.711   0.806   3.560
13342TIP3    H190494   2.716   0.790   3.466
13342TIP3    H290495   2.801   0.796   3.591
13343TIP3   OH290496   2.442   0.521   5.100
13343TIP3    H190497   2.487   0.467   5.035
13343TIP3    H290498   2.458   0.611   5.071
13344TIP3   OH290499   2.553   0.392   4.870
13344TIP3    H190500   2.605   0.439   4.805
13344TIP3    H290501   2.468   0.380   4.829
13345TIP3   OH290502   2.679   0.897   4.854
13345TIP3    H190503   2.774   0.909   4.864
13345TIP3    H290504   2.649   0.978   4.814
13346TIP3   OH290505   2.656   0.132   4.871
13346TIP3    H190506   2.616   0.218   4.878
13346TIP3    H290507   2.614   0.080   4.940
13347TIP3   OH290508   2.678   1.860   3.691
13347TIP3    H190509   2.770   1.835   3.680
13347TIP3    H290510   2.658   1.913   3.614
13348TIP3   OH290511   2.008   1.382   3.653
13348TIP3    H190512   2.103   1.376   3.663
13348TIP3    H290513   1.992   1.347   3.565
13349TIP3   OH290514   1.906   1.850   4.178
13349TIP3    H190515   1.848   1.826   4.105
13349TIP3    H290516   1.919   1.768   4.227
13350TIP3   OH290517   1.971   1.625   4.331
13350TIP3    H190518   1.938   1.552   4.383
13350TIP3    H290519   2.021   1.678   4.392
13351TIP3   OH290520   3.718   1.756   4.637
13351TIP3    H190521   3.703   1.726   4.727
13351TIP3    H290522   3.750   1.845   4.646
13352TIP3   OH290523   3.670   1.676   4.891
13352TIP3    H190524   3.604   1.609   4.872
13352TIP3    H290525   3.726   1.636   4.958
13353TIP3   OH290526   3.675   1.110   3.909
13353TIP3    H190527   3.740   1.179   3.924
13353TIP3    H290528   3.684   1.052   3.985
13354TIP3   OH290529   3.715   0.921   4.117
13354TIP3    H190530   3.628   0.888   4.140
13354TIP3    H290531   3.759   0.935   4.201
13355TIP3   OH290532   3.695   1.236   4.629
13355TIP3    H190533   3.755   1.176   4.584
13355TIP3    H290534   3.724   1.323   4.601
13356TIP3   OH290535   3.495   1.472   4.827
13356TIP3    H190536   3.431   1.523   4.878
13356TIP3    H290537   3.455   1.463   4.741
13357TIP3   OH290538   3.715   0.911   3.720
13357TIP3    H190539   3.694   0.943   3.632
13357TIP3    H290540   3.691   0.984   3.778
13358TIP3   OH290541   3.471   0.804   4.169
13358TIP3    H190542   3.465   0.715   4.134
13358TIP3    H290543   3.427   0.799   4.254
13359TIP3   OH290544   1.952   0.988   4.591
13359TIP3    H190545   1.965   0.981   4.496
13359TIP3    H290546   2.034   0.956   4.629
13360TIP3   OH290547   3.574   0.962   5.246
13360TIP3    H190548   3.587   0.872   5.217
13360TIP3    H290549   3.633   1.014   5.191
13361TIP3   OH290550   3.409   0.463   3.622
13361TIP3    H190551   3.486   0.407   3.615
13361TIP3    H290552   3.343   0.408   3.664
13362TIP3   OH290553   3.464   0.567   3.995
13362TIP3    H190554   3.495   0.478   4.010
13362TIP3    H290555   3.526   0.604   3.932
13363TIP3   OH290556   3.476   0.594   4.552
13363TIP3    H190557   3.567   0.607   4.527
13363TIP3    H290558   3.473   0.618   4.645
13364TIP3   OH290559   3.515   0.691   4.810
13364TIP3    H190560   3.435   0.711   4.858
13364TIP3    H290561   3.561   0.775   4.804
13365TIP3   OH290562   3.548   0.307   4.029
13365TIP3    H190563   3.553   0.255   4.110
13365TIP3    H290564   3.525   0.243   3.961
13366TIP3   OH290565   2.050   0.379   4.515
13366TIP3    H190566   2.093   0.297   4.491
13366TIP3    H290567   2.122   0.441   4.529
13367TIP3   OH290568   1.862   0.667   4.543
13367TIP3    H190569   1.940   0.663   4.488
13367TIP3    H290570   1.879   0.741   4.602
13368TIP3   OH290571   3.634   0.281   3.642
13368TIP3    H190572   3.668   0.210   3.588
13368TIP3    H290573   3.712   0.326   3.675
13369TIP3   OH290574   1.946   0.253   3.984
13369TIP3    H190575   1.859   0.272   4.019
13369TIP3    H290576   1.966   0.328   3.927
13370TIP3   OH290577   3.382   1.803   4.176
13370TIP3    H190578   3.462   1.810   4.123
13370TIP3    H290579   3.400   1.855   4.254
13371TIP3   OH290580   1.887   0.134   4.856
13371TIP3    H190581   1.807   0.146   4.907
13371TIP3    H290582   1.877   0.194   4.782
13372TIP3   OH290583   2.469   1.604   4.867
13372TIP3    H190584   2.444   1.693   4.841
13372TIP3    H290585   2.564   1.601   4.851
13373TIP3   OH290586   2.848   1.711   5.219
13373TIP3    H190587   2.871   1.678   5.307
13373TIP3    H290588   2.927   1.757   5.190
13374TIP3   OH290589   3.071   1.835   5.115
13374TIP3    H190590   3.119   1.790   5.046
13374TIP3    H290591   3.125   1.823   5.193
13375TIP3   OH290592   3.529   0.126   4.983
13375TIP3    H190593   3.486   0.159   4.904
13375TIP3    H290594   3.510   0.032   4.984
13376TIP3   OH290595   2.144   1.874   4.859
13376TIP3    H190596   2.069   1.911   4.812
13376TIP3    H290597   2.150   1.925   4.939
13377TIP3   OH290598   2.418   1.867   4.808
13377TIP3    H190599   2.324   1.872   4.827
13377TIP3    H290600   2.428   1.909   4.723
13378TIP3   OH290601   2.857   1.855   4.719
13378TIP3    H190602   2.808   1.890   4.645
13378TIP3    H290603   2.865   1.929   4.779
13379TIP3   OH290604   3.081   1.728   4.814
13379TIP3    H190605   3.003   1.771   4.777
13379TIP3    H290606   3.154   1.784   4.787
13380TIP3   OH290607   3.315   1.857   4.766
13380TIP3    H190608   3.350   1.945   4.757
13380TIP3    H290609   3.362   1.806   4.700
13381TIP3   OH290610   2.131   1.743   4.529
13381TIP3    H190611   2.115   1.703   4.614
13381TIP3    H290612   2.213   1.703   4.498
13382TIP3   OH290613   2.354   1.616   4.434
13382TIP3    H190614   2.340   1.523   4.454
13382TIP3    H290615   2.438   1.637   4.475
13383TIP3   OH290616   2.609   1.641   4.552
13383TIP3    H190617   2.620   1.551   4.520
13383TIP3    H290618   2.647   1.640   4.640
13384TIP3   OH290619   2.905   0.227   4.417
13384TIP3    H190620   2.832   0.175   4.450
13384TIP3    H290621   2.971   0.162   4.392
13385TIP3   OH290622   3.408   0.052   4.396
13385TIP3    H190623   3.478   0.086   4.339
13385TIP3    H290624   3.344   0.123   4.399
13386TIP3   OH290625   3.620   0.146   4.244
13386TIP3    H190626   3.681   0.072   4.248
13386TIP3    H290627   3.672   0.221   4.271
13387TIP3   OH290628   2.128   0.119   4.151
13387TIP3    H190629   2.059   0.158   4.098
13387TIP3    H290630   2.128   0.026   4.126
13388TIP3   OH290631   2.037   0.108   3.762
13388TIP3    H190632   2.101   0.171   3.728
13388TIP3    H290633   2.003   0.149   3.841
13389TIP3   OH290634   2.586   0.107   4.221
13389TIP3    H190635   2.665   0.129   4.172
13389TIP3    H290636   2.615   0.102   4.313
13390TIP3   OH290637   3.092   0.034   4.358
13390TIP3    H190638   3.121   8.132   4.279
13390TIP3    H290639   3.115   8.120   4.430
13391TIP3   OH290640   3.223   0.056   3.858
13391TIP3    H190641   3.179   0.126   3.906
13391TIP3    H290642   3.281   0.015   3.922
13392TIP3   OH290643   2.022   1.706   3.891
13392TIP3    H190644   1.946   1.699   3.833
13392TIP3    H290645   2.060   1.791   3.871
13393TIP3   OH290646   2.230   0.308   3.683
13393TIP3    H190647   2.264   0.309   3.594
13393TIP3    H290648   2.307   0.307   3.739
13394TIP3   OH290649   2.743   0.317   3.875
13394TIP3    H190650   2.779   0.253   3.937
13394TIP3    H290651   2.752   0.401   3.919
13395TIP3   OH290652   2.931   1.763   3.648
13395TIP3    H190653   3.026   1.773   3.653
13395TIP3    H290654   2.917   1.708   3.571
13396TIP3   OH290655   3.597   1.798   3.995
13396TIP3    H190656   3.578   1.707   3.973
13396TIP3    H290657   3.580   1.847   3.915
13397TIP3   OH290658   2.089   0.242   5.122
13397TIP3    H190659   2.113   0.153   5.095
13397TIP3    H290660   2.162   0.270   5.177
13398TIP3   OH290661   2.229   1.775   3.510
13398TIP3    H190662   2.166   1.846   3.524
13398TIP3    H290663   2.229   1.726   3.592
13399TIP3   OH290664   4.974   1.050   4.165
13399TIP3    H190665   4.948   1.142   4.161
13399TIP3    H290666   4.915   1.005   4.104
13400TIP3   OH290667   4.834   0.946   4.562
13400TIP3    H190668   4.865   0.906   4.644
13400TIP3    H290669   4.794   0.875   4.513
13401TIP3   OH290670   4.101   0.909   4.675
13401TIP3    H190671   4.075   0.848   4.744
13401TIP3    H290672   4.192   0.886   4.656
13402TIP3   OH290673   5.259   1.263   4.398
13402TIP3    H190674   5.214   1.189   4.437
13402TIP3    H290675   5.263   1.328   4.468
13403TIP3   OH290676   4.248   1.332   4.561
13403TIP3    H190677   4.222   1.262   4.501
13403TIP3    H290678   4.342   1.344   4.544
13404TIP3   OH290679   3.846   0.691   4.013
13404TIP3    H190680   3.809   0.772   4.048
13404TIP3    H290681   3.784   0.664   3.945
13405TIP3   OH290682   3.912   0.925   4.324
13405TIP3    H190683   3.937   0.837   4.351
13405TIP3    H290684   3.978   0.949   4.258
13406TIP3   OH290685   4.971   1.717   4.433
13406TIP3    H190686   4.996   1.661   4.359
13406TIP3    H290687   4.955   1.656   4.505
13407TIP3   OH290688   4.692   1.185   4.587
13407TIP3    H190689   4.730   1.103   4.556
13407TIP3    H290690   4.762   1.227   4.637
13408TIP3   OH290691   5.601   0.332   4.687
13408TIP3    H190692   5.608   0.404   4.749
13408TIP3    H290693   5.668   0.351   4.621
13409TIP3   OH290694   4.991   0.635   4.584
13409TIP3    H190695   5.002   0.541   4.599
13409TIP3    H290696   4.984   0.643   4.489
13410TIP3   OH290697   4.363   0.435   4.329
13410TIP3    H190698   4.368   0.520   4.285
13410TIP3    H290699   4.317   0.379   4.266
13411TIP3   OH290700   5.132   0.450   4.155
13411TIP3    H190701   5.168   0.421   4.239
13411TIP3    H290702   5.206   0.487   4.108
13412TIP3   OH290703   4.001   0.678   4.406
13412TIP3    H190704   4.065   0.633   4.462
13412TIP3    H290705   4.019   0.647   4.318
13413TIP3   OH290706   4.466   0.827   4.374
13413TIP3    H190707   4.554   0.794   4.393
13413TIP3    H290708   4.430   0.763   4.311
13414TIP3   OH290709   5.596   0.507   4.900
13414TIP3    H190710   5.541   0.577   4.866
13414TIP3    H290711   5.542   0.462   4.965
13415TIP3   OH290712   4.202   0.339   4.754
13415TIP3    H190713   4.177   0.396   4.681
13415TIP3    H290714   4.129   0.346   4.816
13416TIP3   OH290715   4.882   1.296   4.079
13416TIP3    H190716   4.894   1.306   3.984
13416TIP3    H290717   4.846   1.380   4.107
13417TIP3   OH290718   4.447   1.147   4.710
13417TIP3    H190719   4.448   1.213   4.779
13417TIP3    H290720   4.531   1.157   4.666
13418TIP3   OH290721   5.212   0.410   4.414
13418TIP3    H190722   5.144   0.387   4.478
13418TIP3    H290723   5.272   0.467   4.462
13419TIP3   OH290724   4.188   0.512   4.532
13419TIP3    H190725   4.245   0.558   4.593
13419TIP3    H290726   4.247   0.475   4.466
13420TIP3   OH290727   4.299   1.328   4.871
13420TIP3    H190728   4.328   1.419   4.858
13420TIP3    H290729   4.209   1.336   4.904
13421TIP3   OH290730   3.885   1.302   3.931
13421TIP3    H190731   3.876   1.347   3.847
13421TIP3    H290732   3.907   1.371   3.993
13422TIP3   OH290733   5.259   1.469   4.599
13422TIP3    H190734   5.164   1.470   4.600
13422TIP3    H290735   5.284   1.559   4.574
13423TIP3   OH290736   5.342   0.243   4.735
13423TIP3    H190737   5.274   0.297   4.695
13423TIP3    H290738   5.424   0.282   4.706
13424TIP3   OH290739   4.566   0.093   4.488
13424TIP3    H190740   4.589   0.022   4.547
13424TIP3    H290741   4.480   0.123   4.518
13425TIP3   OH290742   5.080   1.605   4.199
13425TIP3    H190743   5.124   1.521   4.184
13425TIP3    H290744   5.151   1.668   4.210
13426TIP3   OH290745   5.227   1.383   4.148
13426TIP3    H190746   5.247   1.321   4.078
13426TIP3    H290747   5.241   1.334   4.229
13427TIP3   OH290748   5.388   1.240   4.949
13427TIP3    H190749   5.382   1.190   4.867
13427TIP3    H290750   5.385   1.332   4.921
13428TIP3   OH290751   4.845   0.948   3.939
13428TIP3    H190752   4.782   1.016   3.915
13428TIP3    H290753   4.909   0.949   3.868
13429TIP3   OH290754   4.877   0.780   3.626
13429TIP3    H190755   4.942   0.832   3.673
13429TIP3    H290756   4.926   0.706   3.592
13430TIP3   OH290757   5.555   0.924   4.780
13430TIP3    H190758   5.479   0.982   4.772
13430TIP3    H290759   5.612   0.950   4.708
13431TIP3   OH290760   5.197   0.991   4.017
13431TIP3    H190761   5.127   1.011   4.079
13431TIP3    H290762   5.259   0.938   4.068
13432TIP3   OH290763   5.167   0.765   4.937
13432TIP3    H190764   5.188   0.831   5.003
13432TIP3    H290765   5.089   0.800   4.893
13433TIP3   OH290766   4.327   1.023   4.230
13433TIP3    H190767   4.310   0.987   4.143
13433TIP3    H290768   4.386   0.959   4.270
13434TIP3   OH290769   4.507   1.375   4.476
13434TIP3    H190770   4.509   1.384   4.381
13434TIP3    H290771   4.579   1.315   4.496
13435TIP3   OH290772   4.370   0.893   4.625
13435TIP3    H190773   4.406   0.876   4.538
13435TIP3    H290774   4.422   0.967   4.658
13436TIP3   OH290775   4.988   1.477   4.629
13436TIP3    H190776   4.977   1.547   4.694
13436TIP3    H290777   4.953   1.399   4.672
13437TIP3   OH290778   4.489   1.365   5.078
13437TIP3    H190779   4.433   1.419   5.133
13437TIP3    H290780   4.430   1.326   5.014
13438TIP3   OH290781   5.086   0.904   3.779
13438TIP3    H190782   5.126   0.943   3.856
13438TIP3    H290783   5.152   0.912   3.711
13439TIP3   OH290784   4.145   1.058   4.929
13439TIP3    H190785   4.152   1.090   5.019
13439TIP3    H290786   4.064   1.008   4.927
13440TIP3   OH290787   4.815   1.563   4.133
13440TIP3    H190788   4.904   1.577   4.164
13440TIP3    H290789   4.793   1.642   4.084
13441TIP3   OH290790   4.272   1.529   5.148
13441TIP3    H190791   4.285   1.561   5.058
13441TIP3    H290792   4.234   1.603   5.194
13442TIP3   OH290793   5.390   0.124   3.820
13442TIP3    H190794   5.343   0.068   3.757
13442TIP3    H290795   5.442   0.183   3.766
13443TIP3   OH290796   4.258   0.939   3.969
13443TIP3    H190797   4.205   1.010   3.933
13443TIP3    H290798   4.212   0.859   3.943
13444TIP3   OH290799   5.532   1.516   3.642
13444TIP3    H190800   5.570   1.604   3.641
13444TIP3    H290801   5.607   1.457   3.635
13445TIP3   OH290802   3.852   1.179   4.854
13445TIP3    H190803   3.783   1.196   4.790
13445TIP3    H290804   3.856   1.084   4.860
13446TIP3   OH290805   3.807   1.495   4.580
13446TIP3    H190806   3.874   1.507   4.647
13446TIP3    H290807   3.750   1.572   4.590
13447TIP3   OH290808   5.713   1.487   5.073
13447TIP3    H190809   5.675   1.399   5.071
13447TIP3    H290810   5.685   1.523   5.158
13448TIP3   OH290811   4.721   1.502   5.036
13448TIP3    H190812   4.727   1.577   5.094
13448TIP3    H290813   4.640   1.458   5.061
13449TIP3   OH290814   4.801   1.808   3.982
13449TIP3    H190815   4.786   1.814   3.887
13449TIP3    H290816   4.771   1.892   4.016
13450TIP3   OH290817   4.158   1.694   4.206
13450TIP3    H190818   4.176   1.660   4.294
13450TIP3    H290819   4.096   1.632   4.168
13451TIP3   OH290820   5.091   1.765   3.676
13451TIP3    H190821   5.151   1.698   3.645
13451TIP3    H290822   5.100   1.764   3.772
13452TIP3   OH290823   5.070   1.761   3.954
13452TIP3    H190824   4.977   1.772   3.970
13452TIP3    H290825   5.100   1.699   4.020
13453TIP3   OH290826   4.036   1.364   4.920
13453TIP3    H190827   4.021   1.369   5.014
13453TIP3    H290828   3.967   1.306   4.887
13454TIP3   OH290829   4.308   0.156   4.573
13454TIP3    H190830   4.241   0.180   4.509
13454TIP3    H290831   4.285   0.206   4.651
13455TIP3   OH290832   4.799   0.150   4.965
13455TIP3    H190833   4.799   0.063   5.004
13455TIP3    H290834   4.712   0.158   4.925
13456TIP3   OH290835   5.130   0.498   5.021
13456TIP3    H190836   5.078   0.512   5.100
13456TIP3    H290837   5.143   0.586   4.986
13457TIP3   OH290838   4.739   0.337   3.616
13457TIP3    H190839   4.682   0.318   3.691
13457TIP3    H290840   4.820   0.370   3.656
13458TIP3   OH290841   4.337   0.642   4.722
13458TIP3    H190842   4.269   0.649   4.789
13458TIP3    H290843   4.354   0.733   4.697
13459TIP3   OH290844   4.335   0.670   4.187
13459TIP3    H190845   4.240   0.660   4.182
13459TIP3    H290846   4.365   0.653   4.098
13460TIP3   OH290847   4.877   0.700   4.055
13460TIP3    H190848   4.855   0.787   4.022
13460TIP3    H290849   4.952   0.672   4.003
13461TIP3   OH290850   4.979   0.637   4.308
13461TIP3    H190851   4.934   0.680   4.235
13461TIP3    H290852   5.022   0.562   4.268
13462TIP3   OH290853   4.108   0.676   4.871
13462TIP3    H190854   4.086   0.712   4.957
13462TIP3    H290855   4.071   0.588   4.872
13463TIP3   OH290856   3.785   0.356   4.291
13463TIP3    H190857   3.820   0.377   4.378
13463TIP3    H290858   3.846   0.397   4.230
13464TIP3   OH290859   3.842   0.433   3.761
13464TIP3    H190860   3.919   0.443   3.705
13464TIP3    H290861   3.802   0.520   3.764
13465TIP3   OH290862   4.903   0.792   4.789
13465TIP3    H190863   4.943   0.741   4.719
13465TIP3    H290864   4.855   0.728   4.841
13466TIP3   OH290865   4.646   0.390   4.270
13466TIP3    H190866   4.558   0.394   4.308
13466TIP3    H290867   4.701   0.355   4.340
13467TIP3   OH290868   4.068   0.599   4.154
13467TIP3    H190869   3.996   0.619   4.094
13467TIP3    H290870   4.100   0.513   4.126
13468TIP3   OH290871   4.403   0.597   3.929
13468TIP3    H190872   4.495   0.586   3.949
13468TIP3    H290873   4.402   0.635   3.841
13469TIP3   OH290874   5.006   0.359   4.596
13469TIP3    H190875   4.976   0.353   4.687
13469TIP3    H290876   4.936   0.317   4.545
13470TIP3   OH290877   4.391   0.694   3.672
13470TIP3    H190878   4.330   0.680   3.599
13470TIP3    H290879   4.472   0.723   3.630
13471TIP3   OH290880   4.705   0.714   4.460
13471TIP3    H190881   4.773   0.660   4.418
13471TIP3    H290882   4.676   0.661   4.535
13472TIP3   OH290883   4.197   0.354   4.114
13472TIP3    H190884   4.141   0.278   4.132
13472TIP3    H290885   4.244   0.331   4.034
13473TIP3   OH290886   4.606   0.583   4.684
13473TIP3    H190887   4.515   0.607   4.706
13473TIP3    H290888   4.653   0.594   4.767
13474TIP3   OH290889   4.659   1.148   3.870
13474TIP3    H190890   4.592   1.096   3.825
13474TIP3    H290891   4.618   1.174   3.952
13475TIP3   OH290892   5.357   1.103   4.710
13475TIP3    H190893   5.411   1.164   4.660
13475TIP3    H290894   5.284   1.082   4.652
13476TIP3   OH290895   4.972   0.451   3.743
13476TIP3    H190896   5.005   0.478   3.657
13476TIP3    H290897   5.006   0.517   3.803
13477TIP3   OH290898   4.727   1.181   4.969
13477TIP3    H190899   4.773   1.153   5.048
13477TIP3    H290900   4.685   1.264   4.995
13478TIP3   OH290901   5.097   0.646   3.893
13478TIP3    H190902   5.187   0.626   3.920
13478TIP3    H290903   5.104   0.730   3.846
13479TIP3   OH290904   4.189   1.089   4.463
13479TIP3    H190905   4.236   1.073   4.381
13479TIP3    H290906   4.140   1.008   4.478
13480TIP3   OH290907   4.874   1.297   3.774
13480TIP3    H190908   4.832   1.382   3.786
13480TIP3    H290909   4.807   1.233   3.800
13481TIP3   OH290910   3.904   0.912   4.921
13481TIP3    H190911   3.922   0.849   4.991
13481TIP3    H290912   3.816   0.891   4.891
13482TIP3   OH290913   4.981   1.389   5.042
13482TIP3    H190914   4.898   1.437   5.040
13482TIP3    H290915   5.012   1.399   5.132
13483TIP3   OH290916   5.558   0.671   3.795
13483TIP3    H190917   5.533   0.637   3.709
13483TIP3    H290918   5.568   0.765   3.782
13484TIP3   OH290919   5.604   1.223   5.117
13484TIP3    H190920   5.517   1.241   5.081
13484TIP3    H290921   5.656   1.197   5.042
13485TIP3   OH290922   5.423   1.528   3.900
13485TIP3    H190923   5.371   1.451   3.925
13485TIP3    H290924   5.450   1.511   3.809
13486TIP3   OH290925   5.151   1.032   4.526
13486TIP3    H190926   5.055   1.030   4.526
13486TIP3    H290927   5.177   0.953   4.479
13487TIP3   OH290928   4.435   1.449   4.213
13487TIP3    H190929   4.469   1.528   4.172
13487TIP3    H290930   4.340   1.461   4.213
13488TIP3   OH290931   3.981   0.979   3.656
13488TIP3    H190932   4.022   1.018   3.733
13488TIP3    H290933   3.902   0.937   3.690
13489TIP3   OH290934   4.497   1.209   4.086
13489TIP3    H190935   4.490   1.294   4.129
13489TIP3    H290936   4.442   1.151   4.139
13490TIP3   OH290937   4.606   1.616   4.804
13490TIP3    H190938   4.662   1.688   4.775
13490TIP3    H290939   4.657   1.571   4.872
13491TIP3   OH290940   4.411   1.709   4.092
13491TIP3    H190941   4.321   1.716   4.125
13491TIP3    H290942   4.456   1.785   4.129
13492TIP3   OH290943   4.906   1.243   4.762
13492TIP3    H190944   4.847   1.228   4.836
13492TIP3    H290945   4.988   1.201   4.788
13493TIP3   OH290946   5.146   1.343   3.704
13493TIP3    H190947   5.200   1.297   3.768
13493TIP3    H290948   5.056   1.322   3.728
13494TIP3   OH290949   5.167   1.667   4.971
13494TIP3    H190950   5.087   1.640   4.926
13494TIP3    H290951   5.197   1.743   4.921
13495TIP3   OH290952   5.620   1.778   3.685
13495TIP3    H190953   5.679   1.853   3.694
13495TIP3    H290954   5.532   1.816   3.694
13496TIP3   OH290955   3.986   0.429   4.911
13496TIP3    H190956   3.893   0.451   4.909
13496TIP3    H290957   3.993   0.358   4.974
13497TIP3   OH290958   5.305   1.228   3.920
13497TIP3    H190959   5.257   1.148   3.944
13497TIP3    H290960   5.397   1.201   3.917
13498TIP3   OH290961   3.983   1.601   4.776
13498TIP3    H190962   4.006   1.525   4.830
13498TIP3    H290963   3.964   1.670   4.840
13499TIP3   OH290964   4.434   1.388   3.728
13499TIP3    H190965   4.492   1.330   3.778
13499TIP3    H290966   4.449   1.475   3.765
13500TIP3   OH290967   4.094   1.132   3.855
13500TIP3    H190968   4.024   1.182   3.898
13500TIP3    H290969   4.134   1.193   3.794
13501TIP3   OH290970   4.930   0.371   4.864
13501TIP3    H190971   5.005   0.393   4.920
13501TIP3    H290972   4.893   0.292   4.903
13502TIP3   OH290973   4.979   0.287   3.981
13502TIP3    H190974   4.975   0.337   3.899
13502TIP3    H290975   5.029   0.342   4.041
13503TIP3   OH290976   4.739   1.526   3.817
13503TIP3    H190977   4.649   1.555   3.838
13503TIP3    H290978   4.786   1.607   3.797
13504TIP3   OH290979   4.654   0.536   4.031
13504TIP3    H190980   4.730   0.595   4.036
13504TIP3    H290981   4.652   0.494   4.117
13505TIP3   OH290982   4.765   0.589   4.913
13505TIP3    H190983   4.748   0.581   5.007
13505TIP3    H290984   4.817   0.511   4.892
13506TIP3   OH290985   4.736   0.194   4.086
13506TIP3    H190986   4.717   0.262   4.151
13506TIP3    H290987   4.825   0.213   4.057
13507TIP3   OH290988   4.486   1.640   3.836
13507TIP3    H190989   4.488   1.724   3.790
13507TIP3    H290990   4.458   1.663   3.925
13508TIP3   OH290991   4.333   0.333   3.869
13508TIP3    H190992   4.340   0.427   3.886
13508TIP3    H290993   4.424   0.305   3.856
13509TIP3   OH290994   5.394   0.395   5.056
13509TIP3    H190995   5.304   0.424   5.044
13509TIP3    H290996   5.391   0.301   5.038
13510TIP3   OH290997   5.214   0.779   4.401
13510TIP3    H190998   5.131   0.737   4.378
13510TIP3    H290999   5.257   0.717   4.460
13511TIP3   OH291000   4.173   1.318   3.655
13511TIP3    H191001   4.259   1.346   3.688
13511TIP3    H291002   4.187   1.304   3.561
13512TIP3   OH291003   5.338   1.736   4.571
13512TIP3    H191004   5.324   1.810   4.511
13512TIP3    H291005   5.431   1.738   4.590
13513TIP3   OH291006   4.068   0.160   4.422
13513TIP3    H191007   4.049   0.158   4.328
13513TIP3    H291008   4.071   0.068   4.448
13514TIP3   OH291009   3.954   1.527   4.096
13514TIP3    H191010   3.904   1.558   4.172
13514TIP3    H291011   3.936   1.590   4.027
13515TIP3   OH291012   5.255   1.567   3.584
13515TIP3    H191013   5.213   1.489   3.620
13515TIP3    H291014   5.349   1.548   3.589
13516TIP3   OH291015   5.123   1.164   4.984
13516TIP3    H191016   5.211   1.199   4.973
13516TIP3    H291017   5.069   1.241   5.004
13517TIP3   OH291018   4.463   0.991   3.764
13517TIP3    H191019   4.403   0.960   3.831
13517TIP3    H291020   4.488   0.912   3.715
13518TIP3   OH291021   4.433   0.798   4.998
13518TIP3    H191022   4.356   0.853   4.981
13518TIP3    H291023   4.503   0.838   4.947
13519TIP3   OH291024   4.609   0.811   3.559
13519TIP3    H191025   4.624   0.811   3.464
13519TIP3    H291026   4.697   0.804   3.597
13520TIP3   OH291027   4.367   0.541   5.095
13520TIP3    H191028   4.395   0.476   5.030
13520TIP3    H291029   4.389   0.625   5.056
13521TIP3   OH291030   4.445   0.388   4.871
13521TIP3    H191031   4.497   0.424   4.799
13521TIP3    H291032   4.359   0.373   4.833
13522TIP3   OH291033   4.636   0.931   4.868
13522TIP3    H191034   4.718   0.894   4.835
13522TIP3    H291035   4.659   1.020   4.893
13523TIP3   OH291036   4.540   0.128   4.874
13523TIP3    H191037   4.497   0.213   4.882
13523TIP3    H291038   4.499   0.073   4.941
13524TIP3   OH291039   4.555   1.857   3.661
13524TIP3    H191040   4.646   1.838   3.683
13524TIP3    H291041   4.560   1.906   3.579
13525TIP3   OH291042   3.895   1.365   3.650
13525TIP3    H191043   3.990   1.370   3.660
13525TIP3    H291044   3.881   1.299   3.582
13526TIP3   OH291045   3.795   1.862   4.181
13526TIP3    H191046   3.737   1.837   4.109
13526TIP3    H291047   3.805   1.782   4.232
13527TIP3   OH291048   3.863   1.641   4.339
13527TIP3    H191049   3.827   1.570   4.393
13527TIP3    H291050   3.907   1.699   4.402
13528TIP3   OH291051   5.597   1.750   4.659
13528TIP3    H191052   5.590   1.722   4.750
13528TIP3    H291053   5.638   1.836   4.664
13529TIP3   OH291054   5.566   1.671   4.921
13529TIP3    H191055   5.493   1.611   4.906
13529TIP3    H291056   5.627   1.622   4.976
13530TIP3   OH291057   5.565   1.123   3.946
13530TIP3    H191058   5.637   1.185   3.957
13530TIP3    H291059   5.582   1.055   4.011
13531TIP3   OH291060   5.619   0.915   4.125
13531TIP3    H191061   5.532   0.888   4.153
13531TIP3    H291062   5.667   0.932   4.207
13532TIP3   OH291063   5.598   1.246   4.653
13532TIP3    H191064   5.647   1.182   4.602
13532TIP3    H291065   5.618   1.330   4.614
13533TIP3   OH291066   5.359   1.497   4.861
13533TIP3    H191067   5.289   1.544   4.906
13533TIP3    H291068   5.326   1.486   4.771
13534TIP3   OH291069   5.585   0.943   3.736
13534TIP3    H191070   5.504   0.939   3.686
13534TIP3    H291071   5.568   1.006   3.806
13535TIP3   OH291072   5.360   0.815   4.167
13535TIP3    H191073   5.354   0.729   4.127
13535TIP3    H291074   5.314   0.806   4.250
13536TIP3   OH291075   3.855   1.005   4.582
13536TIP3    H191076   3.859   0.983   4.489
13536TIP3    H291077   3.937   0.972   4.618
13537TIP3   OH291078   5.515   0.970   5.210
13537TIP3    H191079   5.426   0.962   5.176
13537TIP3    H291080   5.544   1.056   5.180
13538TIP3   OH291081   5.293   0.430   3.580
13538TIP3    H191082   5.382   0.409   3.608
13538TIP3    H291083   5.253   0.346   3.561
13539TIP3   OH291084   5.358   0.572   3.996
13539TIP3    H191085   5.388   0.482   4.008
13539TIP3    H291086   5.419   0.609   3.932
13540TIP3   OH291087   5.366   0.594   4.556
13540TIP3    H191088   5.457   0.606   4.530
13540TIP3    H291089   5.365   0.617   4.649
13541TIP3   OH291090   5.407   0.691   4.816
13541TIP3    H191091   5.323   0.712   4.858
13541TIP3    H291092   5.450   0.776   4.806
13542TIP3   OH291093   5.429   0.303   4.032
13542TIP3    H191094   5.430   0.249   4.111
13542TIP3    H291095   5.402   0.244   3.962
13543TIP3   OH291096   3.936   0.378   4.524
13543TIP3    H191097   3.973   0.293   4.499
13543TIP3    H291098   4.012   0.436   4.533
13544TIP3   OH291099   3.747   0.656   4.535
13544TIP3    H191100   3.828   0.658   4.485
13544TIP3    H291101   3.775   0.670   4.626
13545TIP3   OH291102   5.527   0.294   3.655
13545TIP3    H191103   5.553   0.219   3.602
13545TIP3    H291104   5.609   0.332   3.686
13546TIP3   OH291105   3.828   0.266   3.977
13546TIP3    H191106   3.739   0.278   4.009
13546TIP3    H291107   3.839   0.332   3.908
13547TIP3   OH291108   5.263   1.806   4.193
13547TIP3    H191109   5.338   1.799   4.134
13547TIP3    H291110   5.299   1.850   4.271
13548TIP3   OH291111   3.791   0.140   4.894
13548TIP3    H191112   3.711   0.148   4.946
13548TIP3    H291113   3.771   0.189   4.813
13549TIP3   OH291114   4.344   1.599   4.882
13549TIP3    H191115   4.300   1.671   4.838
13549TIP3    H291116   4.437   1.610   4.859
13550TIP3   OH291117   4.745   1.710   5.216
13550TIP3    H191118   4.765   1.666   5.299
13550TIP3    H291119   4.827   1.752   5.191
13551TIP3   OH291120   4.989   1.820   5.139
13551TIP3    H191121   5.049   1.771   5.083
13551TIP3    H291122   5.030   1.817   5.226
13552TIP3   OH291123   5.411   0.128   4.975
13552TIP3    H191124   5.372   0.154   4.892
13552TIP3    H291125   5.394   0.034   4.980
13553TIP3   OH291126   4.004   1.900   4.873
13553TIP3    H191127   3.929   1.934   4.825
13553TIP3    H291128   4.007   1.951   4.954
13554TIP3   OH291129   4.232   1.816   4.755
13554TIP3    H191130   4.158   1.848   4.807
13554TIP3    H291131   4.195   1.798   4.669
13555TIP3   OH291132   4.743   1.829   4.705
13555TIP3    H191133   4.699   1.881   4.638
13555TIP3    H291134   4.758   1.890   4.777
13556TIP3   OH291135   4.980   1.709   4.771
13556TIP3    H191136   4.898   1.752   4.749
13556TIP3    H291137   5.045   1.779   4.768
13557TIP3   OH291138   5.223   1.864   4.790
13557TIP3    H191139   5.252   1.955   4.785
13557TIP3    H291140   5.262   1.822   4.713
13558TIP3   OH291141   4.034   1.751   4.547
13558TIP3    H191142   3.997   1.709   4.625
13558TIP3    H291143   4.096   1.688   4.512
13559TIP3   OH291144   4.231   1.589   4.455
13559TIP3    H191145   4.222   1.502   4.495
13559TIP3    H291146   4.319   1.619   4.482
13560TIP3   OH291147   4.490   1.647   4.548
13560TIP3    H191148   4.512   1.560   4.513
13560TIP3    H291149   4.524   1.645   4.638
13561TIP3   OH291150   4.806   0.234   4.439
13561TIP3    H191151   4.729   0.181   4.461
13561TIP3    H291152   4.867   0.172   4.400
13562TIP3   OH291153   5.293   0.040   4.411
13562TIP3    H191154   5.360   0.076   4.352
13562TIP3    H291155   5.218   0.098   4.400
13563TIP3   OH291156   5.495   0.132   4.246
13563TIP3    H191157   5.551   0.054   4.248
13563TIP3    H291158   5.553   0.203   4.273
13564TIP3   OH291159   4.016   0.152   4.150
13564TIP3    H191160   3.946   0.183   4.092
13564TIP3    H291161   4.034   0.063   4.120
13565TIP3   OH291162   3.922   0.119   3.747
13565TIP3    H191163   3.993   0.176   3.718
13565TIP3    H291164   3.890   0.160   3.828
13566TIP3   OH291165   4.475   0.103   4.220
13566TIP3    H191166   4.552   0.124   4.167
13566TIP3    H291167   4.508   0.101   4.310
13567TIP3   OH291168   4.990   0.046   4.350
13567TIP3    H191169   5.013   0.004   4.267
13567TIP3    H291170   4.997   8.120   4.415
13568TIP3   OH291171   5.083   0.047   3.870
13568TIP3    H191172   5.049   0.127   3.910
13568TIP3    H291173   5.158   0.023   3.924
13569TIP3   OH291174   3.908   1.704   3.896
13569TIP3    H191175   3.831   1.693   3.840
13569TIP3    H291176   3.940   1.792   3.877
13570TIP3   OH291177   4.128   0.296   3.677
13570TIP3    H191178   4.176   0.329   3.600
13570TIP3    H291179   4.193   0.298   3.748
13571TIP3   OH291180   4.611   0.316   3.866
13571TIP3    H191181   4.651   0.251   3.924
13571TIP3    H291182   4.630   0.400   3.908
13572TIP3   OH291183   4.817   1.773   3.697
13572TIP3    H191184   4.912   1.786   3.688
13572TIP3    H291185   4.795   1.709   3.629
13573TIP3   OH291186   5.471   1.776   4.005
13573TIP3    H191187   5.456   1.686   3.976
13573TIP3    H291188   5.457   1.829   3.926
13574TIP3   OH291189   4.001   0.206   5.074
13574TIP3    H191190   3.935   0.166   5.017
13574TIP3    H291191   3.990   0.163   5.159
13575TIP3   OH291192   4.092   1.811   3.527
13575TIP3    H191193   4.091   1.874   3.599
13575TIP3    H291194   4.110   1.727   3.569
13576TIP3   OH291195   6.871   1.059   4.163
13576TIP3    H191196   6.851   1.151   4.145
13576TIP3    H291197   6.801   1.011   4.118
13577TIP3   OH291198   6.705   0.951   4.564
13577TIP3    H191199   6.742   0.915   4.645
13577TIP3    H291200   6.666   0.875   4.520
13578TIP3   OH291201   5.961   0.906   4.716
13578TIP3    H191202   5.958   0.822   4.760
13578TIP3    H291203   6.045   0.906   4.670
13579TIP3   OH291204   7.150   1.265   4.395
13579TIP3    H191205   7.121   1.176   4.419
13579TIP3    H291206   7.124   1.319   4.469
13580TIP3   OH291207   6.115   1.350   4.483
13580TIP3    H191208   6.079   1.263   4.464
13580TIP3    H291209   6.207   1.334   4.503
13581TIP3   OH291210   5.734   0.681   4.016
13581TIP3    H191211   5.703   0.764   4.051
13581TIP3    H291212   5.677   0.663   3.941
13582TIP3   OH291213   5.808   0.944   4.338
13582TIP3    H191214   5.839   0.855   4.355
13582TIP3    H291215   5.887   0.998   4.342
13583TIP3   OH291216   6.861   1.746   4.433
13583TIP3    H191217   6.883   1.666   4.386
13583TIP3    H291218   6.857   1.720   4.525
13584TIP3   OH291219   6.585   1.198   4.596
13584TIP3    H191220   6.621   1.114   4.566
13584TIP3    H291221   6.650   1.231   4.658
13585TIP3   OH291222   7.458   0.369   4.676
13585TIP3    H191223   7.464   0.419   4.757
13585TIP3    H291224   7.481   0.431   4.607
13586TIP3   OH291225   6.884   0.629   4.583
13586TIP3    H191226   6.895   0.536   4.603
13586TIP3    H291227   6.868   0.631   4.488
13587TIP3   OH291228   6.247   0.439   4.335
13587TIP3    H191229   6.251   0.522   4.287
13587TIP3    H291230   6.195   0.382   4.278
13588TIP3   OH291231   7.023   0.453   4.166
13588TIP3    H191232   7.056   0.427   4.252
13588TIP3    H291233   7.099   0.489   4.121
13589TIP3   OH291234   5.886   0.686   4.403
13589TIP3    H191235   5.949   0.639   4.458
13589TIP3    H291236   5.904   0.654   4.315
13590TIP3   OH291237   6.350   0.826   4.371
13590TIP3    H191238   6.436   0.792   4.394
13590TIP3    H291239   6.314   0.762   4.309
13591TIP3   OH291240   7.441   0.514   4.902
13591TIP3    H191241   7.382   0.584   4.874
13591TIP3    H291242   7.400   0.478   4.981
13592TIP3   OH291243   6.084   0.350   4.755
13592TIP3    H191244   6.060   0.409   4.683
13592TIP3    H291245   6.012   0.358   4.818
13593TIP3   OH291246   6.834   1.311   4.051
13593TIP3    H191247   6.812   1.302   3.958
13593TIP3    H291248   6.782   1.386   4.080
13594TIP3   OH291249   6.357   1.108   4.730
13594TIP3    H191250   6.314   1.181   4.775
13594TIP3    H291251   6.433   1.148   4.688
13595TIP3   OH291252   7.095   0.412   4.424
13595TIP3    H191253   7.032   0.381   4.489
13595TIP3    H291254   7.152   0.472   4.473
13596TIP3   OH291255   6.073   0.523   4.537
13596TIP3    H191256   6.127   0.576   4.594
13596TIP3    H291257   6.134   0.487   4.473
13597TIP3   OH291258   6.221   1.314   4.864
13597TIP3    H191259   6.216   1.407   4.844
13597TIP3    H291260   6.134   1.291   4.896
13598TIP3   OH291261   5.780   1.302   3.946
13598TIP3    H191262   5.763   1.342   3.861
13598TIP3    H291263   5.801   1.376   4.003
13599TIP3   OH291264   7.134   1.482   4.565
13599TIP3    H191265   7.044   1.470   4.595
13599TIP3    H291266   7.152   1.575   4.578
13600TIP3   OH291267   7.216   0.252   4.758
13600TIP3    H191268   7.137   0.289   4.718
13600TIP3    H291269   7.289   0.298   4.717
13601TIP3   OH291270   6.453   0.093   4.485
13601TIP3    H191271   6.472   0.023   4.547
13601TIP3    H291272   6.367   0.126   4.512
13602TIP3   OH291273   6.991   1.610   4.208
13602TIP3    H191274   7.012   1.520   4.183
13602TIP3    H291275   7.075   1.648   4.235
13603TIP3   OH291276   7.090   1.366   4.145
13603TIP3    H191277   7.011   1.326   4.108
13603TIP3    H291278   7.111   1.311   4.221
13604TIP3   OH291279   7.274   1.244   4.944
13604TIP3    H191280   7.275   1.192   4.864
13604TIP3    H291281   7.268   1.335   4.915
13605TIP3   OH291282   6.712   0.956   3.957
13605TIP3    H191283   6.645   1.020   3.932
13605TIP3    H291284   6.775   0.957   3.885
13606TIP3   OH291285   6.748   0.785   3.642
13606TIP3    H191286   6.806   0.842   3.692
13606TIP3    H291287   6.803   0.711   3.615
13607TIP3   OH291288   7.431   0.912   4.771
13607TIP3    H191289   7.365   0.981   4.764
13607TIP3    H291290   7.496   0.935   4.704
13608TIP3   OH291291   7.088   0.982   4.017
13608TIP3    H191292   7.018   1.005   4.078
13608TIP3    H291293   7.144   0.923   4.067
13609TIP3   OH291294   7.034   0.775   4.957
13609TIP3    H191295   7.051   0.840   5.025
13609TIP3    H291296   6.964   0.813   4.905
13610TIP3   OH291297   6.238   1.025   4.205
13610TIP3    H191298   6.211   0.984   4.122
13610TIP3    H291299   6.287   0.957   4.251
13611TIP3   OH291300   6.397   1.370   4.483
13611TIP3    H191301   6.406   1.369   4.388
13611TIP3    H291302   6.467   1.313   4.514
13612TIP3   OH291303   6.211   0.926   4.587
13612TIP3    H191304   6.266   0.900   4.513
13612TIP3    H291305   6.264   0.989   4.635
13613TIP3   OH291306   6.887   1.461   4.661
13613TIP3    H191307   6.857   1.541   4.704
13613TIP3    H291308   6.843   1.391   4.708
13614TIP3   OH291309   6.402   1.359   5.073
13614TIP3    H191310   6.341   1.394   5.138
13614TIP3    H291311   6.346   1.333   5.000
13615TIP3   OH291312   6.931   0.950   3.780
13615TIP3    H191313   6.978   0.914   3.855
13615TIP3    H291314   6.979   1.029   3.757
13616TIP3   OH291315   6.059   0.993   4.965
13616TIP3    H191316   6.047   1.085   4.986
13616TIP3    H291317   6.012   0.980   4.883
13617TIP3   OH291318   6.730   1.557   4.127
13617TIP3    H191319   6.809   1.587   4.171
13617TIP3    H291320   6.691   1.636   4.090
13618TIP3   OH291321   6.128   1.574   5.127
13618TIP3    H191322   6.170   1.589   5.043
13618TIP3    H291323   6.067   1.503   5.112
13619TIP3   OH291324   7.348   0.080   3.813
13619TIP3    H191325   7.255   0.105   3.818
13619TIP3    H291326   7.390   0.153   3.768
13620TIP3   OH291327   6.145   0.926   3.956
13620TIP3    H191328   6.086   0.996   3.927
13620TIP3    H291329   6.095   0.846   3.946
13621TIP3   OH291330   7.420   1.513   3.648
13621TIP3    H191331   7.452   1.603   3.642
13621TIP3    H291332   7.497   1.459   3.630
13622TIP3   OH291333   5.735   1.169   4.885
13622TIP3    H191334   5.686   1.208   4.812
13622TIP3    H291335   5.731   1.075   4.868
13623TIP3   OH291336   5.690   1.500   4.578
13623TIP3    H191337   5.767   1.512   4.633
13623TIP3    H291338   5.637   1.578   4.594
13624TIP3   OH291339   7.582   1.529   5.040
13624TIP3    H191340   7.578   1.434   5.040
13624TIP3    H291341   7.559   1.554   5.129
13625TIP3   OH291342   6.605   1.535   5.019
13625TIP3    H191343   6.599   1.603   5.086
13625TIP3    H291344   6.539   1.471   5.044
13626TIP3   OH291345   6.694   1.819   3.995
13626TIP3    H191346   6.662   1.814   3.904
13626TIP3    H291347   6.653   1.898   4.030
13627TIP3   OH291348   6.037   1.710   4.189
13627TIP3    H191349   6.059   1.679   4.277
13627TIP3    H291350   5.979   1.642   4.153
13628TIP3   OH291351   6.970   1.763   3.701
13628TIP3    H191352   7.031   1.699   3.664
13628TIP3    H291353   6.987   1.759   3.795
13629TIP3   OH291354   6.964   1.775   3.983
13629TIP3    H191355   6.869   1.784   3.986
13629TIP3    H291356   6.984   1.708   4.049
13630TIP3   OH291357   5.980   1.263   4.990
13630TIP3    H191358   5.968   1.282   5.083
13630TIP3    H291359   5.892   1.245   4.958
13631TIP3   OH291360   6.192   0.162   4.573
13631TIP3    H191361   6.124   0.181   4.508
13631TIP3    H291362   6.167   0.213   4.650
13632TIP3   OH291363   6.679   0.162   4.970
13632TIP3    H191364   6.678   0.074   5.010
13632TIP3    H291365   6.594   0.169   4.928
13633TIP3   OH291366   7.003   0.511   5.042
13633TIP3    H191367   6.958   0.526   5.126
13633TIP3    H291368   7.015   0.598   5.006
13634TIP3   OH291369   6.639   0.297   3.626
13634TIP3    H191370   6.582   0.313   3.702
13634TIP3    H291371   6.634   0.203   3.612
13635TIP3   OH291372   6.228   0.678   4.706
13635TIP3    H191373   6.218   0.698   4.799
13635TIP3    H291374   6.226   0.763   4.663
13636TIP3   OH291375   6.220   0.667   4.184
13636TIP3    H191376   6.124   0.658   4.182
13636TIP3    H291377   6.248   0.646   4.095
13637TIP3   OH291378   6.761   0.704   4.058
13637TIP3    H191379   6.732   0.791   4.030
13637TIP3    H291380   6.842   0.689   4.010
13638TIP3   OH291381   6.853   0.631   4.310
13638TIP3    H191382   6.809   0.673   4.236
13638TIP3    H291383   6.902   0.558   4.270
13639TIP3   OH291384   5.946   0.689   4.887
13639TIP3    H191385   6.023   0.697   4.944
13639TIP3    H291386   5.919   0.598   4.895
13640TIP3   OH291387   5.659   0.344   4.298
13640TIP3    H191388   5.704   0.366   4.379
13640TIP3    H291389   5.687   0.411   4.236
13641TIP3   OH291390   5.747   0.422   3.768
13641TIP3    H191391   5.831   0.395   3.728
13641TIP3    H291392   5.741   0.515   3.750
13642TIP3   OH291393   6.812   0.804   4.777
13642TIP3    H191394   6.847   0.745   4.711
13642TIP3    H291395   6.747   0.752   4.824
13643TIP3   OH291396   6.534   0.407   4.287
13643TIP3    H191397   6.445   0.408   4.322
13643TIP3    H291398   6.587   0.367   4.356
13644TIP3   OH291399   5.955   0.591   4.156
13644TIP3    H191400   5.883   0.613   4.098
13644TIP3    H291401   5.980   0.502   4.132
13645TIP3   OH291402   6.281   0.584   3.927
13645TIP3    H191403   6.375   0.579   3.947
13645TIP3    H291404   6.276   0.628   3.842
13646TIP3   OH291405   6.897   0.354   4.614
13646TIP3    H191406   6.862   0.359   4.703
13646TIP3    H291407   6.828   0.312   4.563
13647TIP3   OH291408   6.257   0.681   3.672
13647TIP3    H191409   6.206   0.671   3.591
13647TIP3    H291410   6.340   0.720   3.644
13648TIP3   OH291411   6.587   0.710   4.462
13648TIP3    H191412   6.656   0.661   4.417
13648TIP3    H291413   6.561   0.653   4.535
13649TIP3   OH291414   6.079   0.335   4.134
13649TIP3    H191415   6.017   0.263   4.147
13649TIP3    H291416   6.132   0.308   4.060
13650TIP3   OH291417   6.487   0.574   4.687
13650TIP3    H191418   6.402   0.618   4.698
13650TIP3    H291419   6.537   0.599   4.765
13651TIP3   OH291420   6.543   1.162   3.870
13651TIP3    H191421   6.479   1.103   3.828
13651TIP3    H291422   6.500   1.190   3.951
13652TIP3   OH291423   7.263   1.120   4.694
13652TIP3    H191424   7.301   1.183   4.634
13652TIP3    H291425   7.185   1.087   4.649
13653TIP3   OH291426   6.867   0.412   3.743
13653TIP3    H191427   6.792   0.373   3.698
13653TIP3    H291428   6.899   0.478   3.681
13654TIP3   OH291429   6.619   1.172   5.013
13654TIP3    H191430   6.687   1.166   5.081
13654TIP3    H291431   6.553   1.229   5.051
13655TIP3   OH291432   6.997   0.677   3.913
13655TIP3    H191433   7.080   0.642   3.945
13655TIP3    H291434   6.991   0.646   3.823
13656TIP3   OH291435   6.054   1.078   4.406
13656TIP3    H191436   6.112   1.072   4.330
13656TIP3    H291437   6.098   1.026   4.473
13657TIP3   OH291438   6.763   1.293   3.767
13657TIP3    H191439   6.726   1.380   3.779
13657TIP3    H291440   6.693   1.233   3.793
13658TIP3   OH291441   5.724   0.837   4.987
13658TIP3    H191442   5.796   0.789   4.945
13658TIP3    H291443   5.663   0.855   4.916
13659TIP3   OH291444   6.870   1.449   5.046
13659TIP3    H191445   6.777   1.465   5.035
13659TIP3    H291446   6.875   1.370   5.099
13660TIP3   OH291447   7.456   0.655   3.791
13660TIP3    H191448   7.415   0.620   3.712
13660TIP3    H291449   7.476   0.746   3.770
13661TIP3   OH291450   7.501   1.255   5.107
13661TIP3    H191451   7.411   1.271   5.080
13661TIP3    H291452   7.543   1.216   5.030
13662TIP3   OH291453   7.305   1.524   3.903
13662TIP3    H191454   7.252   1.448   3.928
13662TIP3    H291455   7.336   1.503   3.815
13663TIP3   OH291456   7.058   1.030   4.519
13663TIP3    H191457   6.965   1.028   4.542
13663TIP3    H291458   7.073   0.947   4.475
13664TIP3   OH291459   6.307   1.451   4.221
13664TIP3    H191460   6.317   1.535   4.177
13664TIP3    H291461   6.221   1.457   4.264
13665TIP3   OH291462   5.813   1.069   3.634
13665TIP3    H191463   5.861   1.062   3.717
13665TIP3    H291464   5.733   1.019   3.648
13666TIP3   OH291465   6.394   1.226   4.087
13666TIP3    H191466   6.370   1.308   4.131
13666TIP3    H291467   6.341   1.159   4.130
13667TIP3   OH291468   6.499   1.640   4.789
13667TIP3    H191469   6.555   1.716   4.770
13667TIP3    H291470   6.544   1.595   4.861
13668TIP3   OH291471   6.297   1.706   4.097
13668TIP3    H191472   6.204   1.717   4.120
13668TIP3    H291473   6.341   1.781   4.137
13669TIP3   OH291474   6.774   1.246   4.794
13669TIP3    H191475   6.713   1.224   4.865
13669TIP3    H291476   6.859   1.214   4.825
13670TIP3   OH291477   7.026   1.326   3.661
13670TIP3    H191478   7.081   1.274   3.719
13670TIP3    H291479   6.938   1.316   3.697
13671TIP3   OH291480   7.030   1.636   4.937
13671TIP3    H191481   6.981   1.567   4.981
13671TIP3    H291482   6.974   1.662   4.864
13672TIP3   OH291483   7.503   1.778   3.682
13672TIP3    H191484   7.565   1.849   3.697
13672TIP3    H291485   7.417   1.819   3.692
13673TIP3   OH291486   5.868   0.428   4.924
13673TIP3    H191487   5.774   0.447   4.920
13673TIP3    H291488   5.875   0.354   4.985
13674TIP3   OH291489   7.177   1.165   3.835
13674TIP3    H191490   7.139   1.109   3.903
13674TIP3    H291491   7.271   1.163   3.851
13675TIP3   OH291492   5.874   1.616   4.772
13675TIP3    H191493   5.883   1.548   4.840
13675TIP3    H291494   5.878   1.699   4.820
13676TIP3   OH291495   6.323   1.378   3.725
13676TIP3    H191496   6.373   1.313   3.774
13676TIP3    H291497   6.339   1.461   3.771
13677TIP3   OH291498   5.972   1.121   3.861
13677TIP3    H191499   5.907   1.170   3.911
13677TIP3    H291500   6.011   1.185   3.802
13678TIP3   OH291501   6.809   0.390   4.878
13678TIP3    H191502   6.881   0.413   4.937
13678TIP3    H291503   6.772   0.310   4.915
13679TIP3   OH291504   6.866   0.299   3.999
13679TIP3    H191505   6.862   0.341   3.914
13679TIP3    H291506   6.914   0.360   4.054
13680TIP3   OH291507   6.639   1.527   3.815
13680TIP3    H191508   6.548   1.544   3.841
13680TIP3    H291509   6.670   1.612   3.783
13681TIP3   OH291510   6.537   0.539   4.035
13681TIP3    H191511   6.613   0.597   4.037
13681TIP3    H291512   6.532   0.502   4.123
13682TIP3   OH291513   6.648   0.623   4.909
13682TIP3    H191514   6.655   0.654   4.999
13682TIP3    H291515   6.699   0.542   4.907
13683TIP3   OH291516   6.612   0.217   4.095
13683TIP3    H191517   6.598   0.286   4.160
13683TIP3    H291518   6.702   0.232   4.065
13684TIP3   OH291519   6.381   1.623   3.849
13684TIP3    H191520   6.379   1.708   3.805
13684TIP3    H291521   6.349   1.641   3.938
13685TIP3   OH291522   6.238   0.354   3.754
13685TIP3    H191523   6.227   0.434   3.805
13685TIP3    H291524   6.324   0.321   3.779
13686TIP3   OH291525   7.260   0.411   5.087
13686TIP3    H191526   7.170   0.439   5.069
13686TIP3    H291527   7.262   0.319   5.062
13687TIP3   OH291528   7.093   0.776   4.397
13687TIP3    H191529   7.007   0.737   4.381
13687TIP3    H291530   7.135   0.716   4.460
13688TIP3   OH291531   6.060   1.305   3.666
13688TIP3    H191532   6.144   1.338   3.696
13688TIP3    H291533   6.080   1.258   3.585
13689TIP3   OH291534   7.263   1.716   4.539
13689TIP3    H191535   7.218   1.795   4.508
13689TIP3    H291536   7.342   1.748   4.581
13690TIP3   OH291537   5.955   0.156   4.421
13690TIP3    H191538   5.930   0.151   4.329
13690TIP3    H291539   5.956   0.064   4.450
13691TIP3   OH291540   5.840   1.538   4.088
13691TIP3    H191541   5.786   1.566   4.162
13691TIP3    H291542   5.821   1.601   4.019
13692TIP3   OH291543   7.134   1.572   3.588
13692TIP3    H191544   7.093   1.488   3.609
13692TIP3    H291545   7.228   1.554   3.590
13693TIP3   OH291546   7.000   1.162   4.929
13693TIP3    H191547   7.091   1.183   4.949
13693TIP3    H291548   6.956   1.157   5.014
13694TIP3   OH291549   6.358   0.992   3.773
13694TIP3    H191550   6.288   0.954   3.827
13694TIP3    H291551   6.380   0.923   3.710
13695TIP3   OH291552   6.223   0.774   4.965
13695TIP3    H191553   6.166   0.848   4.982
13695TIP3    H291554   6.310   0.812   4.955
13696TIP3   OH291555   6.478   0.809   3.581
13696TIP3    H191556   6.480   0.800   3.485
13696TIP3    H291557   6.570   0.802   3.607
13697TIP3   OH291558   6.243   0.521   5.084
13697TIP3    H191559   6.281   0.463   5.018
13697TIP3    H291560   6.244   0.607   5.043
13698TIP3   OH291561   6.336   0.385   4.857
13698TIP3    H191562   6.390   0.426   4.789
13698TIP3    H291563   6.250   0.376   4.817
13699TIP3   OH291564   6.449   0.920   4.917
13699TIP3    H191565   6.535   0.952   4.942
13699TIP3    H291566   6.417   0.984   4.853
13700TIP3   OH291567   6.418   0.122   4.886
13700TIP3    H191568   6.378   0.209   4.883
13700TIP3    H291569   6.365   0.074   4.949
13701TIP3   OH291570   6.434   1.857   3.699
13701TIP3    H191571   6.528   1.842   3.696
13701TIP3    H291572   6.425   1.953   3.695
13702TIP3   OH291573   5.776   1.352   3.666
13702TIP3    H191574   5.871   1.358   3.663
13702TIP3    H291575   5.757   1.262   3.640
13703TIP3   OH291576   5.663   1.863   4.180
13703TIP3    H191577   5.602   1.833   4.113
13703TIP3    H291578   5.679   1.785   4.234
13704TIP3   OH291579   5.736   1.641   4.330
13704TIP3    H191580   5.698   1.569   4.379
13704TIP3    H291581   5.790   1.688   4.394
13705TIP3   OH291582   7.515   1.778   4.621
13705TIP3    H191583   7.500   1.758   4.713
13705TIP3    H291584   7.610   1.786   4.614
13706TIP3   OH291585   7.436   1.686   4.871
13706TIP3    H191586   7.369   1.620   4.853
13706TIP3    H291587   7.492   1.647   4.937
13707TIP3   OH291588   7.446   1.118   3.912
13707TIP3    H191589   7.517   1.181   3.925
13707TIP3    H291590   7.454   1.057   3.986
13708TIP3   OH291591   7.484   0.932   4.112
13708TIP3    H191592   7.401   0.897   4.144
13708TIP3    H291593   7.534   0.953   4.190
13709TIP3   OH291594   7.442   1.294   4.543
13709TIP3    H191595   7.479   1.206   4.552
13709TIP3    H291596   7.514   1.353   4.562
13710TIP3   OH291597   7.242   1.495   4.830
13710TIP3    H191598   7.173   1.542   4.878
13710TIP3    H291599   7.201   1.469   4.748
13711TIP3   OH291600   7.480   0.926   3.717
13711TIP3    H191601   7.402   0.935   3.661
13711TIP3    H291602   7.466   0.989   3.787
13712TIP3   OH291603   7.244   0.807   4.168
13712TIP3    H191604   7.241   0.720   4.130
13712TIP3    H291605   7.196   0.798   4.250
13713TIP3   OH291606   5.736   1.006   4.595
13713TIP3    H191607   5.746   0.991   4.501
13713TIP3    H291608   5.820   0.982   4.632
13714TIP3   OH291609   7.388   1.014   5.211
13714TIP3    H191610   7.444   0.959   5.156
13714TIP3    H291611   7.418   1.103   5.194
13715TIP3   OH291612   7.201   0.441   3.631
13715TIP3    H191613   7.285   0.398   3.622
13715TIP3    H291614   7.141   0.373   3.662
13716TIP3   OH291615   7.247   0.570   4.001
13716TIP3    H191616   7.270   0.478   4.012
13716TIP3    H291617   7.312   0.604   3.939
13717TIP3   OH291618   7.241   0.602   4.561
13717TIP3    H191619   7.336   0.609   4.545
13717TIP3    H291620   7.231   0.628   4.652
13718TIP3   OH291621   7.260   0.700   4.818
13718TIP3    H191622   7.182   0.728   4.866
13718TIP3    H291623   7.312   0.779   4.809
13719TIP3   OH291624   7.295   0.303   4.037
13719TIP3    H191625   7.310   0.253   4.118
13719TIP3    H291626   7.229   0.252   3.990
13720TIP3   OH291627   5.825   0.377   4.519
13720TIP3    H191628   5.864   0.294   4.494
13720TIP3    H291629   5.899   0.437   4.528
13721TIP3   OH291630   5.635   0.664   4.535
13721TIP3    H191631   5.714   0.661   4.480
13721TIP3    H291632   5.656   0.727   4.604
13722TIP3   OH291633   7.440   0.284   3.630
13722TIP3    H191634   7.434   0.201   3.584
13722TIP3    H291635   7.510   0.332   3.586
13723TIP3   OH291636   5.709   0.267   3.990
13723TIP3    H191637   5.617   0.280   4.016
13723TIP3    H291638   5.723   0.330   3.920
13724TIP3   OH291639   7.253   1.680   4.249
13724TIP3    H191640   7.286   1.707   4.163
13724TIP3    H291641   7.237   1.762   4.295
13725TIP3   OH291642   5.674   0.145   4.892
13725TIP3    H191643   5.587   0.146   4.932
13725TIP3    H291644   5.662   0.193   4.809
13726TIP3   OH291645   6.236   1.593   4.868
13726TIP3    H191646   6.202   1.679   4.842
13726TIP3    H291647   6.329   1.597   4.846
13727TIP3   OH291648   6.623   1.737   5.211
13727TIP3    H191649   6.635   1.686   5.292
13727TIP3    H291650   6.712   1.757   5.183
13728TIP3   OH291651   6.870   1.812   5.108
13728TIP3    H191652   6.930   1.765   5.051
13728TIP3    H291653   6.908   1.804   5.196
13729TIP3   OH291654   7.304   0.143   4.996
13729TIP3    H191655   7.263   0.174   4.915
13729TIP3    H291656   7.289   0.049   4.996
13730TIP3   OH291657   5.917   1.896   4.858
13730TIP3    H191658   5.841   1.934   4.813
13730TIP3    H291659   5.924   1.946   4.940
13731TIP3   OH291660   6.184   1.856   4.801
13731TIP3    H191661   6.093   1.870   4.825
13731TIP3    H291662   6.195   1.903   4.718
13732TIP3   OH291663   6.644   1.866   4.706
13732TIP3    H191664   6.576   1.899   4.647
13732TIP3    H291665   6.641   1.926   4.780
13733TIP3   OH291666   6.886   1.738   4.721
13733TIP3    H191667   6.805   1.788   4.723
13733TIP3    H291668   6.955   1.804   4.726
13734TIP3   OH291669   7.101   1.913   4.747
13734TIP3    H191670   7.121   2.001   4.716
13734TIP3    H291671   7.162   1.899   4.819
13735TIP3   OH291672   5.903   1.746   4.527
13735TIP3    H191673   5.883   1.709   4.613
13735TIP3    H291674   5.983   1.700   4.500
13736TIP3   OH291675   6.124   1.615   4.433
13736TIP3    H191676   6.109   1.524   4.458
13736TIP3    H291677   6.209   1.636   4.472
13737TIP3   OH291678   6.381   1.644   4.540
13737TIP3    H191679   6.393   1.554   4.511
13737TIP3    H291680   6.414   1.645   4.630
13738TIP3   OH291681   6.698   0.237   4.448
13738TIP3    H191682   6.623   0.179   4.464
13738TIP3    H291683   6.762   0.182   4.403
13739TIP3   OH291684   7.176   0.045   4.423
13739TIP3    H191685   7.238   0.089   4.366
13739TIP3    H291686   7.091   0.084   4.402
13740TIP3   OH291687   7.375   0.160   4.261
13740TIP3    H191688   7.428   0.081   4.251
13740TIP3    H291689   7.438   0.228   4.284
13741TIP3   OH291690   5.894   0.132   4.152
13741TIP3    H191691   5.823   0.172   4.102
13741TIP3    H291692   5.890   0.039   4.127
13742TIP3   OH291693   5.799   0.088   3.790
13742TIP3    H191694   5.858   0.151   3.747
13742TIP3    H291695   5.761   0.136   3.863
13743TIP3   OH291696   6.391   0.079   4.207
13743TIP3    H191697   6.466   0.112   4.158
13743TIP3    H291698   6.416   0.087   4.299
13744TIP3   OH291699   6.910   0.117   4.304
13744TIP3    H191700   6.918   0.176   4.229
13744TIP3    H291701   6.929   0.030   4.267
13745TIP3   OH291702   7.097   0.153   3.912
13745TIP3    H191703   7.007   0.182   3.928
13745TIP3    H291704   7.100   0.064   3.948
13746TIP3   OH291705   5.801   1.721   3.888
13746TIP3    H191706   5.728   1.700   3.829
13746TIP3    H291707   5.806   1.816   3.886
13747TIP3   OH291708   5.973   0.286   3.680
13747TIP3    H191709   5.978   0.248   3.592
13747TIP3    H291710   6.065   0.300   3.704
13748TIP3   OH291711   6.497   0.322   3.864
13748TIP3    H191712   6.527   0.256   3.926
13748TIP3    H291713   6.511   0.405   3.908
13749TIP3   OH291714   6.698   1.775   3.695
13749TIP3    H191715   6.793   1.787   3.696
13749TIP3    H291716   6.682   1.714   3.623
13750TIP3   OH291717   7.362   1.769   4.004
13750TIP3    H191718   7.344   1.683   3.966
13750TIP3    H291719   7.350   1.830   3.931
13751TIP3   OH291720   5.877   0.202   5.082
13751TIP3    H191721   5.818   0.159   5.020
13751TIP3    H291722   5.858   0.160   5.166
13752TIP3   OH291723   6.025   1.829   3.656
13752TIP3    H191724   5.945   1.822   3.707
13752TIP3    H291725   6.051   1.738   3.639
13753TIP3   OH291726   7.901   1.323   4.531
13753TIP3    H191727   7.901   1.239   4.486
13753TIP3    H291728   7.955   1.309   4.609
13754TIP3   OH291729   7.592   0.677   4.055
13754TIP3    H191730   7.563   0.767   4.072
13754TIP3    H291731   7.558   0.657   3.968
13755TIP3   OH291732   7.652   0.969   4.329
13755TIP3    H191733   7.674   0.878   4.347
13755TIP3    H291734   7.734   1.016   4.342
13756TIP3   OH291735   8.016   0.447   4.377
13756TIP3    H191736   8.024   0.540   4.401
13756TIP3    H291737   8.091   0.405   4.418
13757TIP3   OH291738   7.731   0.713   4.404
13757TIP3    H191739   7.775   0.754   4.478
13757TIP3    H291740   7.796   0.653   4.368
13758TIP3   OH291741   7.970   0.318   4.760
13758TIP3    H191742   7.964   0.404   4.719
13758TIP3    H291743   7.904   0.320   4.829
13759TIP3   OH291744   7.913   0.563   4.637
13759TIP3    H191745   7.871   0.634   4.685
13759TIP3    H291746   7.986   0.604   4.591
13760TIP3   OH291747   8.036   1.319   4.782
13760TIP3    H191748   8.066   1.409   4.798
13760TIP3    H291749   7.963   1.308   4.843
13761TIP3   OH291750   7.665   1.293   3.928
13761TIP3    H191751   7.660   1.333   3.841
13761TIP3    H291752   7.694   1.363   3.986
13762TIP3   OH291753   8.079   0.994   4.215
13762TIP3    H191754   8.077   0.988   4.120
13762TIP3    H291755   0.025   0.971   4.239
13763TIP3   OH291756   7.825   0.935   4.952
13763TIP3    H191757   7.912   0.912   4.986
13763TIP3    H291758   7.830   0.917   4.858
13764TIP3   OH291759   7.970   1.592   5.108
13764TIP3    H191760   8.019   1.596   5.026
13764TIP3    H291761   7.938   1.502   5.112
13765TIP3   OH291762   8.047   0.931   3.938
13765TIP3    H191763   7.982   0.992   3.904
13765TIP3    H291764   7.996   0.856   3.969
13766TIP3   OH291765   7.627   1.157   4.882
13766TIP3    H191766   7.613   1.140   4.789
13766TIP3    H291767   7.645   1.070   4.920
13767TIP3   OH291768   7.662   1.452   4.566
13767TIP3    H191769   7.741   1.401   4.547
13767TIP3    H291770   7.681   1.495   4.649
13768TIP3   OH291771   7.919   1.706   4.204
13768TIP3    H191772   7.947   1.666   4.287
13768TIP3    H291773   7.882   1.633   4.154
13769TIP3   OH291774   7.832   1.326   4.964
13769TIP3    H191775   7.850   1.309   5.056
13769TIP3    H291776   7.762   1.265   4.941
13770TIP3   OH291777   0.045   0.152   4.523
13770TIP3    H191778   8.107   0.133   4.478
13770TIP3    H291779   0.028   0.126   4.614
13771TIP3   OH291780   8.066   0.771   4.842
13771TIP3    H191781   8.015   0.696   4.875
13771TIP3    H291782   8.014   0.805   4.769
13772TIP3   OH291783   8.074   0.610   4.116
13772TIP3    H191784   7.992   0.605   4.165
13772TIP3    H291785   8.127   0.538   4.151
13773TIP3   OH291786   7.895   0.581   4.953
13773TIP3    H191787   7.873   0.620   5.038
13773TIP3    H291788   7.850   0.497   4.953
13774TIP3   OH291789   7.553   0.371   4.300
13774TIP3    H191790   7.594   0.397   4.383
13774TIP3    H291791   7.549   0.451   4.248
13775TIP3   OH291792   7.672   0.459   3.838
13775TIP3    H191793   7.716   0.414   3.766
13775TIP3    H291794   7.610   0.518   3.796
13776TIP3   OH291795   7.790   0.512   4.151
13776TIP3    H191796   7.722   0.575   4.130
13776TIP3    H291797   7.820   0.480   4.065
13777TIP3   OH291798   0.042   0.710   3.574
13777TIP3    H191799   8.108   0.675   3.617
13777TIP3    H291800   0.072   0.779   3.633
13778TIP3   OH291801   8.016   0.270   4.135
13778TIP3    H191802   8.027   0.178   4.161
13778TIP3    H291803   8.091   0.315   4.173
13779TIP3   OH291804   7.900   1.071   4.413
13779TIP3    H191805   7.968   1.044   4.351
13779TIP3    H291806   7.909   1.009   4.486
13780TIP3   OH291807   7.563   0.903   5.026
13780TIP3    H191808   7.657   0.894   5.014
13780TIP3    H291809   7.525   0.881   4.941
13781TIP3   OH291810   7.703   1.074   3.621
13781TIP3    H191811   7.763   1.072   3.696
13781TIP3    H291812   7.635   1.010   3.643
13782TIP3   OH291813   7.777   0.321   4.955
13782TIP3    H191814   7.696   0.280   4.926
13782TIP3    H291815   7.817   0.255   5.013
13783TIP3   OH291816   7.746   1.562   4.806
13783TIP3    H191817   7.809   1.499   4.841
13783TIP3    H291818   7.687   1.580   4.880
13784TIP3   OH291819   7.867   1.119   3.840
13784TIP3    H191820   7.801   1.162   3.895
13784TIP3    H291821   7.917   1.191   3.802
13785TIP3   OH291822   8.090   0.325   3.693
13785TIP3    H191823   8.134   0.393   3.744
13785TIP3    H291824   8.134   0.244   3.719
13786TIP3   OH291825   7.979   1.349   3.721
13786TIP3    H191826   7.995   1.417   3.787
13786TIP3    H291827   8.062   1.341   3.674
13787TIP3   OH291828   7.872   0.139   4.436
13787TIP3    H191829   7.849   0.073   4.370
13787TIP3    H291830   7.873   0.090   4.518
13788TIP3   OH291831   7.738   1.530   4.061
13788TIP3    H191832   7.666   1.555   4.119
13788TIP3    H291833   7.733   1.590   3.987
13789TIP3   OH291834   7.687   1.356   3.657
13789TIP3    H191835   7.782   1.371   3.656
13789TIP3    H291836   7.677   1.265   3.628
13790TIP3   OH291837   7.545   1.834   4.199
13790TIP3    H191838   7.491   1.808   4.125
13790TIP3    H291839   7.540   1.760   4.259
13791TIP3   OH291840   7.522   1.616   4.396
13791TIP3    H191841   7.587   1.556   4.432
13791TIP3    H291842   7.515   1.686   4.461
13792TIP3   OH291843   7.595   1.053   4.590
13792TIP3    H191844   7.591   1.034   4.497
13792TIP3    H291845   7.676   1.010   4.620
13793TIP3   OH291846   7.737   0.400   4.502
13793TIP3    H191847   7.730   0.325   4.561
13793TIP3    H291848   7.796   0.460   4.547
13794TIP3   OH291849   7.518   0.627   4.561
13794TIP3    H191850   7.583   0.653   4.497
13794TIP3    H291851   7.546   0.669   4.643
13795TIP3   OH291852   7.575   0.254   3.992
13795TIP3    H191853   7.481   0.268   4.002
13795TIP3    H291854   7.606   0.333   3.947
13796TIP3   OH291855   7.551   0.176   4.860
13796TIP3    H191856   7.473   0.174   4.915
13796TIP3    H291857   7.524   0.223   4.781
13797TIP3   OH291858   8.095   1.581   4.854
13797TIP3    H191859   8.064   1.658   4.806
13797TIP3    H291860   0.046   1.588   4.850
13798TIP3   OH291861   7.826   1.936   4.814
13798TIP3    H191862   7.736   1.960   4.792
13798TIP3    H291863   7.834   1.955   4.908
13799TIP3   OH291864   8.050   1.814   4.714
13799TIP3    H191865   7.966   1.849   4.747
13799TIP3    H291866   8.074   1.874   4.643
13800TIP3   OH291867   7.787   1.741   4.573
13800TIP3    H191868   7.792   1.705   4.662
13800TIP3    H291869   7.854   1.693   4.524
13801TIP3   OH291870   7.979   1.576   4.447
13801TIP3    H191871   7.944   1.488   4.463
13801TIP3    H291872   8.068   1.573   4.482
13802TIP3   OH291873   7.745   0.134   4.173
13802TIP3    H191874   7.682   0.172   4.112
13802TIP3    H291875   7.753   0.043   4.145
13803TIP3   OH291876   7.696   0.093   3.799
13803TIP3    H191877   7.735   0.164   3.748
13803TIP3    H291878   7.653   0.137   3.872
13804TIP3   OH291879   7.707   1.700   3.852
13804TIP3    H191880   7.627   1.688   3.802
13804TIP3    H291881   7.724   1.795   3.848
13805TIP3   OH291882   7.806   0.302   3.651
13805TIP3    H191883   7.791   0.258   3.567
13805TIP3    H291884   7.901   0.304   3.660
13806TIP3   OH291885   7.889   0.114   5.102
13806TIP3    H191886   7.829   0.049   5.138
13806TIP3    H291887   7.968   0.066   5.080
13807TIP3   OH291888   7.891   1.721   3.549
13807TIP3    H191889   7.808   1.702   3.593
13807TIP3    H291890   7.951   1.743   3.620
13808TIP3   OH291891   1.188   2.927   4.160
13808TIP3    H191892   1.164   3.020   4.158
13808TIP3    H291893   1.129   2.885   4.098
13809TIP3   OH291894   1.050   2.823   4.568
13809TIP3    H191895   1.083   2.782   4.648
13809TIP3    H291896   1.019   2.750   4.515
13810TIP3   OH291897   0.328   2.782   4.718
13810TIP3    H191898   0.309   2.692   4.743
13810TIP3    H291899   0.350   2.826   4.801
13811TIP3   OH291900   1.535   3.138   4.426
13811TIP3    H191901   1.476   3.067   4.451
13811TIP3    H291902   1.508   3.213   4.479
13812TIP3   OH291903   0.439   3.257   4.476
13812TIP3    H191904   0.400   3.170   4.483
13812TIP3    H291905   0.533   3.241   4.469
13813TIP3   OH291906   0.105   2.678   4.009
13813TIP3    H191907   0.150   2.731   4.074
13813TIP3    H291908   0.032   2.733   3.980
13814TIP3   OH291909   0.205   2.801   4.240
13814TIP3    H191910   0.217   2.740   4.313
13814TIP3    H291911   0.285   2.853   4.239
13815TIP3   OH291912   1.195   3.583   4.442
13815TIP3    H191913   1.228   3.542   4.362
13815TIP3    H291914   1.195   3.514   4.507
13816TIP3   OH291915   0.955   3.081   4.578
13816TIP3    H191916   0.985   2.993   4.554
13816TIP3    H291917   1.032   3.123   4.616
13817TIP3   OH291918   1.801   2.218   4.658
13817TIP3    H191919   1.812   2.278   4.732
13817TIP3    H291920   1.855   2.255   4.589
13818TIP3   OH291921   1.215   2.518   4.585
13818TIP3    H191922   1.236   2.425   4.596
13818TIP3    H291923   1.202   2.529   4.491
13819TIP3   OH291924   0.581   2.333   4.324
13819TIP3    H191925   0.585   2.413   4.271
13819TIP3    H291926   0.546   2.267   4.264
13820TIP3   OH291927   1.370   2.342   4.166
13820TIP3    H191928   1.408   2.307   4.246
13820TIP3    H291929   1.444   2.377   4.117
13821TIP3   OH291930   0.253   2.584   4.407
13821TIP3    H191931   0.311   2.541   4.470
13821TIP3    H291932   0.271   2.541   4.324
13822TIP3   OH291933   0.696   2.712   4.369
13822TIP3    H191934   0.783   2.682   4.395
13822TIP3    H291935   0.666   2.647   4.306
13823TIP3   OH291936   1.820   2.376   4.886
13823TIP3    H191937   1.768   2.450   4.854
13823TIP3    H291938   1.773   2.346   4.964
13824TIP3   OH291939   0.451   2.241   4.766
13824TIP3    H191940   0.429   2.279   4.681
13824TIP3    H291941   0.370   2.245   4.817
13825TIP3   OH291942   1.097   3.176   4.085
13825TIP3    H191943   1.118   3.187   3.992
13825TIP3    H291944   1.070   3.264   4.113
13826TIP3   OH291945   0.792   3.048   4.794
13826TIP3    H191946   0.837   3.075   4.874
13826TIP3    H291947   0.856   3.063   4.724
13827TIP3   OH291948   1.459   2.283   4.419
13827TIP3    H191949   1.389   2.267   4.483
13827TIP3    H291950   1.518   2.345   4.462
13828TIP3   OH291951   0.426   2.407   4.538
13828TIP3    H191952   0.481   2.458   4.597
13828TIP3    H291953   0.487   2.370   4.474
13829TIP3   OH291954   0.514   3.218   4.799
13829TIP3    H191955   0.541   3.310   4.801
13829TIP3    H291956   0.429   3.217   4.841
13830TIP3   OH291957   0.136   3.146   3.902
13830TIP3    H191958   0.112   3.193   3.823
13830TIP3    H291959   0.136   3.214   3.971
13831TIP3   OH291960   1.482   3.355   4.595
13831TIP3    H191961   1.387   3.362   4.597
13831TIP3    H291962   1.513   3.443   4.572
13832TIP3   OH291963   1.542   2.105   4.679
13832TIP3    H191964   1.486   2.182   4.687
13832TIP3    H291965   1.630   2.140   4.672
13833TIP3   OH291966   0.822   1.930   4.487
13833TIP3    H191967   0.803   1.837   4.483
13833TIP3    H291968   0.740   1.971   4.516
13834TIP3   OH291969   1.308   3.477   4.214
13834TIP3    H191970   1.347   3.392   4.196
13834TIP3    H291971   1.382   3.537   4.220
13835TIP3   OH291972   1.443   3.246   4.165
13835TIP3    H191973   1.460   3.197   4.085
13835TIP3    H291974   1.485   3.196   4.235
13836TIP3   OH291975   1.615   3.112   4.960
13836TIP3    H191976   1.614   3.065   4.877
13836TIP3    H291977   1.613   3.205   4.935
13837TIP3   OH291978   1.035   2.830   3.944
13837TIP3    H191979   0.986   2.911   3.930
13837TIP3    H291980   1.049   2.794   3.857
13838TIP3   OH291981   1.075   2.703   3.697
13838TIP3    H191982   1.169   2.722   3.703
13838TIP3    H291983   1.069   2.619   3.653
13839TIP3   OH291984   1.799   2.804   4.787
13839TIP3    H191985   1.725   2.864   4.776
13839TIP3    H291986   1.854   2.819   4.710
13840TIP3   OH291987   1.422   2.873   4.029
13840TIP3    H191988   1.348   2.890   4.088
13840TIP3    H291989   1.481   2.817   4.079
13841TIP3   OH291990   1.387   2.634   4.935
13841TIP3    H191991   1.399   2.696   5.007
13841TIP3    H291992   1.310   2.667   4.888
13842TIP3   OH291993   0.496   2.878   4.263
13842TIP3    H191994   0.492   2.856   4.170
13842TIP3    H291995   0.572   2.829   4.296
13843TIP3   OH291996   0.709   3.172   4.483
13843TIP3    H191997   0.713   3.221   4.401
13843TIP3    H291998   0.799   3.149   4.502
13844TIP3   OH291999   0.657   2.827   4.622
13844TIP3    H192000   0.673   2.787   4.536
13844TIP3    H292001   0.727   2.792   4.678
13845TIP3   OH292002   1.212   3.376   4.632
13845TIP3    H192003   1.199   3.445   4.696
13845TIP3    H292004   1.189   3.295   4.679
13846TIP3   OH292005   0.700   3.251   5.029
13846TIP3    H192006   0.635   3.294   5.084
13846TIP3    H292007   0.649   3.212   4.957
13847TIP3   OH292008   1.329   2.801   3.781
13847TIP3    H192009   1.355   2.827   3.869
13847TIP3    H292010   1.349   2.878   3.726
13848TIP3   OH292011   0.383   2.834   4.993
13848TIP3    H192012   0.402   2.880   5.075
13848TIP3    H292013   0.288   2.822   4.994
13849TIP3   OH292014   1.041   3.445   4.139
13849TIP3    H192015   1.131   3.457   4.171
13849TIP3    H292016   1.022   3.524   4.089
13850TIP3   OH292017   0.488   3.412   5.115
13850TIP3    H192018   0.513   3.450   5.031
13850TIP3    H292019   0.457   3.487   5.166
13851TIP3   OH292020   1.659   1.961   3.776
13851TIP3    H192021   1.570   1.986   3.802
13851TIP3    H292022   1.693   2.039   3.731
13852TIP3   OH292023   0.443   2.787   4.000
13852TIP3    H192024   0.409   2.861   3.950
13852TIP3    H292025   0.434   2.712   3.942
13853TIP3   OH292026   1.752   3.408   3.635
13853TIP3    H192027   1.781   3.499   3.637
13853TIP3    H292028   1.833   3.357   3.629
13854TIP3   OH292029   0.107   3.045   4.841
13854TIP3    H192030   0.019   3.083   4.831
13854TIP3    H292031   0.092   2.965   4.890
13855TIP3   OH292032   0.101   3.387   4.564
13855TIP3    H192033   0.163   3.317   4.543
13855TIP3    H292034   0.136   3.427   4.644
13856TIP3   OH292035   1.953   3.423   5.076
13856TIP3    H192036   2.008   3.474   5.136
13856TIP3    H292037   1.881   3.391   5.131
13857TIP3   OH292038   0.943   3.376   5.028
13857TIP3    H192039   0.943   3.448   5.091
13857TIP3    H292040   0.856   3.336   5.038
13858TIP3   OH292041   1.026   3.690   3.995
13858TIP3    H192042   1.005   3.697   3.902
13858TIP3    H292043   1.003   3.775   4.032
13859TIP3   OH292044   0.388   3.619   4.225
13859TIP3    H192045   0.425   3.602   4.312
13859TIP3    H292046   0.304   3.575   4.225
13860TIP3   OH292047   1.300   3.634   3.701
13860TIP3    H192048   1.371   3.581   3.664
13860TIP3    H292049   1.319   3.635   3.795
13861TIP3   OH292050   1.302   3.658   3.974
13861TIP3    H192051   1.208   3.658   3.992
13861TIP3    H292052   1.341   3.614   4.050
13862TIP3   OH292053   0.276   3.247   4.933
13862TIP3    H192054   0.282   3.236   5.028
13862TIP3    H292055   0.216   3.177   4.905
13863TIP3   OH292056   0.582   2.038   4.560
13863TIP3    H192057   0.496   2.040   4.519
13863TIP3    H292058   0.565   2.014   4.651
13864TIP3   OH292059   1.022   2.015   4.938
13864TIP3    H192060   1.068   1.955   4.996
13864TIP3    H292061   0.930   2.006   4.962
13865TIP3   OH292062   1.355   2.369   5.027
13865TIP3    H192063   1.305   2.389   5.106
13865TIP3    H292064   1.370   2.455   4.986
13866TIP3   OH292065   0.924   2.130   3.575
13866TIP3    H192066   0.931   2.225   3.576
13866TIP3    H292067   1.007   2.099   3.612
13867TIP3   OH292068   0.556   2.569   4.717
13867TIP3    H192069   0.489   2.556   4.785
13867TIP3    H292070   0.552   2.663   4.698
13868TIP3   OH292071   0.570   2.562   4.169
13868TIP3    H192072   0.504   2.628   4.148
13868TIP3    H292073   0.608   2.538   4.084
13869TIP3   OH292074   1.099   2.581   4.052
13869TIP3    H192075   1.075   2.669   4.025
13869TIP3    H292076   1.175   2.559   3.998
13870TIP3   OH292077   1.216   2.526   4.307
13870TIP3    H192078   1.162   2.566   4.239
13870TIP3    H292079   1.260   2.454   4.263
13871TIP3   OH292080   0.326   2.537   4.876
13871TIP3    H192081   0.317   2.570   4.965
13871TIP3    H292082   0.286   2.450   4.879
13872TIP3   OH292083   0.106   2.247   4.203
13872TIP3    H192084   0.123   2.255   4.297
13872TIP3    H292085   0.141   2.160   4.180
13873TIP3   OH292086   0.170   2.393   3.849
13873TIP3    H192087   0.242   2.353   3.801
13873TIP3    H292088   0.128   2.451   3.786
13874TIP3   OH292089   1.116   2.665   4.790
13874TIP3    H192090   1.157   2.616   4.720
13874TIP3    H292091   1.075   2.598   4.845
13875TIP3   OH292092   0.865   2.347   4.308
13875TIP3    H192093   0.775   2.329   4.336
13875TIP3    H292094   0.916   2.274   4.344
13876TIP3   OH292095   0.304   2.441   4.177
13876TIP3    H192096   0.279   2.358   4.219
13876TIP3    H292097   0.390   2.424   4.139
13877TIP3   OH292098   0.628   2.491   3.910
13877TIP3    H192099   0.721   2.478   3.930
13877TIP3    H292100   0.627   2.520   3.819
13878TIP3   OH292101   1.256   2.242   4.605
13878TIP3    H192102   1.219   2.241   4.693
13878TIP3    H292103   1.204   2.178   4.557
13879TIP3   OH292104   0.602   2.574   3.649
13879TIP3    H192105   0.565   2.549   3.564
13879TIP3    H292106   0.685   2.616   3.628
13880TIP3   OH292107   0.922   2.588   4.467
13880TIP3    H192108   0.944   2.520   4.404
13880TIP3    H292109   0.895   2.541   4.546
13881TIP3   OH292110   0.441   2.200   4.119
13881TIP3    H192111   0.387   2.122   4.128
13881TIP3    H292112   0.481   2.192   4.033
13882TIP3   OH292113   0.817   2.466   4.693
13882TIP3    H192114   0.730   2.502   4.712
13882TIP3    H292115   0.866   2.477   4.775
13883TIP3   OH292116   0.860   3.051   3.879
13883TIP3    H192117   0.799   2.993   3.833
13883TIP3    H292118   0.819   3.067   3.964
13884TIP3   OH292119   1.604   2.985   4.712
13884TIP3    H192120   1.654   3.044   4.656
13884TIP3    H292121   1.529   2.960   4.660
13885TIP3   OH292122   1.216   2.325   3.751
13885TIP3    H192123   1.157   2.354   3.681
13885TIP3    H292124   1.256   2.406   3.783
13886TIP3   OH292125   0.988   3.099   4.978
13886TIP3    H192126   1.038   3.056   5.049
13886TIP3    H292127   0.983   3.190   5.004
13887TIP3   OH292128   1.325   2.542   3.889
13887TIP3    H192129   1.412   2.519   3.923
13887TIP3    H292130   1.339   2.625   3.844
13888TIP3   OH292131   0.423   2.980   4.518
13888TIP3    H192132   0.442   2.946   4.431
13888TIP3    H292133   0.384   2.906   4.565
13889TIP3   OH292134   1.092   3.183   3.793
13889TIP3    H192135   1.060   3.273   3.787
13889TIP3    H292136   1.016   3.131   3.817
13890TIP3   OH292137   0.105   2.796   4.983
13890TIP3    H192138   0.086   2.771   5.074
13890TIP3    H292139   0.064   2.727   4.930
13891TIP3   OH292140   1.211   3.264   5.079
13891TIP3    H192141   1.144   3.331   5.070
13891TIP3    H292142   1.251   3.280   5.164
13892TIP3   OH292143   1.762   2.548   3.808
13892TIP3    H192144   1.750   2.524   3.716
13892TIP3    H292145   1.785   2.640   3.807
13893TIP3   OH292146   1.839   3.070   5.122
13893TIP3    H192147   1.753   3.098   5.090
13893TIP3    H292148   1.898   3.083   5.048
13894TIP3   OH292149   1.640   3.419   3.889
13894TIP3    H192150   1.592   3.339   3.911
13894TIP3    H292151   1.674   3.404   3.801
13895TIP3   OH292152   1.393   2.913   4.533
13895TIP3    H192153   1.298   2.912   4.532
13895TIP3    H292154   1.418   2.833   4.486
13896TIP3   OH292155   0.659   3.324   4.250
13896TIP3    H192156   0.701   3.399   4.207
13896TIP3    H292157   0.565   3.340   4.238
13897TIP3   OH292158   0.126   2.806   3.675
13897TIP3    H192159   0.205   2.832   3.723
13897TIP3    H292160   0.074   2.886   3.668
13898TIP3   OH292161   0.706   3.084   4.108
13898TIP3    H192162   0.708   3.171   4.149
13898TIP3    H292163   0.654   3.031   4.168
13899TIP3   OH292164   0.849   3.500   4.788
13899TIP3    H192165   0.896   3.583   4.776
13899TIP3    H292166   0.897   3.456   4.857
13900TIP3   OH292167   0.642   3.580   4.114
13900TIP3    H192168   0.552   3.600   4.137
13900TIP3    H292169   0.693   3.655   4.146
13901TIP3   OH292170   1.162   3.136   4.764
13901TIP3    H192171   1.103   3.126   4.838
13901TIP3    H292172   1.243   3.093   4.792
13902TIP3   OH292173   1.342   3.136   3.677
13902TIP3    H192174   1.406   3.142   3.749
13902TIP3    H292175   1.258   3.157   3.718
13903TIP3   OH292176   1.396   3.547   4.961
13903TIP3    H192177   1.314   3.532   4.913
13903TIP3    H292178   1.435   3.623   4.918
13904TIP3   OH292179   1.830   3.665   3.683
13904TIP3    H192180   1.903   3.726   3.676
13904TIP3    H292181   1.754   3.721   3.698
13905TIP3   OH292182   0.220   2.265   4.913
13905TIP3    H192183   0.143   2.222   4.876
13905TIP3    H292184   0.244   2.212   4.988
13906TIP3   OH292185   1.505   3.110   3.913
13906TIP3    H192186   1.473   3.028   3.951
13906TIP3    H292187   1.599   3.096   3.902
13907TIP3   OH292188   0.220   3.497   4.796
13907TIP3    H192189   0.259   3.426   4.847
13907TIP3    H292190   0.250   3.577   4.838
13908TIP3   OH292191   0.665   3.266   3.745
13908TIP3    H192192   0.735   3.213   3.784
13908TIP3    H292193   0.678   3.353   3.781
13909TIP3   OH292194   0.321   2.964   3.815
13909TIP3    H192195   0.256   3.019   3.859
13909TIP3    H292196   0.371   3.025   3.761
13910TIP3   OH292197   1.155   2.247   4.863
13910TIP3    H192198   1.227   2.264   4.924
13910TIP3    H292199   1.116   2.165   4.893
13911TIP3   OH292200   1.218   2.191   3.989
13911TIP3    H192201   1.213   2.236   3.905
13911TIP3    H292202   1.265   2.251   4.047
13912TIP3   OH292203   0.971   3.426   3.783
13912TIP3    H192204   0.887   3.456   3.819
13912TIP3    H292205   1.002   3.500   3.730
13913TIP3   OH292206   0.869   2.425   4.037
13913TIP3    H192207   0.949   2.477   4.031
13913TIP3    H292208   0.866   2.396   4.128
13914TIP3   OH292209   0.985   2.460   4.918
13914TIP3    H192210   0.969   2.450   5.012
13914TIP3    H292211   1.038   2.384   4.894
13915TIP3   OH292212   0.998   2.089   4.114
13915TIP3    H192213   1.008   2.112   4.206
13915TIP3    H292214   1.074   2.128   4.071
13916TIP3   OH292215   0.719   3.521   3.853
13916TIP3    H192216   0.721   3.608   3.813
13916TIP3    H292217   0.692   3.537   3.943
13917TIP3   OH292218   0.553   2.227   3.865
13917TIP3    H192219   0.566   2.322   3.875
13917TIP3    H292220   0.641   2.190   3.874
13918TIP3   OH292221   1.639   2.328   5.093
13918TIP3    H192222   1.547   2.313   5.073
13918TIP3    H292223   1.666   2.251   5.143
13919TIP3   OH292224   1.445   2.663   4.406
13919TIP3    H192225   1.362   2.621   4.382
13919TIP3    H292226   1.488   2.599   4.463
13920TIP3   OH292227   0.415   3.180   3.647
13920TIP3    H192228   0.489   3.203   3.704
13920TIP3    H292229   0.434   3.224   3.564
13921TIP3   OH292230   1.563   3.619   4.566
13921TIP3    H192231   1.549   3.689   4.503
13921TIP3    H292232   1.657   3.624   4.587
13922TIP3   OH292233   0.321   2.030   4.444
13922TIP3    H192234   0.313   2.017   4.350
13922TIP3    H292235   0.281   1.951   4.482
13923TIP3   OH292236   0.133   3.372   4.064
13923TIP3    H192237   0.130   3.422   4.146
13923TIP3    H292238   0.139   3.438   3.995
13924TIP3   OH292239   1.485   3.479   3.567
13924TIP3    H192240   1.452   3.403   3.518
13924TIP3    H292241   1.576   3.457   3.587
13925TIP3   OH292242   1.349   3.042   4.997
13925TIP3    H192243   1.440   3.072   4.990
13925TIP3    H292244   1.301   3.120   5.026
13926TIP3   OH292245   0.694   2.873   3.755
13926TIP3    H192246   0.631   2.813   3.795
13926TIP3    H292247   0.738   2.820   3.688
13927TIP3   OH292248   0.634   2.668   5.007
13927TIP3    H192249   0.558   2.725   4.993
13927TIP3    H292250   0.697   2.698   4.942
13928TIP3   OH292251   0.829   2.708   3.573
13928TIP3    H192252   0.853   2.634   3.517
13928TIP3    H292253   0.909   2.728   3.621
13929TIP3   OH292254   0.585   2.402   5.084
13929TIP3    H192255   0.627   2.344   5.020
13929TIP3    H292256   0.602   2.490   5.051
13930TIP3   OH292257   0.699   2.258   4.871
13930TIP3    H192258   0.752   2.293   4.800
13930TIP3    H292259   0.613   2.243   4.832
13931TIP3   OH292260   0.832   2.767   4.830
13931TIP3    H192261   0.923   2.739   4.827
13931TIP3    H292262   0.836   2.862   4.839
13932TIP3   OH292263   0.746   2.003   4.975
13932TIP3    H192264   0.731   2.093   4.948
13932TIP3    H292265   0.682   1.952   4.925
13933TIP3   OH292266   0.777   3.744   3.693
13933TIP3    H192267   0.872   3.727   3.690
13933TIP3    H292268   0.762   3.808   3.624
13934TIP3   OH292269   0.120   3.207   3.614
13934TIP3    H192270   0.212   3.212   3.640
13934TIP3    H292271   0.123   3.200   3.518
13935TIP3   OH292272   0.034   3.726   4.138
13935TIP3    H192273   8.084   3.715   4.133
13935TIP3    H292274   0.063   3.657   4.198
13936TIP3   OH292275   0.130   3.530   4.310
13936TIP3    H192276   0.076   3.464   4.352
13936TIP3    H292277   0.161   3.585   4.382
13937TIP3   OH292278   1.822   3.636   4.654
13937TIP3    H192279   1.811   3.614   4.746
13937TIP3    H292280   1.873   3.717   4.655
13938TIP3   OH292281   1.775   3.557   4.913
13938TIP3    H192282   1.712   3.486   4.901
13938TIP3    H292283   1.843   3.520   4.969
13939TIP3   OH292284   1.773   3.055   3.911
13939TIP3    H192285   1.853   3.108   3.915
13939TIP3    H292286   1.773   3.006   3.993
13940TIP3   OH292287   1.777   2.882   4.119
13940TIP3    H192288   1.715   2.812   4.138
13940TIP3    H292289   1.858   2.837   4.095
13941TIP3   OH292290   1.788   3.141   4.567
13941TIP3    H192291   1.724   3.154   4.497
13941TIP3    H292292   1.832   3.226   4.575
13942TIP3   OH292293   1.581   3.364   4.860
13942TIP3    H192294   1.515   3.418   4.903
13942TIP3    H292295   1.552   3.359   4.769
13943TIP3   OH292296   1.849   2.812   3.789
13943TIP3    H192297   1.808   2.895   3.813
13943TIP3    H292298   1.913   2.796   3.859
13944TIP3   OH292299   1.583   2.688   4.165
13944TIP3    H192300   1.582   2.600   4.129
13944TIP3    H292301   1.542   2.679   4.252
13945TIP3   OH292302   0.095   2.864   4.588
13945TIP3    H192303   0.077   2.951   4.624
13945TIP3    H292304   0.176   2.836   4.631
13946TIP3   OH292305   1.690   2.867   5.242
13946TIP3    H192306   1.723   2.778   5.229
13946TIP3    H292307   1.756   2.923   5.200
13947TIP3   OH292308   1.505   2.149   3.566
13947TIP3    H192309   1.590   2.181   3.594
13947TIP3    H292310   1.445   2.222   3.583
13948TIP3   OH292311   1.579   2.449   4.000
13948TIP3    H192312   1.605   2.357   4.003
13948TIP3    H292313   1.637   2.487   3.933
13949TIP3   OH292314   1.600   2.480   4.555
13949TIP3    H192315   1.693   2.486   4.532
13949TIP3    H292316   1.596   2.505   4.647
13950TIP3   OH292317   1.637   2.575   4.815
13950TIP3    H192318   1.553   2.596   4.857
13950TIP3    H292319   1.684   2.658   4.813
13951TIP3   OH292320   1.636   2.178   4.020
13951TIP3    H192321   1.661   2.138   4.103
13951TIP3    H292322   1.569   2.120   3.985
13952TIP3   OH292323   0.197   2.271   4.458
13952TIP3    H192324   0.230   2.182   4.472
13952TIP3    H292325   0.261   2.327   4.501
13953TIP3   OH292326   0.009   2.605   4.556
13953TIP3    H192327   0.083   2.576   4.503
13953TIP3    H292328   0.021   2.700   4.563
13954TIP3   OH292329   1.769   2.192   3.643
13954TIP3    H192330   1.812   2.204   3.559
13954TIP3    H292331   1.826   2.235   3.706
13955TIP3   OH292332   0.025   2.158   3.905
13955TIP3    H192333   8.108   2.191   3.839
13955TIP3    H292334   0.098   2.220   3.903
13956TIP3   OH292335   1.497   3.669   4.198
13956TIP3    H192336   1.568   3.675   4.134
13956TIP3    H292337   1.521   3.731   4.267
13957TIP3   OH292338   0.019   2.080   4.841
13957TIP3    H192339   8.119   2.000   4.870
13957TIP3    H292340   8.092   2.140   4.820
13958TIP3   OH292341   0.580   3.483   4.853
13958TIP3    H192342   0.556   3.574   4.835
13958TIP3    H292343   0.675   3.481   4.839
13959TIP3   OH292344   0.968   3.583   5.211
13959TIP3    H192345   0.985   3.556   5.301
13959TIP3    H292346   1.047   3.629   5.183
13960TIP3   OH292347   1.197   3.712   5.115
13960TIP3    H192348   1.263   3.668   5.061
13960TIP3    H292349   1.233   3.710   5.203
13961TIP3   OH292350   1.739   1.947   4.976
13961TIP3    H192351   1.644   1.952   4.965
13961TIP3    H292352   1.760   1.854   4.965
13962TIP3   OH292353   0.260   3.773   4.877
13962TIP3    H192354   0.187   3.825   4.843
13962TIP3    H292355   0.275   3.808   4.965
13963TIP3   OH292356   0.531   3.749   4.808
13963TIP3    H192357   0.439   3.765   4.830
13963TIP3    H292358   0.545   3.796   4.726
13964TIP3   OH292359   0.968   3.742   4.724
13964TIP3    H192360   0.928   3.789   4.651
13964TIP3    H292361   0.986   3.810   4.789
13965TIP3   OH292362   1.198   3.603   4.780
13965TIP3    H192363   1.119   3.651   4.754
13965TIP3    H292364   1.270   3.666   4.767
13966TIP3   OH292365   1.439   3.748   4.778
13966TIP3    H192366   1.461   3.840   4.766
13966TIP3    H292367   1.484   3.703   4.706
13967TIP3   OH292368   0.239   3.662   4.531
13967TIP3    H192369   0.207   3.646   4.620
13967TIP3    H292370   0.324   3.617   4.527
13968TIP3   OH292371   0.473   3.532   4.475
13968TIP3    H192372   0.458   3.437   4.482
13968TIP3    H292373   0.565   3.543   4.497
13969TIP3   OH292374   0.748   3.548   4.530
13969TIP3    H192375   0.811   3.505   4.473
13969TIP3    H292376   0.776   3.525   4.619
13970TIP3   OH292377   1.002   2.117   4.390
13970TIP3    H192378   0.943   2.056   4.435
13970TIP3    H292379   1.086   2.071   4.388
13971TIP3   OH292380   1.530   1.971   4.401
13971TIP3    H192381   1.601   2.009   4.350
13971TIP3    H292382   1.517   2.032   4.473
13972TIP3   OH292383   1.738   2.058   4.247
13972TIP3    H192384   1.802   1.991   4.225
13972TIP3    H292385   1.790   2.136   4.265
13973TIP3   OH292386   0.254   1.992   4.167
13973TIP3    H192387   0.166   1.956   4.154
13973TIP3    H292388   0.312   1.916   4.167
13974TIP3   OH292389   0.191   1.965   3.781
13974TIP3    H192390   0.249   2.036   3.754
13974TIP3    H292391   0.127   2.007   3.838
13975TIP3   OH292392   0.769   1.950   4.207
13975TIP3    H192393   0.843   2.002   4.177
13975TIP3    H292394   0.782   1.944   4.302
13976TIP3   OH292395   1.234   1.977   4.383
13976TIP3    H192396   1.328   1.978   4.367
13976TIP3    H292397   1.214   1.886   4.403
13977TIP3   OH292398   1.426   2.015   3.927
13977TIP3    H192399   1.353   2.075   3.939
13977TIP3    H292400   1.388   1.928   3.941
13978TIP3   OH292401   0.149   3.562   3.870
13978TIP3    H192402   0.204   3.556   3.791
13978TIP3    H292403   0.135   3.656   3.881
13979TIP3   OH292404   0.345   2.179   3.695
13979TIP3    H192405   0.376   2.189   3.605
13979TIP3    H292406   0.423   2.190   3.749
13980TIP3   OH292407   0.814   2.169   3.919
13980TIP3    H192408   0.869   2.122   3.982
13980TIP3    H292409   0.838   2.261   3.931
13981TIP3   OH292410   1.038   3.673   3.655
13981TIP3    H192411   1.130   3.666   3.680
13981TIP3    H292412   1.040   3.682   3.560
13982TIP3   OH292413   1.688   3.668   3.993
13982TIP3    H192414   1.671   3.580   3.960
13982TIP3    H292415   1.683   3.724   3.916
13983TIP3   OH292416   0.272   2.073   5.109
13983TIP3    H192417   0.217   2.044   5.182
13983TIP3    H292418   0.344   2.121   5.151
13984TIP3   OH292419   0.293   3.618   3.642
13984TIP3    H192420   0.254   3.701   3.669
13984TIP3    H292421   0.365   3.642   3.584
13985TIP3   OH292422   3.087   2.938   4.174
13985TIP3    H192423   3.074   3.032   4.162
13985TIP3    H292424   3.021   2.897   4.119
13986TIP3   OH292425   2.964   2.834   4.564
13986TIP3    H192426   2.980   2.792   4.648
13986TIP3    H292427   2.914   2.769   4.514
13987TIP3   OH292428   2.187   2.729   4.726
13987TIP3    H192429   2.183   2.647   4.775
13987TIP3    H292430   2.232   2.789   4.785
13988TIP3   OH292431   3.352   3.136   4.393
13988TIP3    H192432   3.305   3.066   4.439
13988TIP3    H292433   3.369   3.202   4.461
13989TIP3   OH292434   2.349   3.235   4.496
13989TIP3    H192435   2.319   3.144   4.487
13989TIP3    H292436   2.444   3.228   4.509
13990TIP3   OH292437   1.936   2.476   4.067
13990TIP3    H192438   1.973   2.562   4.050
13990TIP3    H292439   1.863   2.468   4.006
13991TIP3   OH292440   2.016   2.805   4.316
13991TIP3    H192441   1.963   2.728   4.293
13991TIP3    H292442   2.049   2.837   4.233
13992TIP3   OH292443   3.098   3.632   4.429
13992TIP3    H192444   3.132   3.576   4.359
13992TIP3    H292445   3.069   3.571   4.497
13993TIP3   OH292446   2.837   3.086   4.593
13993TIP3    H192447   2.873   3.004   4.559
13993TIP3    H292448   2.906   3.120   4.650
13994TIP3   OH292449   3.669   2.244   4.668
13994TIP3    H192450   3.684   2.290   4.751
13994TIP3    H292451   3.699   2.305   4.601
13995TIP3   OH292452   3.100   2.514   4.584
13995TIP3    H192453   3.109   2.420   4.598
13995TIP3    H292454   3.101   2.524   4.489
13996TIP3   OH292455   2.479   2.310   4.317
13996TIP3    H192456   2.476   2.395   4.273
13996TIP3    H292457   2.422   2.254   4.263
13997TIP3   OH292458   3.251   2.344   4.163
13997TIP3    H192459   3.285   2.309   4.245
13997TIP3    H292460   3.328   2.380   4.118
13998TIP3   OH292461   2.142   2.568   4.448
13998TIP3    H192462   2.202   2.509   4.493
13998TIP3    H292463   2.144   2.539   4.357
13999TIP3   OH292464   2.589   2.709   4.355
13999TIP3    H192465   2.673   2.672   4.379
13999TIP3    H292466   2.549   2.644   4.297
14000TIP3   OH292467   3.706   2.382   4.903
14000TIP3    H192468   3.656   2.457   4.870
14000TIP3    H292469   3.652   2.346   4.974
14001TIP3   OH292470   2.328   2.214   4.757
14001TIP3    H192471   2.308   2.275   4.687
14001TIP3    H292472   2.252   2.218   4.815
14002TIP3   OH292473   3.055   3.194   4.067
14002TIP3    H192474   3.037   3.189   3.973
14002TIP3    H292475   3.010   3.273   4.096
14003TIP3   OH292476   2.611   2.996   4.725
14003TIP3    H192477   2.561   3.065   4.768
14003TIP3    H292478   2.682   3.042   4.680
14004TIP3   OH292479   3.323   2.280   4.418
14004TIP3    H192480   3.251   2.256   4.476
14004TIP3    H292481   3.376   2.342   4.469
14005TIP3   OH292482   2.325   2.382   4.539
14005TIP3    H192483   2.380   2.438   4.593
14005TIP3    H292484   2.383   2.351   4.469
14006TIP3   OH292485   2.466   3.191   4.862
14006TIP3    H192486   2.460   3.285   4.845
14006TIP3    H292487   2.379   3.167   4.893
14007TIP3   OH292488   2.009   3.203   3.918
14007TIP3    H192489   1.998   3.250   3.835
14007TIP3    H292490   2.033   3.271   3.981
14008TIP3   OH292491   3.377   3.337   4.588
14008TIP3    H192492   3.282   3.344   4.599
14008TIP3    H292493   3.406   3.425   4.565
14009TIP3   OH292494   3.418   2.109   4.687
14009TIP3    H192495   3.361   2.183   4.703
14009TIP3    H292496   3.506   2.147   4.682
14010TIP3   OH292497   2.681   1.917   4.498
14010TIP3    H192498   2.661   1.823   4.504
14010TIP3    H292499   2.600   1.960   4.525
14011TIP3   OH292500   3.224   3.513   4.203
14011TIP3    H192501   3.262   3.427   4.187
14011TIP3    H292502   3.299   3.570   4.219
14012TIP3   OH292503   3.314   3.260   4.149
14012TIP3    H192504   3.231   3.224   4.120
14012TIP3    H292505   3.337   3.211   4.228
14013TIP3   OH292506   3.479   3.109   4.969
14013TIP3    H192507   3.482   3.057   4.888
14013TIP3    H292508   3.488   3.199   4.940
14014TIP3   OH292509   2.947   2.836   3.954
14014TIP3    H192510   2.878   2.899   3.932
14014TIP3    H292511   3.009   2.842   3.882
14015TIP3   OH292512   2.980   2.658   3.626
14015TIP3    H192513   3.037   2.707   3.685
14015TIP3    H292514   3.037   2.593   3.586
14016TIP3   OH292515   3.662   2.792   4.775
14016TIP3    H192516   3.590   2.856   4.769
14016TIP3    H292517   3.726   2.824   4.712
14017TIP3   OH292518   3.304   2.850   4.034
14017TIP3    H192519   3.239   2.881   4.096
14017TIP3    H292520   3.371   2.808   4.088
14018TIP3   OH292521   3.263   2.638   4.931
14018TIP3    H192522   3.279   2.704   4.999
14018TIP3    H292523   3.186   2.669   4.885
14019TIP3   OH292524   2.453   2.914   4.214
14019TIP3    H192525   2.421   2.881   4.130
14019TIP3    H292526   2.508   2.843   4.248
14020TIP3   OH292527   2.627   3.248   4.484
14020TIP3    H192528   2.632   3.260   4.389
14020TIP3    H292529   2.707   3.199   4.506
14021TIP3   OH292530   2.477   2.795   4.593
14021TIP3    H192531   2.530   2.769   4.518
14021TIP3    H292532   2.531   2.858   4.640
14022TIP3   OH292533   3.114   3.362   4.645
14022TIP3    H192534   3.092   3.438   4.699
14022TIP3    H292535   3.083   3.286   4.695
14023TIP3   OH292536   2.599   3.204   5.107
14023TIP3    H192537   2.537   3.270   5.137
14023TIP3    H292538   2.567   3.180   5.020
14024TIP3   OH292539   3.183   2.807   3.793
14024TIP3    H192540   3.221   2.821   3.880
14024TIP3    H292541   3.223   2.875   3.738
14025TIP3   OH292542   2.286   2.849   4.958
14025TIP3    H192543   2.290   2.944   4.966
14025TIP3    H292544   2.196   2.826   4.981
14026TIP3   OH292545   2.964   3.448   4.129
14026TIP3    H192546   3.047   3.477   4.167
14026TIP3    H292547   2.924   3.528   4.094
14027TIP3   OH292548   2.397   3.393   5.127
14027TIP3    H192549   2.415   3.427   5.039
14027TIP3    H292550   2.373   3.470   5.178
14028TIP3   OH292551   3.524   1.953   3.749
14028TIP3    H192552   3.445   1.972   3.800
14028TIP3    H292553   3.559   2.039   3.725
14029TIP3   OH292554   2.350   2.837   3.963
14029TIP3    H192555   2.321   2.918   3.920
14029TIP3    H292556   2.270   2.789   3.981
14030TIP3   OH292557   3.635   3.398   3.658
14030TIP3    H192558   3.665   3.489   3.653
14030TIP3    H292559   3.715   3.347   3.653
14031TIP3   OH292560   1.974   3.074   4.879
14031TIP3    H192561   1.927   3.090   4.797
14031TIP3    H292562   1.982   2.979   4.884
14032TIP3   OH292563   1.919   3.386   4.589
14032TIP3    H192564   2.000   3.396   4.639
14032TIP3    H292565   1.872   3.469   4.602
14033TIP3   OH292566   3.849   3.433   5.054
14033TIP3    H192567   3.910   3.471   5.118
14033TIP3    H292568   3.779   3.395   5.107
14034TIP3   OH292569   2.823   3.370   5.027
14034TIP3    H192570   2.829   3.435   5.097
14034TIP3    H292571   2.745   3.320   5.048
14035TIP3   OH292572   2.916   3.713   4.021
14035TIP3    H192573   2.842   3.725   3.962
14035TIP3    H292574   2.916   3.791   4.077
14036TIP3   OH292575   2.266   3.597   4.185
14036TIP3    H192576   2.287   3.566   4.273
14036TIP3    H292577   2.211   3.528   4.149
14037TIP3   OH292578   3.207   3.653   3.681
14037TIP3    H192579   3.263   3.579   3.657
14037TIP3    H292580   3.209   3.654   3.777
14038TIP3   OH292581   3.183   3.661   3.962
14038TIP3    H192582   3.090   3.683   3.973
14038TIP3    H292583   3.201   3.597   4.031
14039TIP3   OH292584   2.227   3.119   4.983
14039TIP3    H192585   2.219   3.154   5.071
14039TIP3    H292586   2.139   3.124   4.947
14040TIP3   OH292587   2.434   2.024   4.581
14040TIP3    H192588   2.357   2.016   4.524
14040TIP3    H292589   2.410   2.093   4.643
14041TIP3   OH292590   2.924   2.012   4.949
14041TIP3    H192591   2.967   1.953   5.011
14041TIP3    H292592   2.831   1.999   4.965
14042TIP3   OH292593   3.224   2.381   5.031
14042TIP3    H192594   3.174   2.401   5.109
14042TIP3    H292595   3.238   2.466   4.989
14043TIP3   OH292596   2.868   2.202   3.595
14043TIP3    H192597   2.816   2.219   3.674
14043TIP3    H292598   2.908   2.116   3.610
14044TIP3   OH292599   2.446   2.548   4.721
14044TIP3    H192600   2.384   2.548   4.794
14044TIP3    H292601   2.447   2.639   4.692
14045TIP3   OH292602   2.440   2.547   4.183
14045TIP3    H192603   2.345   2.541   4.186
14045TIP3    H292604   2.463   2.532   4.092
14046TIP3   OH292605   2.991   2.584   4.056
14046TIP3    H192606   2.966   2.672   4.028
14046TIP3    H292607   3.064   2.560   3.999
14047TIP3   OH292608   3.096   2.528   4.310
14047TIP3    H192609   3.046   2.568   4.239
14047TIP3    H292610   3.141   2.454   4.269
14048TIP3   OH292611   2.229   2.517   4.903
14048TIP3    H192612   2.231   2.545   4.995
14048TIP3    H292613   2.191   2.430   4.906
14049TIP3   OH292614   1.893   2.279   4.277
14049TIP3    H192615   1.960   2.285   4.345
14049TIP3    H292616   1.916   2.346   4.214
14050TIP3   OH292617   1.968   2.337   3.777
14050TIP3    H192618   2.049   2.340   3.726
14050TIP3    H292619   1.948   2.428   3.796
14051TIP3   OH292620   3.011   2.671   4.787
14051TIP3    H192621   3.049   2.619   4.717
14051TIP3    H292622   2.962   2.609   4.840
14052TIP3   OH292623   2.754   2.265   4.263
14052TIP3    H192624   2.665   2.274   4.295
14052TIP3    H292625   2.803   2.229   4.337
14053TIP3   OH292626   2.178   2.444   4.203
14053TIP3    H192627   2.105   2.458   4.144
14053TIP3    H292628   2.212   2.358   4.180
14054TIP3   OH292629   2.514   2.468   3.928
14054TIP3    H192630   2.608   2.465   3.949
14054TIP3    H292631   2.510   2.512   3.843
14055TIP3   OH292632   3.109   2.238   4.592
14055TIP3    H192633   3.085   2.231   4.684
14055TIP3    H292634   3.038   2.193   4.546
14056TIP3   OH292635   2.499   2.564   3.669
14056TIP3    H192636   2.429   2.572   3.605
14056TIP3    H292637   2.577   2.594   3.623
14057TIP3   OH292638   2.818   2.598   4.469
14057TIP3    H192639   2.892   2.546   4.436
14057TIP3    H292640   2.784   2.548   4.542
14058TIP3   OH292641   2.295   2.199   4.134
14058TIP3    H192642   2.245   2.119   4.153
14058TIP3    H292643   2.327   2.186   4.045
14059TIP3   OH292644   2.709   2.464   4.690
14059TIP3    H192645   2.624   2.503   4.709
14059TIP3    H292646   2.760   2.478   4.769
14060TIP3   OH292647   2.767   3.035   3.874
14060TIP3    H192648   2.703   2.974   3.837
14060TIP3    H292649   2.725   3.066   3.955
14061TIP3   OH292650   3.471   2.985   4.720
14061TIP3    H192651   3.532   3.044   4.677
14061TIP3    H292652   3.400   2.974   4.656
14062TIP3   OH292653   3.135   2.303   3.754
14062TIP3    H192654   3.070   2.318   3.684
14062TIP3    H292655   3.152   2.391   3.789
14063TIP3   OH292656   2.914   3.096   5.112
14063TIP3    H192657   3.000   3.054   5.105
14063TIP3    H292658   2.924   3.179   5.067
14064TIP3   OH292659   3.209   2.537   3.881
14064TIP3    H192660   3.295   2.519   3.919
14064TIP3    H292661   3.217   2.625   3.843
14065TIP3   OH292662   2.306   2.951   4.447
14065TIP3    H192663   2.344   2.956   4.359
14065TIP3    H292664   2.376   2.913   4.500
14066TIP3   OH292665   2.986   3.179   3.784
14066TIP3    H192666   2.953   3.269   3.790
14066TIP3    H292667   2.912   3.124   3.808
14067TIP3   OH292668   2.011   2.813   4.994
14067TIP3    H192669   1.993   2.802   5.087
14067TIP3    H292670   1.933   2.779   4.950
14068TIP3   OH292671   3.100   3.318   5.021
14068TIP3    H192672   3.013   3.358   5.018
14068TIP3    H292673   3.161   3.391   5.017
14069TIP3   OH292674   3.661   2.550   3.791
14069TIP3    H192675   3.624   2.530   3.705
14069TIP3    H292676   3.683   2.643   3.786
14070TIP3   OH292677   3.715   3.075   5.131
14070TIP3    H192678   3.629   3.105   5.101
14070TIP3    H292679   3.772   3.084   5.054
14071TIP3   OH292680   3.523   3.419   3.914
14071TIP3    H192681   3.470   3.345   3.944
14071TIP3    H292682   3.549   3.395   3.825
14072TIP3   OH292683   3.240   2.918   4.541
14072TIP3    H192684   3.146   2.902   4.533
14072TIP3    H292685   3.281   2.844   4.496
14073TIP3   OH292686   2.545   3.336   4.227
14073TIP3    H192687   2.564   3.420   4.185
14073TIP3    H292688   2.455   3.345   4.259
14074TIP3   OH292689   2.077   2.906   3.649
14074TIP3    H192690   2.134   2.932   3.721
14074TIP3    H292691   2.006   2.858   3.691
14075TIP3   OH292692   2.623   3.105   4.095
14075TIP3    H192693   2.605   3.190   4.135
14075TIP3    H292694   2.564   3.044   4.139
14076TIP3   OH292695   2.732   3.503   4.793
14076TIP3    H192696   2.781   3.584   4.777
14076TIP3    H292697   2.779   3.459   4.863
14077TIP3   OH292698   2.532   3.590   4.109
14077TIP3    H192699   2.438   3.603   4.125
14077TIP3    H292700   2.573   3.671   4.141
14078TIP3   OH292701   3.075   3.101   4.754
14078TIP3    H192702   3.106   3.085   4.843
14078TIP3    H292703   3.130   3.046   4.699
14079TIP3   OH292704   3.251   3.197   3.681
14079TIP3    H192705   3.305   3.143   3.738
14079TIP3    H292706   3.163   3.193   3.720
14080TIP3   OH292707   3.271   3.527   4.953
14080TIP3    H192708   3.204   3.549   4.888
14080TIP3    H292709   3.332   3.601   4.950
14081TIP3   OH292710   3.728   3.658   3.687
14081TIP3    H192711   3.801   3.720   3.686
14081TIP3    H292712   3.650   3.712   3.695
14082TIP3   OH292713   2.100   2.268   4.917
14082TIP3    H192714   2.007   2.290   4.909
14082TIP3    H292715   2.102   2.193   4.976
14083TIP3   OH292716   3.402   3.028   3.844
14083TIP3    H192717   3.367   2.980   3.919
14083TIP3    H292718   3.496   3.036   3.863
14084TIP3   OH292719   2.099   3.518   4.780
14084TIP3    H192720   2.082   3.463   4.856
14084TIP3    H292721   2.124   3.603   4.817
14085TIP3   OH292722   2.548   3.273   3.722
14085TIP3    H192723   2.595   3.205   3.771
14085TIP3    H292724   2.567   3.354   3.770
14086TIP3   OH292725   2.228   3.049   3.836
14086TIP3    H192726   2.155   3.086   3.885
14086TIP3    H292727   2.253   3.118   3.774
14087TIP3   OH292728   3.044   2.244   4.861
14087TIP3    H192729   3.113   2.268   4.923
14087TIP3    H292730   3.008   2.162   4.895
14088TIP3   OH292731   3.102   2.178   3.997
14088TIP3    H192732   3.106   2.222   3.913
14088TIP3    H292733   3.144   2.238   4.059
14089TIP3   OH292734   2.870   3.422   3.806
14089TIP3    H192735   2.782   3.440   3.838
14089TIP3    H292736   2.901   3.507   3.773
14090TIP3   OH292737   2.772   2.416   4.027
14090TIP3    H192738   2.845   2.477   4.037
14090TIP3    H292739   2.765   2.374   4.113
14091TIP3   OH292740   2.880   2.463   4.911
14091TIP3    H192741   2.863   2.454   5.005
14091TIP3    H292742   2.931   2.386   4.888
14092TIP3   OH292743   2.856   2.079   4.080
14092TIP3    H192744   2.826   2.146   4.141
14092TIP3    H292745   2.945   2.104   4.058
14093TIP3   OH292746   2.610   3.505   3.860
14093TIP3    H192747   2.617   3.590   3.816
14093TIP3    H292748   2.582   3.527   3.949
14094TIP3   OH292749   2.461   2.224   3.801
14094TIP3    H192750   2.459   2.309   3.844
14094TIP3    H292751   2.552   2.196   3.807
14095TIP3   OH292752   3.497   2.322   5.075
14095TIP3    H192753   3.404   2.327   5.054
14095TIP3    H292754   3.507   2.238   5.120
14096TIP3   OH292755   3.324   2.671   4.411
14096TIP3    H192756   3.241   2.634   4.382
14096TIP3    H292757   3.361   2.606   4.471
14097TIP3   OH292758   2.282   3.243   3.639
14097TIP3    H192759   2.371   3.260   3.671
14097TIP3    H292760   2.292   3.234   3.544
14098TIP3   OH292761   3.458   3.598   4.557
14098TIP3    H192762   3.441   3.683   4.515
14098TIP3    H292763   3.549   3.603   4.585
14099TIP3   OH292764   2.185   2.005   4.455
14099TIP3    H192765   2.179   1.996   4.360
14099TIP3    H292766   2.156   1.921   4.489
14100TIP3   OH292767   2.071   3.419   4.085
14100TIP3    H192768   2.021   3.444   4.163
14100TIP3    H292769   2.046   3.483   4.019
14101TIP3   OH292770   3.357   3.439   3.598
14101TIP3    H192771   3.320   3.355   3.623
14101TIP3    H292772   3.452   3.426   3.600
14102TIP3   OH292773   3.207   3.069   5.014
14102TIP3    H192774   3.302   3.079   5.004
14102TIP3    H292775   3.174   3.158   5.028
14103TIP3   OH292776   2.582   2.852   3.792
14103TIP3    H192777   2.506   2.835   3.847
14103TIP3    H292778   2.588   2.775   3.735
14104TIP3   OH292779   2.510   2.685   5.031
14104TIP3    H192780   2.434   2.739   5.009
14104TIP3    H292781   2.575   2.708   4.965
14105TIP3   OH292782   2.712   2.681   3.549
14105TIP3    H192783   2.724   2.691   3.455
14105TIP3    H292784   2.801   2.677   3.584
14106TIP3   OH292785   2.492   2.413   5.104
14106TIP3    H192786   2.529   2.361   5.032
14106TIP3    H292787   2.499   2.503   5.073
14107TIP3   OH292788   2.573   2.261   4.874
14107TIP3    H192789   2.624   2.302   4.804
14107TIP3    H292790   2.487   2.245   4.836
14108TIP3   OH292791   2.702   2.769   4.854
14108TIP3    H192792   2.797   2.768   4.845
14108TIP3    H292793   2.674   2.851   4.813
14109TIP3   OH292794   2.647   1.993   4.933
14109TIP3    H192795   2.619   2.084   4.923
14109TIP3    H292796   2.573   1.941   4.902
14110TIP3   OH292797   2.670   3.737   3.722
14110TIP3    H192798   2.763   3.725   3.701
14110TIP3    H292799   2.657   3.831   3.723
14111TIP3   OH292800   2.003   3.269   3.644
14111TIP3    H192801   2.098   3.280   3.644
14111TIP3    H292802   1.989   3.186   3.598
14112TIP3   OH292803   1.896   3.723   4.167
14112TIP3    H192804   1.836   3.695   4.097
14112TIP3    H292805   1.909   3.645   4.220
14113TIP3   OH292806   1.967   3.511   4.330
14113TIP3    H192807   1.934   3.443   4.388
14113TIP3    H292808   2.019   3.568   4.386
14114TIP3   OH292809   3.709   3.629   4.655
14114TIP3    H192810   3.693   3.604   4.746
14114TIP3    H292811   3.754   3.713   4.661
14115TIP3   OH292812   3.648   3.560   4.913
14115TIP3    H192813   3.590   3.485   4.901
14115TIP3    H292814   3.720   3.526   4.966
14116TIP3   OH292815   3.674   3.005   3.924
14116TIP3    H192816   3.739   3.075   3.929
14116TIP3    H292817   3.693   2.948   3.998
14117TIP3   OH292818   3.733   2.812   4.119
14117TIP3    H192819   3.649   2.782   4.154
14117TIP3    H292820   3.783   2.839   4.196
14118TIP3   OH292821   3.708   3.120   4.654
14118TIP3    H192822   3.765   3.058   4.609
14118TIP3    H292823   3.734   3.205   4.619
14119TIP3   OH292824   3.468   3.357   4.852
14119TIP3    H192825   3.393   3.405   4.888
14119TIP3    H292826   3.446   3.344   4.760
14120TIP3   OH292827   3.704   2.814   3.731
14120TIP3    H192828   3.652   2.844   3.657
14120TIP3    H292829   3.690   2.881   3.798
14121TIP3   OH292830   3.484   2.697   4.184
14121TIP3    H192831   3.479   2.607   4.151
14121TIP3    H292832   3.437   2.694   4.268
14122TIP3   OH292833   1.931   2.906   4.557
14122TIP3    H192834   1.925   2.884   4.464
14122TIP3    H292835   1.889   2.991   4.565
14123TIP3   OH292836   3.575   2.859   5.237
14123TIP3    H192837   3.605   2.771   5.216
14123TIP3    H292838   3.639   2.917   5.196
14124TIP3   OH292839   3.384   2.341   3.615
14124TIP3    H192840   3.462   2.287   3.626
14124TIP3    H292841   3.318   2.299   3.670
14125TIP3   OH292842   3.466   2.452   3.995
14125TIP3    H192843   3.492   2.360   4.000
14125TIP3    H292844   3.530   2.492   3.936
14126TIP3   OH292845   3.456   2.476   4.563
14126TIP3    H192846   3.549   2.481   4.541
14126TIP3    H292847   3.453   2.497   4.656
14127TIP3   OH292848   3.510   2.567   4.820
14127TIP3    H192849   3.428   2.590   4.863
14127TIP3    H292850   3.557   2.650   4.813
14128TIP3   OH292851   3.520   2.177   4.012
14128TIP3    H192852   3.540   2.141   4.099
14128TIP3    H292853   3.450   2.121   3.979
14129TIP3   OH292854   2.071   2.257   4.494
14129TIP3    H192855   2.096   2.164   4.488
14129TIP3    H292856   2.154   2.303   4.509
14130TIP3   OH292857   1.876   2.523   4.558
14130TIP3    H192858   1.959   2.517   4.511
14130TIP3    H292859   1.901   2.557   4.645
14131TIP3   OH292860   3.621   2.185   3.640
14131TIP3    H192861   3.652   2.183   3.550
14131TIP3    H292862   3.691   2.229   3.688
14132TIP3   OH292863   1.908   2.116   3.930
14132TIP3    H192864   1.820   2.131   3.963
14132TIP3    H292865   1.935   2.201   3.894
14133TIP3   OH292866   3.448   3.674   4.229
14133TIP3    H192867   3.493   3.674   4.145
14133TIP3    H292868   3.506   3.627   4.288
14134TIP3   OH292869   1.912   1.986   4.759
14134TIP3    H192870   1.856   1.979   4.836
14134TIP3    H292871   1.881   2.064   4.713
14135TIP3   OH292872   2.470   3.473   4.869
14135TIP3    H192873   2.435   3.560   4.851
14135TIP3    H292874   2.562   3.478   4.843
14136TIP3   OH292875   2.863   3.549   5.229
14136TIP3    H192876   2.880   3.540   5.322
14136TIP3    H292877   2.929   3.612   5.199
14137TIP3   OH292878   3.065   3.718   5.132
14137TIP3    H192879   3.133   3.708   5.066
14137TIP3    H292880   3.111   3.705   5.215
14138TIP3   OH292881   3.628   1.938   4.971
14138TIP3    H192882   3.582   1.938   5.055
14138TIP3    H292883   3.634   1.846   4.947
14139TIP3   OH292884   2.154   3.774   4.877
14139TIP3    H192885   2.086   3.812   4.822
14139TIP3    H292886   2.154   3.828   4.956
14140TIP3   OH292887   2.423   3.743   4.814
14140TIP3    H192888   2.332   3.757   4.841
14140TIP3    H292889   2.430   3.792   4.732
14141TIP3   OH292890   2.857   3.739   4.724
14141TIP3    H192891   2.806   3.777   4.652
14141TIP3    H292892   2.871   3.811   4.785
14142TIP3   OH292893   3.093   3.609   4.765
14142TIP3    H192894   3.011   3.655   4.747
14142TIP3    H292895   3.161   3.675   4.751
14143TIP3   OH292896   3.338   3.746   4.779
14143TIP3    H192897   3.369   3.836   4.774
14143TIP3    H292898   3.386   3.700   4.711
14144TIP3   OH292899   2.126   3.637   4.520
14144TIP3    H192900   2.110   3.607   4.609
14144TIP3    H292901   2.208   3.594   4.495
14145TIP3   OH292902   2.347   3.499   4.432
14145TIP3    H192903   2.334   3.409   4.460
14145TIP3    H292904   2.431   3.525   4.469
14146TIP3   OH292905   2.601   3.523   4.545
14146TIP3    H192906   2.616   3.433   4.516
14146TIP3    H292907   2.639   3.527   4.633
14147TIP3   OH292908   2.897   2.107   4.445
14147TIP3    H192909   2.832   2.041   4.468
14147TIP3    H292910   2.967   2.058   4.402
14148TIP3   OH292911   3.412   1.961   4.402
14148TIP3    H192912   3.482   2.009   4.358
14148TIP3    H292913   3.378   2.023   4.467
14149TIP3   OH292914   3.612   2.062   4.247
14149TIP3    H192915   3.677   1.993   4.231
14149TIP3    H292916   3.664   2.141   4.259
14150TIP3   OH292917   2.163   1.960   4.183
14150TIP3    H192918   2.070   1.942   4.167
14150TIP3    H292919   2.206   1.875   4.173
14151TIP3   OH292920   2.052   1.955   3.758
14151TIP3    H192921   2.118   2.016   3.726
14151TIP3    H292922   2.002   2.006   3.822
14152TIP3   OH292923   2.659   1.914   4.209
14152TIP3    H192924   2.725   1.971   4.170
14152TIP3    H292925   2.674   1.921   4.304
14153TIP3   OH292926   3.098   1.958   4.338
14153TIP3    H192927   3.186   1.960   4.300
14153TIP3    H292928   3.093   1.874   4.382
14154TIP3   OH292929   3.314   2.013   3.920
14154TIP3    H192930   3.240   2.068   3.945
14154TIP3    H292931   3.282   1.923   3.929
14155TIP3   OH292932   2.008   3.595   3.888
14155TIP3    H192933   1.933   3.586   3.829
14155TIP3    H292934   2.041   3.683   3.872
14156TIP3   OH292935   2.240   2.134   3.659
14156TIP3    H192936   2.269   2.158   3.571
14156TIP3    H292937   2.314   2.158   3.715
14157TIP3   OH292938   2.744   2.208   3.847
14157TIP3    H192939   2.770   2.140   3.910
14157TIP3    H292940   2.753   2.290   3.896
14158TIP3   OH292941   2.930   3.661   3.667
14158TIP3    H192942   3.025   3.674   3.670
14158TIP3    H292943   2.917   3.600   3.594
14159TIP3   OH292944   3.590   3.669   3.995
14159TIP3    H192945   3.571   3.581   3.963
14159TIP3    H292946   3.576   3.726   3.919
14160TIP3   OH292947   2.162   2.034   5.086
14160TIP3    H192948   2.171   1.955   5.139
14160TIP3    H292949   2.220   2.098   5.128
14161TIP3   OH292950   2.255   3.696   3.605
14161TIP3    H192951   2.169   3.699   3.646
14161TIP3    H292952   2.289   3.609   3.627
14162TIP3   OH292953   4.979   2.935   4.167
14162TIP3    H192954   4.965   3.029   4.158
14162TIP3    H292955   4.909   2.895   4.116
14163TIP3   OH292956   4.854   2.831   4.552
14163TIP3    H192957   4.877   2.792   4.637
14163TIP3    H292958   4.805   2.763   4.507
14164TIP3   OH292959   4.069   2.740   4.694
14164TIP3    H192960   4.063   2.664   4.753
14164TIP3    H292961   4.126   2.801   4.740
14165TIP3   OH292962   5.243   3.148   4.386
14165TIP3    H192963   5.202   3.074   4.432
14165TIP3    H292964   5.256   3.214   4.454
14166TIP3   OH292965   4.228   3.228   4.475
14166TIP3    H192966   4.192   3.139   4.468
14166TIP3    H292967   4.319   3.214   4.501
14167TIP3   OH292968   3.868   2.582   4.024
14167TIP3    H192969   3.833   2.665   4.058
14167TIP3    H292970   3.802   2.553   3.961
14168TIP3   OH292971   3.913   2.854   4.331
14168TIP3    H192972   3.929   2.761   4.349
14168TIP3    H292973   3.997   2.897   4.348
14169TIP3   OH292974   4.982   3.613   4.428
14169TIP3    H192975   5.016   3.554   4.360
14169TIP3    H292976   4.956   3.555   4.499
14170TIP3   OH292977   4.711   3.076   4.578
14170TIP3    H192978   4.752   2.996   4.546
14170TIP3    H292979   4.776   3.114   4.638
14171TIP3   OH292980   5.562   2.238   4.666
14171TIP3    H192981   5.580   2.288   4.746
14171TIP3    H292982   5.591   2.295   4.595
14172TIP3   OH292983   4.985   2.496   4.583
14172TIP3    H192984   5.004   2.403   4.594
14172TIP3    H292985   4.977   2.508   4.488
14173TIP3   OH292986   4.378   2.316   4.351
14173TIP3    H192987   4.380   2.393   4.294
14173TIP3    H292988   4.323   2.253   4.305
14174TIP3   OH292989   5.130   2.348   4.156
14174TIP3    H192990   5.174   2.317   4.236
14174TIP3    H292991   5.199   2.389   4.105
14175TIP3   OH292992   3.943   2.588   4.394
14175TIP3    H192993   4.000   2.549   4.460
14175TIP3    H292994   3.969   2.546   4.312
14176TIP3   OH292995   4.488   2.711   4.343
14176TIP3    H192996   4.573   2.675   4.369
14176TIP3    H292997   4.449   2.642   4.288
14177TIP3   OH292998   5.597   2.375   4.904
14177TIP3    H192999   5.545   2.452   4.878
14177TIP3    H293000   5.538   2.326   4.962
14178TIP3   OH293001   4.208   2.266   4.743
14178TIP3    H193002   4.148   2.318   4.690
14178TIP3    H293003   4.156   2.240   4.819
14179TIP3   OH293004   4.946   3.190   4.059
14179TIP3    H193005   4.926   3.186   3.966
14179TIP3    H293006   4.897   3.266   4.090
14180TIP3   OH293007   4.483   2.992   4.717
14180TIP3    H193008   4.433   3.063   4.758
14180TIP3    H293009   4.555   3.037   4.673
14181TIP3   OH293010   5.239   2.298   4.399
14181TIP3    H193011   5.167   2.266   4.453
14181TIP3    H293012   5.288   2.356   4.458
14182TIP3   OH293013   4.149   2.431   4.508
14182TIP3    H193014   4.193   2.496   4.563
14182TIP3    H293015   4.185   2.445   4.421
14183TIP3   OH293016   4.335   3.195   4.839
14183TIP3    H193017   4.327   3.290   4.828
14183TIP3    H293018   4.253   3.168   4.881
14184TIP3   OH293019   3.883   3.193   3.918
14184TIP3    H193020   3.874   3.241   3.836
14184TIP3    H293021   3.905   3.261   3.983
14185TIP3   OH293022   5.259   3.358   4.580
14185TIP3    H193023   5.165   3.357   4.594
14185TIP3    H293024   5.279   3.449   4.559
14186TIP3   OH293025   5.316   2.129   4.772
14186TIP3    H193026   5.240   2.175   4.735
14186TIP3    H293027   5.390   2.160   4.720
14187TIP3   OH293028   4.586   1.915   4.478
14187TIP3    H193029   4.556   1.825   4.494
14187TIP3    H293030   4.513   1.969   4.508
14188TIP3   OH293031   5.101   3.489   4.205
14188TIP3    H193032   5.142   3.405   4.184
14188TIP3    H293033   5.175   3.549   4.216
14189TIP3   OH293034   5.212   3.247   4.128
14189TIP3    H193035   5.125   3.213   4.105
14189TIP3    H293036   5.232   3.206   4.213
14190TIP3   OH293037   5.393   3.121   4.945
14190TIP3    H193038   5.374   3.071   4.866
14190TIP3    H293039   5.385   3.213   4.918
14191TIP3   OH293040   4.829   2.837   3.953
14191TIP3    H193041   4.761   2.902   3.934
14191TIP3    H293042   4.888   2.842   3.877
14192TIP3   OH293043   4.862   2.654   3.640
14192TIP3    H193044   4.924   2.706   3.691
14192TIP3    H293045   4.917   2.590   3.594
14193TIP3   OH293046   5.554   2.810   4.785
14193TIP3    H193047   5.477   2.865   4.774
14193TIP3    H293048   5.613   2.836   4.714
14194TIP3   OH293049   5.197   2.855   4.026
14194TIP3    H193050   5.130   2.885   4.087
14194TIP3    H293051   5.261   2.808   4.081
14195TIP3   OH293052   5.171   2.682   4.919
14195TIP3    H193053   5.175   2.758   4.977
14195TIP3    H293054   5.094   2.698   4.864
14196TIP3   OH293055   4.345   2.911   4.212
14196TIP3    H193056   4.318   2.875   4.127
14196TIP3    H293057   4.403   2.844   4.248
14197TIP3   OH293058   4.510   3.252   4.484
14197TIP3    H193059   4.514   3.262   4.389
14197TIP3    H293060   4.585   3.196   4.505
14198TIP3   OH293061   4.358   2.792   4.575
14198TIP3    H193062   4.413   2.778   4.498
14198TIP3    H293063   4.402   2.862   4.624
14199TIP3   OH293064   4.996   3.362   4.644
14199TIP3    H193065   4.976   3.436   4.702
14199TIP3    H293066   4.958   3.286   4.688
14200TIP3   OH293067   4.494   3.246   5.063
14200TIP3    H193068   4.427   3.296   5.111
14200TIP3    H293069   4.449   3.215   4.985
14201TIP3   OH293070   5.067   2.806   3.790
14201TIP3    H193071   5.106   2.822   3.876
14201TIP3    H293072   5.108   2.871   3.733
14202TIP3   OH293073   4.170   2.845   4.947
14202TIP3    H193074   4.177   2.940   4.962
14202TIP3    H293075   4.077   2.826   4.957
14203TIP3   OH293076   4.842   3.438   4.121
14203TIP3    H193077   4.923   3.466   4.163
14203TIP3    H293078   4.805   3.518   4.084
14204TIP3   OH293079   4.269   3.406   5.127
14204TIP3    H193080   4.286   3.439   5.038
14204TIP3    H293081   4.237   3.483   5.175
14205TIP3   OH293082   5.417   1.944   3.786
14205TIP3    H193083   5.332   1.963   3.827
14205TIP3    H293084   5.439   2.025   3.740
14206TIP3   OH293085   4.248   2.823   3.960
14206TIP3    H193086   4.200   2.898   3.926
14206TIP3    H293087   4.186   2.751   3.956
14207TIP3   OH293088   5.504   3.404   3.648
14207TIP3    H193089   5.542   3.491   3.656
14207TIP3    H293090   5.570   3.352   3.602
14208TIP3   OH293091   3.855   3.074   4.894
14208TIP3    H193092   3.801   3.092   4.817
14208TIP3    H293093   3.866   2.979   4.894
14209TIP3   OH293094   3.810   3.378   4.583
14209TIP3    H193095   3.889   3.384   4.638
14209TIP3    H293096   3.762   3.459   4.601
14210TIP3   OH293097   5.712   3.450   5.045
14210TIP3    H193098   5.750   3.368   5.077
14210TIP3    H293099   5.663   3.484   5.119
14211TIP3   OH293100   4.734   3.372   5.030
14211TIP3    H193101   4.737   3.450   5.086
14211TIP3    H293102   4.648   3.333   5.048
14212TIP3   OH293103   4.805   3.699   3.991
14212TIP3    H193104   4.767   3.699   3.903
14212TIP3    H293105   4.772   3.779   4.032
14213TIP3   OH293106   4.148   3.592   4.186
14213TIP3    H193107   4.170   3.562   4.274
14213TIP3    H293108   4.093   3.522   4.150
14214TIP3   OH293109   5.079   3.649   3.693
14214TIP3    H193110   5.140   3.582   3.661
14214TIP3    H293111   5.093   3.650   3.788
14215TIP3   OH293112   5.075   3.655   3.971
14215TIP3    H193113   4.980   3.666   3.979
14215TIP3    H293114   5.099   3.596   4.042
14216TIP3   OH293115   4.114   3.116   4.985
14216TIP3    H193116   4.110   3.148   5.075
14216TIP3    H293117   4.023   3.120   4.954
14217TIP3   OH293118   4.368   2.081   4.561
14217TIP3    H193119   4.280   2.050   4.537
14217TIP3    H293120   4.385   2.040   4.646
14218TIP3   OH293121   4.816   1.970   4.922
14218TIP3    H193122   4.868   1.950   4.999
14218TIP3    H293123   4.791   2.062   4.933
14219TIP3   OH293124   5.093   2.385   5.045
14219TIP3    H193125   5.055   2.352   5.127
14219TIP3    H293126   5.027   2.444   5.010
14220TIP3   OH293127   4.764   2.197   3.606
14220TIP3    H193128   4.706   2.211   3.681
14220TIP3    H293129   4.792   2.106   3.615
14221TIP3   OH293130   4.323   2.540   4.685
14221TIP3    H193131   4.271   2.545   4.765
14221TIP3    H293132   4.336   2.632   4.660
14222TIP3   OH293133   4.341   2.531   4.188
14222TIP3    H193134   4.246   2.530   4.185
14222TIP3    H293135   4.368   2.518   4.097
14223TIP3   OH293136   4.876   2.586   4.053
14223TIP3    H193137   4.851   2.674   4.024
14223TIP3    H293138   4.948   2.562   3.994
14224TIP3   OH293139   4.965   2.520   4.308
14224TIP3    H193140   4.927   2.565   4.232
14224TIP3    H293141   5.014   2.447   4.270
14225TIP3   OH293142   4.101   2.532   4.875
14225TIP3    H193143   4.084   2.575   4.959
14225TIP3    H293144   4.063   2.444   4.885
14226TIP3   OH293145   3.790   2.264   4.230
14226TIP3    H193146   3.848   2.262   4.307
14226TIP3    H293147   3.844   2.232   4.159
14227TIP3   OH293148   3.827   2.330   3.758
14227TIP3    H193149   3.882   2.345   3.680
14227TIP3    H293150   3.785   2.415   3.774
14228TIP3   OH293151   4.923   2.680   4.776
14228TIP3    H193152   4.947   2.612   4.713
14228TIP3    H293153   4.896   2.631   4.854
14229TIP3   OH293154   4.651   2.262   4.257
14229TIP3    H193155   4.566   2.270   4.301
14229TIP3    H293156   4.708   2.220   4.322
14230TIP3   OH293157   4.073   2.469   4.178
14230TIP3    H193158   4.005   2.496   4.116
14230TIP3    H293159   4.089   2.377   4.157
14231TIP3   OH293160   4.402   2.474   3.925
14231TIP3    H193161   4.497   2.470   3.940
14231TIP3    H293162   4.393   2.513   3.838
14232TIP3   OH293163   5.023   2.221   4.548
14232TIP3    H193164   5.015   2.207   4.642
14232TIP3    H293165   4.947   2.177   4.510
14233TIP3   OH293166   4.373   2.558   3.663
14233TIP3    H193167   4.313   2.561   3.589
14233TIP3    H293168   4.455   2.595   3.630
14234TIP3   OH293169   4.717   2.589   4.445
14234TIP3    H193170   4.795   2.556   4.400
14234TIP3    H293171   4.698   2.523   4.512
14235TIP3   OH293172   4.190   2.203   4.154
14235TIP3    H193173   4.142   2.123   4.174
14235TIP3    H293174   4.230   2.187   4.069
14236TIP3   OH293175   4.588   2.408   4.658
14236TIP3    H193176   4.563   2.489   4.702
14236TIP3    H293177   4.641   2.361   4.722
14237TIP3   OH293178   4.657   3.044   3.878
14237TIP3    H193179   4.593   2.983   3.839
14237TIP3    H293180   4.614   3.075   3.957
14238TIP3   OH293181   5.348   2.981   4.710
14238TIP3    H193182   5.406   3.038   4.660
14238TIP3    H293183   5.275   2.963   4.651
14239TIP3   OH293184   5.025   2.300   3.747
14239TIP3    H193185   4.955   2.301   3.682
14239TIP3    H293186   5.030   2.391   3.778
14240TIP3   OH293187   4.749   3.089   4.982
14240TIP3    H193188   4.684   3.056   5.044
14240TIP3    H293189   4.752   3.183   4.998
14241TIP3   OH293190   5.090   2.537   3.877
14241TIP3    H193191   5.177   2.518   3.912
14241TIP3    H293192   5.098   2.625   3.839
14242TIP3   OH293193   4.166   2.944   4.422
14242TIP3    H193194   4.226   2.944   4.347
14242TIP3    H293195   4.209   2.888   4.487
14243TIP3   OH293196   4.876   3.177   3.775
14243TIP3    H193197   4.842   3.266   3.781
14243TIP3    H293198   4.803   3.122   3.804
14244TIP3   OH293199   3.888   2.800   4.946
14244TIP3    H193200   3.903   2.731   5.011
14244TIP3    H293201   3.805   2.776   4.905
14245TIP3   OH293202   5.007   3.265   5.053
14245TIP3    H193203   4.924   3.311   5.045
14245TIP3    H293204   5.027   3.267   5.147
14246TIP3   OH293205   5.532   2.525   3.796
14246TIP3    H193206   5.467   2.495   3.732
14246TIP3    H293207   5.548   2.616   3.773
14247TIP3   OH293208   5.602   3.032   5.099
14247TIP3    H193209   5.529   3.076   5.056
14247TIP3    H293210   5.659   3.103   5.129
14248TIP3   OH293211   5.425   3.419   3.924
14248TIP3    H193212   5.364   3.357   3.964
14248TIP3    H293213   5.432   3.391   3.833
14249TIP3   OH293214   5.142   2.917   4.524
14249TIP3    H193215   5.047   2.912   4.529
14249TIP3    H293216   5.169   2.838   4.478
14250TIP3   OH293217   4.425   3.337   4.227
14250TIP3    H193218   4.438   3.420   4.180
14250TIP3    H293219   4.340   3.345   4.269
14251TIP3   OH293220   3.961   2.886   3.643
14251TIP3    H193221   4.002   2.925   3.720
14251TIP3    H293222   3.879   2.849   3.675
14252TIP3   OH293223   4.507   3.109   4.095
14252TIP3    H193224   4.487   3.193   4.136
14252TIP3    H293225   4.450   3.047   4.140
14253TIP3   OH293226   4.617   3.507   4.801
14253TIP3    H193227   4.666   3.587   4.783
14253TIP3    H293228   4.669   3.460   4.866
14254TIP3   OH293229   4.413   3.586   4.098
14254TIP3    H193230   4.321   3.604   4.119
14254TIP3    H293231   4.460   3.659   4.137
14255TIP3   OH293232   4.914   3.121   4.765
14255TIP3    H193233   4.858   3.107   4.842
14255TIP3    H293234   4.996   3.077   4.787
14256TIP3   OH293235   5.135   3.194   3.650
14256TIP3    H193236   5.190   3.144   3.710
14256TIP3    H293237   5.048   3.193   3.691
14257TIP3   OH293238   5.177   3.556   4.955
14257TIP3    H193239   5.092   3.530   4.919
14257TIP3    H293240   5.202   3.634   4.905
14258TIP3   OH293241   5.612   3.655   3.688
14258TIP3    H193242   5.684   3.719   3.683
14258TIP3    H293243   5.535   3.708   3.711
14259TIP3   OH293244   3.977   2.285   4.915
14259TIP3    H193245   3.885   2.313   4.911
14259TIP3    H293246   3.977   2.211   4.974
14260TIP3   OH293247   5.290   3.028   3.826
14260TIP3    H193248   5.253   2.985   3.903
14260TIP3    H293249   5.383   3.038   3.847
14261TIP3   OH293250   3.973   3.518   4.788
14261TIP3    H193251   3.942   3.469   4.865
14261TIP3    H293252   4.000   3.603   4.824
14262TIP3   OH293253   4.437   3.273   3.718
14262TIP3    H193254   4.489   3.212   3.770
14262TIP3    H293255   4.451   3.358   3.760
14263TIP3   OH293256   4.090   3.022   3.847
14263TIP3    H193257   4.022   3.072   3.891
14263TIP3    H293258   4.129   3.083   3.785
14264TIP3   OH293259   5.017   2.235   4.817
14264TIP3    H193260   5.058   2.275   4.894
14264TIP3    H293261   4.923   2.236   4.837
14265TIP3   OH293262   4.984   2.178   3.992
14265TIP3    H193263   4.994   2.220   3.907
14265TIP3    H293264   5.026   2.238   4.054
14266TIP3   OH293265   4.750   3.414   3.801
14266TIP3    H193266   4.662   3.435   3.833
14266TIP3    H293267   4.783   3.497   3.766
14267TIP3   OH293268   4.659   2.418   4.023
14267TIP3    H193269   4.732   2.479   4.031
14267TIP3    H293270   4.656   2.373   4.108
14268TIP3   OH293271   4.863   2.536   5.006
14268TIP3    H193272   4.819   2.572   5.082
14268TIP3    H293273   4.808   2.463   4.978
14269TIP3   OH293274   4.741   2.075   4.069
14269TIP3    H193275   4.713   2.141   4.132
14269TIP3    H293276   4.831   2.100   4.047
14270TIP3   OH293277   4.495   3.517   3.844
14270TIP3    H193278   4.497   3.604   3.803
14270TIP3    H293279   4.464   3.534   3.933
14271TIP3   OH293280   4.338   2.221   3.818
14271TIP3    H193281   4.339   2.310   3.853
14271TIP3    H293282   4.430   2.195   3.817
14272TIP3   OH293283   5.353   2.286   5.004
14272TIP3    H193284   5.265   2.321   5.017
14272TIP3    H293285   5.342   2.216   4.940
14273TIP3   OH293286   5.210   2.662   4.404
14273TIP3    H193287   5.124   2.623   4.387
14273TIP3    H293288   5.251   2.603   4.468
14274TIP3   OH293289   4.173   3.203   3.648
14274TIP3    H193290   4.258   3.233   3.679
14274TIP3    H293291   4.182   3.199   3.552
14275TIP3   OH293292   5.332   3.629   4.560
14275TIP3    H193293   5.313   3.700   4.498
14275TIP3    H293294   5.427   3.629   4.568
14276TIP3   OH293295   4.114   2.004   4.470
14276TIP3    H193296   4.101   1.995   4.376
14276TIP3    H293297   4.073   1.926   4.507
14277TIP3   OH293298   3.949   3.410   4.088
14277TIP3    H193299   3.900   3.440   4.165
14277TIP3    H293300   3.931   3.476   4.021
14278TIP3   OH293301   5.234   3.450   3.584
14278TIP3    H193302   5.195   3.365   3.604
14278TIP3    H293303   5.328   3.437   3.597
14279TIP3   OH293304   5.143   3.022   5.029
14279TIP3    H193305   5.227   3.063   5.009
14279TIP3    H293306   5.083   3.096   5.039
14280TIP3   OH293307   4.479   2.859   3.792
14280TIP3    H193308   4.402   2.834   3.843
14280TIP3    H293309   4.485   2.793   3.724
14281TIP3   OH293310   4.385   2.668   5.016
14281TIP3    H193311   4.311   2.727   4.999
14281TIP3    H293312   4.454   2.698   4.956
14282TIP3   OH293313   4.593   2.684   3.568
14282TIP3    H193314   4.603   2.697   3.474
14282TIP3    H293315   4.683   2.675   3.600
14283TIP3   OH293316   4.300   2.416   5.120
14283TIP3    H193317   4.343   2.348   5.068
14283TIP3    H293318   4.324   2.498   5.077
14284TIP3   OH293319   4.413   2.225   4.961
14284TIP3    H193320   4.506   2.236   4.942
14284TIP3    H293321   4.372   2.219   4.875
14285TIP3   OH293322   4.584   2.773   4.854
14285TIP3    H193323   4.678   2.792   4.857
14285TIP3    H293324   4.546   2.850   4.811
14286TIP3   OH293325   4.452   1.978   4.796
14286TIP3    H193326   4.475   2.003   4.885
14286TIP3    H293327   4.386   1.909   4.806
14287TIP3   OH293328   4.548   3.747   3.692
14287TIP3    H193329   4.642   3.728   3.688
14287TIP3    H293330   4.533   3.807   3.618
14288TIP3   OH293331   3.899   3.281   3.643
14288TIP3    H193332   3.991   3.258   3.656
14288TIP3    H293333   3.894   3.307   3.551
14289TIP3   OH293334   3.780   3.743   4.180
14289TIP3    H193335   3.731   3.714   4.103
14289TIP3    H293336   3.800   3.663   4.227
14290TIP3   OH293337   3.847   3.519   4.330
14290TIP3    H193338   3.816   3.445   4.384
14290TIP3    H293339   3.902   3.570   4.390
14291TIP3   OH293340   5.603   3.641   4.620
14291TIP3    H193341   5.583   3.616   4.710
14291TIP3    H293342   5.624   3.734   4.626
14292TIP3   OH293343   5.539   3.573   4.876
14292TIP3    H193344   5.470   3.507   4.868
14292TIP3    H293345   5.601   3.536   4.939
14293TIP3   OH293346   5.569   2.994   3.914
14293TIP3    H193347   5.635   3.062   3.924
14293TIP3    H293348   5.577   2.940   3.993
14294TIP3   OH293349   5.615   2.810   4.122
14294TIP3    H193350   5.531   2.778   4.153
14294TIP3    H293351   5.666   2.824   4.202
14295TIP3   OH293352   5.574   3.115   4.624
14295TIP3    H193353   5.635   3.055   4.581
14295TIP3    H293354   5.601   3.202   4.596
14296TIP3   OH293355   5.355   3.373   4.844
14296TIP3    H193356   5.285   3.421   4.889
14296TIP3    H293357   5.321   3.362   4.755
14297TIP3   OH293358   5.576   2.788   3.731
14297TIP3    H193359   5.523   2.818   3.657
14297TIP3    H293360   5.568   2.858   3.796
14298TIP3   OH293361   5.368   2.690   4.178
14298TIP3    H193362   5.359   2.602   4.142
14298TIP3    H293363   5.319   2.687   4.261
14299TIP3   OH293364   3.851   2.881   4.599
14299TIP3    H193365   3.861   2.880   4.503
14299TIP3    H293366   3.931   2.839   4.631
14300TIP3   OH293367   5.486   2.819   5.224
14300TIP3    H193368   5.555   2.788   5.282
14300TIP3    H293369   5.527   2.888   5.172
14301TIP3   OH293370   5.293   2.369   3.656
14301TIP3    H193371   5.357   2.299   3.645
14301TIP3    H293372   5.215   2.326   3.689
14302TIP3   OH293373   5.344   2.450   3.999
14302TIP3    H193374   5.366   2.357   4.007
14302TIP3    H293375   5.411   2.485   3.939
14303TIP3   OH293376   5.362   2.486   4.566
14303TIP3    H193377   5.455   2.491   4.544
14303TIP3    H293378   5.358   2.507   4.660
14304TIP3   OH293379   5.412   2.576   4.829
14304TIP3    H193380   5.328   2.600   4.867
14304TIP3    H293381   5.459   2.659   4.820
14305TIP3   OH293382   5.401   2.179   4.019
14305TIP3    H193383   5.420   2.145   4.107
14305TIP3    H293384   5.333   2.120   3.986
14306TIP3   OH293385   3.961   2.238   4.442
14306TIP3    H193386   4.001   2.156   4.468
14306TIP3    H293387   4.019   2.306   4.476
14307TIP3   OH293388   3.729   2.516   4.557
14307TIP3    H193389   3.790   2.538   4.487
14307TIP3    H293390   3.738   2.587   4.621
14308TIP3   OH293391   5.496   2.173   3.645
14308TIP3    H193392   5.521   2.130   3.563
14308TIP3    H293393   5.576   2.215   3.675
14309TIP3   OH293394   3.800   2.139   3.951
14309TIP3    H193395   3.708   2.148   3.975
14309TIP3    H293396   3.816   2.212   3.891
14310TIP3   OH293397   5.300   3.668   4.203
14310TIP3    H193398   5.372   3.681   4.141
14310TIP3    H293399   5.314   3.735   4.269
14311TIP3   OH293400   3.779   2.003   4.751
14311TIP3    H193401   3.723   1.991   4.827
14311TIP3    H293402   3.748   2.084   4.711
14312TIP3   OH293403   4.349   3.476   4.866
14312TIP3    H193404   4.318   3.565   4.845
14312TIP3    H293405   4.444   3.480   4.849
14313TIP3   OH293406   4.744   3.595   5.198
14313TIP3    H193407   4.758   3.561   5.286
14313TIP3    H293408   4.826   3.638   5.176
14314TIP3   OH293409   4.984   3.712   5.124
14314TIP3    H193410   5.049   3.671   5.068
14314TIP3    H293411   5.023   3.712   5.212
14315TIP3   OH293412   5.527   1.947   4.970
14315TIP3    H193413   5.432   1.957   4.976
14315TIP3    H293414   5.542   1.853   4.973
14316TIP3   OH293415   4.029   3.781   4.869
14316TIP3    H193416   3.955   3.818   4.821
14316TIP3    H293417   4.032   3.833   4.950
14317TIP3   OH293418   4.299   3.744   4.811
14317TIP3    H193419   4.208   3.760   4.836
14317TIP3    H293420   4.310   3.792   4.729
14318TIP3   OH293421   4.743   3.740   4.717
14318TIP3    H193422   4.687   3.774   4.647
14318TIP3    H293423   4.744   3.810   4.783
14319TIP3   OH293424   4.973   3.605   4.771
14319TIP3    H193425   4.892   3.651   4.753
14319TIP3    H293426   5.041   3.672   4.764
14320TIP3   OH293427   5.213   3.760   4.775
14320TIP3    H193428   5.244   3.851   4.771
14320TIP3    H293429   5.254   3.718   4.699
14321TIP3   OH293430   4.013   3.630   4.527
14321TIP3    H193431   3.993   3.598   4.615
14321TIP3    H293432   4.094   3.586   4.502
14322TIP3   OH293433   4.234   3.496   4.433
14322TIP3    H193434   4.221   3.404   4.455
14322TIP3    H293435   4.317   3.519   4.474
14323TIP3   OH293436   4.489   3.525   4.551
14323TIP3    H193437   4.502   3.435   4.521
14323TIP3    H293438   4.524   3.526   4.640
14324TIP3   OH293439   4.806   2.092   4.412
14324TIP3    H193440   4.747   2.022   4.441
14324TIP3    H293441   4.879   2.046   4.370
14325TIP3   OH293442   5.304   1.963   4.420
14325TIP3    H193443   5.367   2.021   4.377
14325TIP3    H293444   5.220   2.009   4.413
14326TIP3   OH293445   5.494   2.072   4.255
14326TIP3    H193446   5.556   2.002   4.237
14326TIP3    H293447   5.549   2.150   4.265
14327TIP3   OH293448   4.059   1.959   4.201
14327TIP3    H193449   3.966   1.943   4.185
14327TIP3    H293450   4.100   1.873   4.191
14328TIP3   OH293451   3.926   1.960   3.777
14328TIP3    H193452   3.995   2.016   3.741
14328TIP3    H293453   3.884   2.014   3.844
14329TIP3   OH293454   4.537   1.926   4.201
14329TIP3    H193455   4.609   1.972   4.158
14329TIP3    H293456   4.562   1.923   4.293
14330TIP3   OH293457   5.025   1.956   4.312
14330TIP3    H193458   5.083   1.925   4.243
14330TIP3    H293459   5.005   1.877   4.362
14331TIP3   OH293460   5.196   2.007   3.939
14331TIP3    H193461   5.119   2.062   3.955
14331TIP3    H293462   5.165   1.917   3.951
14332TIP3   OH293463   3.904   3.593   3.894
14332TIP3    H193464   3.829   3.583   3.836
14332TIP3    H293465   3.942   3.677   3.870
14333TIP3   OH293466   4.136   2.103   3.666
14333TIP3    H193467   4.157   2.144   3.582
14333TIP3    H293468   4.201   2.138   3.726
14334TIP3   OH293469   4.622   2.207   3.848
14334TIP3    H193470   4.651   2.140   3.910
14334TIP3    H293471   4.635   2.289   3.894
14335TIP3   OH293472   4.808   3.658   3.676
14335TIP3    H193473   4.903   3.672   3.680
14335TIP3    H293474   4.796   3.600   3.601
14336TIP3   OH293475   5.493   3.673   4.001
14336TIP3    H193476   5.471   3.583   3.976
14336TIP3    H293477   5.470   3.725   3.924
14337TIP3   OH293478   4.010   2.070   5.095
14337TIP3    H193479   3.951   2.036   5.163
14337TIP3    H293480   4.081   2.111   5.144
14338TIP3   OH293481   4.101   3.659   3.500
14338TIP3    H193482   4.042   3.731   3.479
14338TIP3    H293483   4.092   3.647   3.595
14339TIP3   OH293484   6.852   2.925   4.177
14339TIP3    H193485   6.835   3.014   4.146
14339TIP3    H293486   6.789   2.911   4.248
14340TIP3   OH293487   6.710   2.821   4.557
14340TIP3    H193488   6.739   2.789   4.642
14340TIP3    H293489   6.666   2.746   4.516
14341TIP3   OH293490   5.981   2.775   4.751
14341TIP3    H193491   5.982   2.681   4.768
14341TIP3    H293492   5.912   2.810   4.808
14342TIP3   OH293493   7.125   3.154   4.410
14342TIP3    H193494   7.094   3.079   4.461
14342TIP3    H293495   7.144   3.221   4.476
14343TIP3   OH293496   6.114   3.240   4.461
14343TIP3    H193497   6.073   3.155   4.471
14343TIP3    H293498   6.205   3.227   4.487
14344TIP3   OH293499   5.756   2.599   4.007
14344TIP3    H193500   5.709   2.673   4.046
14344TIP3    H293501   5.691   2.557   3.951
14345TIP3   OH293502   5.814   2.820   4.326
14345TIP3    H193503   5.836   2.729   4.349
14345TIP3    H293504   5.890   2.871   4.353
14346TIP3   OH293505   6.853   3.611   4.452
14346TIP3    H193506   6.893   3.552   4.387
14346TIP3    H293507   6.839   3.555   4.529
14347TIP3   OH293508   6.579   3.065   4.600
14347TIP3    H193509   6.617   2.982   4.570
14347TIP3    H293510   6.647   3.104   4.655
14348TIP3   OH293511   7.472   2.253   4.658
14348TIP3    H193512   7.479   2.290   4.746
14348TIP3    H293513   7.562   2.247   4.627
14349TIP3   OH293514   6.899   2.523   4.574
14349TIP3    H193515   6.888   2.429   4.593
14349TIP3    H293516   6.872   2.531   4.482
14350TIP3   OH293517   6.245   2.315   4.311
14350TIP3    H193518   6.244   2.397   4.263
14350TIP3    H293519   6.183   2.258   4.265
14351TIP3   OH293520   7.024   2.342   4.182
14351TIP3    H193521   7.067   2.301   4.257
14351TIP3    H293522   7.097   2.376   4.129
14352TIP3   OH293523   5.884   2.565   4.404
14352TIP3    H193524   5.945   2.517   4.460
14352TIP3    H293525   5.897   2.527   4.317
14353TIP3   OH293526   6.355   2.689   4.362
14353TIP3    H193527   6.440   2.653   4.389
14353TIP3    H293528   6.321   2.626   4.298
14354TIP3   OH293529   7.469   2.371   4.904
14354TIP3    H193530   7.417   2.446   4.875
14354TIP3    H293531   7.427   2.342   4.984
14355TIP3   OH293532   6.088   2.220   4.744
14355TIP3    H193533   6.057   2.279   4.675
14355TIP3    H293534   6.016   2.219   4.808
14356TIP3   OH293535   6.813   3.179   4.075
14356TIP3    H193536   6.801   3.177   3.980
14356TIP3    H293537   6.774   3.261   4.103
14357TIP3   OH293538   6.327   3.018   4.718
14357TIP3    H193539   6.290   3.100   4.752
14357TIP3    H293540   6.414   3.042   4.688
14358TIP3   OH293541   7.165   2.285   4.431
14358TIP3    H193542   7.144   2.215   4.492
14358TIP3    H293543   7.135   2.365   4.474
14359TIP3   OH293544   6.078   2.395   4.522
14359TIP3    H193545   6.131   2.443   4.585
14359TIP3    H293546   6.141   2.361   4.458
14360TIP3   OH293547   6.195   3.217   4.848
14360TIP3    H193548   6.210   3.311   4.837
14360TIP3    H293549   6.106   3.210   4.884
14361TIP3   OH293550   5.790   3.182   3.914
14361TIP3    H193551   5.762   3.234   3.839
14361TIP3    H293552   5.805   3.246   3.984
14362TIP3   OH293553   7.153   3.360   4.599
14362TIP3    H193554   7.058   3.360   4.612
14362TIP3    H293555   7.172   3.449   4.570
14363TIP3   OH293556   7.186   2.179   4.695
14363TIP3    H193557   7.141   2.219   4.770
14363TIP3    H293558   7.279   2.187   4.716
14364TIP3   OH293559   6.450   1.917   4.494
14364TIP3    H193560   6.430   1.823   4.500
14364TIP3    H293561   6.370   1.960   4.526
14365TIP3   OH293562   6.981   3.479   4.247
14365TIP3    H193563   7.026   3.399   4.219
14365TIP3    H293564   7.045   3.548   4.234
14366TIP3   OH293565   7.076   3.233   4.157
14366TIP3    H193566   6.983   3.212   4.146
14366TIP3    H293567   7.098   3.203   4.245
14367TIP3   OH293568   7.276   3.128   4.961
14367TIP3    H193569   7.277   3.075   4.881
14367TIP3    H293570   7.286   3.218   4.930
14368TIP3   OH293571   6.665   2.822   3.913
14368TIP3    H193572   6.624   2.909   3.913
14368TIP3    H293573   6.748   2.836   3.867
14369TIP3   OH293574   6.739   2.653   3.640
14369TIP3    H193575   6.796   2.710   3.692
14369TIP3    H293576   6.798   2.594   3.594
14370TIP3   OH293577   7.419   2.762   4.724
14370TIP3    H193578   7.357   2.834   4.737
14370TIP3    H293579   7.497   2.804   4.687
14371TIP3   OH293580   7.060   2.833   4.029
14371TIP3    H193581   6.991   2.855   4.091
14371TIP3    H293582   7.128   2.791   4.083
14372TIP3   OH293583   7.030   2.630   4.949
14372TIP3    H193584   7.046   2.697   5.015
14372TIP3    H293585   6.956   2.662   4.899
14373TIP3   OH293586   6.214   2.885   4.229
14373TIP3    H193587   6.174   2.836   4.157
14373TIP3    H293588   6.272   2.822   4.272
14374TIP3   OH293589   6.392   3.246   4.486
14374TIP3    H193590   6.404   3.255   4.391
14374TIP3    H293591   6.465   3.190   4.514
14375TIP3   OH293592   6.254   2.784   4.601
14375TIP3    H193593   6.291   2.750   4.520
14375TIP3    H293594   6.303   2.865   4.618
14376TIP3   OH293595   6.885   3.351   4.656
14376TIP3    H193596   6.868   3.426   4.713
14376TIP3    H293597   6.845   3.277   4.702
14377TIP3   OH293598   6.387   3.240   5.052
14377TIP3    H193599   6.334   3.284   5.119
14377TIP3    H293600   6.325   3.221   4.981
14378TIP3   OH293601   6.927   2.821   3.791
14378TIP3    H193602   6.970   2.828   3.876
14378TIP3    H293603   6.962   2.894   3.740
14379TIP3   OH293604   6.035   2.940   4.995
14379TIP3    H193605   6.028   3.016   5.053
14379TIP3    H293606   5.948   2.901   4.997
14380TIP3   OH293607   6.734   3.434   4.129
14380TIP3    H193608   6.809   3.461   4.181
14380TIP3    H293609   6.705   3.515   4.085
14381TIP3   OH293610   6.171   3.426   5.126
14381TIP3    H193611   6.197   3.445   5.036
14381TIP3    H293612   6.109   3.495   5.148
14382TIP3   OH293613   7.309   1.952   3.788
14382TIP3    H193614   7.223   1.975   3.822
14382TIP3    H293615   7.337   2.030   3.739
14383TIP3   OH293616   6.034   2.796   4.004
14383TIP3    H193617   5.994   2.881   4.023
14383TIP3    H293618   5.966   2.732   4.024
14384TIP3   OH293619   7.457   3.360   3.688
14384TIP3    H193620   7.469   3.454   3.674
14384TIP3    H293621   7.539   3.321   3.656
14385TIP3   OH293622   5.739   3.079   4.847
14385TIP3    H193623   5.669   3.093   4.783
14385TIP3    H293624   5.700   3.023   4.914
14386TIP3   OH293625   5.685   3.370   4.581
14386TIP3    H193626   5.749   3.379   4.652
14386TIP3    H293627   5.631   3.449   4.588
14387TIP3   OH293628   7.608   3.413   5.058
14387TIP3    H193629   7.683   3.354   5.069
14387TIP3    H293630   7.558   3.403   5.139
14388TIP3   OH293631   6.611   3.402   5.025
14388TIP3    H193632   6.609   3.470   5.092
14388TIP3    H293633   6.534   3.348   5.043
14389TIP3   OH293634   6.704   3.683   3.998
14389TIP3    H193635   6.669   3.693   3.909
14389TIP3    H293636   6.682   3.766   4.041
14390TIP3   OH293637   6.031   3.588   4.196
14390TIP3    H193638   6.044   3.563   4.288
14390TIP3    H293639   5.972   3.521   4.161
14391TIP3   OH293640   6.952   3.604   3.697
14391TIP3    H193641   7.036   3.588   3.655
14391TIP3    H293642   6.974   3.618   3.790
14392TIP3   OH293643   6.980   3.664   3.966
14392TIP3    H193644   6.888   3.662   3.991
14392TIP3    H293645   7.028   3.655   4.049
14393TIP3   OH293646   5.942   3.223   4.948
14393TIP3    H193647   5.911   3.232   5.038
14393TIP3    H293648   5.875   3.170   4.905
14394TIP3   OH293649   6.208   2.027   4.583
14394TIP3    H193650   6.133   2.014   4.524
14394TIP3    H293651   6.179   2.095   4.644
14395TIP3   OH293652   6.708   1.996   4.952
14395TIP3    H193653   6.754   1.936   5.011
14395TIP3    H293654   6.615   1.982   4.971
14396TIP3   OH293655   7.011   2.356   5.018
14396TIP3    H193656   6.960   2.362   5.098
14396TIP3    H293657   7.022   2.447   4.990
14397TIP3   OH293658   6.615   2.162   3.601
14397TIP3    H193659   6.568   2.186   3.681
14397TIP3    H293660   6.706   2.153   3.629
14398TIP3   OH293661   6.216   2.532   4.713
14398TIP3    H193662   6.156   2.535   4.787
14398TIP3    H293663   6.223   2.623   4.684
14399TIP3   OH293664   6.222   2.546   4.162
14399TIP3    H193665   6.127   2.536   4.163
14399TIP3    H293666   6.246   2.530   4.071
14400TIP3   OH293667   6.751   2.594   4.050
14400TIP3    H193668   6.717   2.676   4.015
14400TIP3    H293669   6.828   2.575   3.996
14401TIP3   OH293670   6.851   2.527   4.302
14401TIP3    H193671   6.805   2.564   4.227
14401TIP3    H293672   6.899   2.453   4.265
14402TIP3   OH293673   5.990   2.526   4.881
14402TIP3    H193674   5.961   2.565   4.963
14402TIP3    H293675   5.952   2.438   4.882
14403TIP3   OH293676   5.679   2.272   4.231
14403TIP3    H193677   5.741   2.268   4.304
14403TIP3    H293678   5.724   2.229   4.159
14404TIP3   OH293679   5.714   2.322   3.739
14404TIP3    H193680   5.766   2.342   3.661
14404TIP3    H293681   5.663   2.401   3.755
14405TIP3   OH293682   6.792   2.670   4.780
14405TIP3    H193683   6.837   2.620   4.712
14405TIP3    H293684   6.742   2.604   4.829
14406TIP3   OH293685   6.522   2.269   4.267
14406TIP3    H193686   6.432   2.277   4.299
14406TIP3    H293687   6.569   2.228   4.340
14407TIP3   OH293688   5.958   2.472   4.152
14407TIP3    H193689   5.883   2.498   4.098
14407TIP3    H293690   5.965   2.378   4.138
14408TIP3   OH293691   6.309   2.482   3.903
14408TIP3    H193692   6.393   2.460   3.945
14408TIP3    H293693   6.333   2.533   3.826
14409TIP3   OH293694   6.844   2.260   4.594
14409TIP3    H193695   6.827   2.242   4.686
14409TIP3    H293696   6.782   2.204   4.547
14410TIP3   OH293697   6.191   2.662   3.622
14410TIP3    H193698   6.159   2.605   3.551
14410TIP3    H293699   6.286   2.662   3.612
14411TIP3   OH293700   6.588   2.580   4.466
14411TIP3    H193701   6.655   2.523   4.427
14411TIP3    H293702   6.556   2.531   4.542
14412TIP3   OH293703   6.057   2.199   4.134
14412TIP3    H193704   6.004   2.124   4.161
14412TIP3    H293705   6.102   2.170   4.055
14413TIP3   OH293706   6.483   2.456   4.690
14413TIP3    H193707   6.395   2.487   4.710
14413TIP3    H293708   6.531   2.468   4.772
14414TIP3   OH293709   6.505   3.057   3.869
14414TIP3    H193710   6.432   3.014   3.825
14414TIP3    H293711   6.472   3.078   3.956
14415TIP3   OH293712   7.255   2.982   4.723
14415TIP3    H193713   7.317   3.039   4.678
14415TIP3    H293714   7.181   2.975   4.663
14416TIP3   OH293715   6.879   2.330   3.758
14416TIP3    H193716   6.875   2.361   3.667
14416TIP3    H293717   6.909   2.405   3.808
14417TIP3   OH293718   6.601   3.067   4.992
14417TIP3    H193719   6.667   3.086   5.058
14417TIP3    H293720   6.527   3.123   5.015
14418TIP3   OH293721   6.979   2.545   3.895
14418TIP3    H193722   7.065   2.524   3.930
14418TIP3    H293723   6.992   2.628   3.849
14419TIP3   OH293724   6.044   2.932   4.445
14419TIP3    H193725   6.106   2.929   4.372
14419TIP3    H293726   6.085   2.878   4.513
14420TIP3   OH293727   6.751   3.165   3.799
14420TIP3    H193728   6.729   3.258   3.787
14420TIP3    H293729   6.667   3.123   3.819
14421TIP3   OH293730   5.791   2.800   4.945
14421TIP3    H193731   5.796   2.729   5.009
14421TIP3    H293732   5.700   2.797   4.914
14422TIP3   OH293733   6.849   3.259   5.052
14422TIP3    H193734   6.777   3.320   5.036
14422TIP3    H293735   6.877   3.277   5.142
14423TIP3   OH293736   7.386   2.578   3.789
14423TIP3    H193737   7.387   2.539   3.701
14423TIP3    H293738   7.387   2.672   3.773
14424TIP3   OH293739   7.497   3.091   5.134
14424TIP3    H193740   7.411   3.123   5.105
14424TIP3    H293741   7.551   3.093   5.055
14425TIP3   OH293742   7.280   3.438   3.884
14425TIP3    H193743   7.263   3.370   3.949
14425TIP3    H293744   7.342   3.398   3.823
14426TIP3   OH293745   7.040   2.923   4.541
14426TIP3    H193746   6.947   2.919   4.565
14426TIP3    H293747   7.052   2.848   4.483
14427TIP3   OH293748   6.308   3.321   4.224
14427TIP3    H193749   6.321   3.406   4.182
14427TIP3    H293750   6.221   3.328   4.265
14428TIP3   OH293751   5.863   2.792   3.723
14428TIP3    H193752   5.853   2.887   3.718
14428TIP3    H293753   5.774   2.758   3.720
14429TIP3   OH293754   6.373   3.082   4.104
14429TIP3    H193755   6.357   3.169   4.141
14429TIP3    H293756   6.316   3.024   4.154
14430TIP3   OH293757   6.509   3.502   4.787
14430TIP3    H193758   6.559   3.580   4.764
14430TIP3    H293759   6.558   3.463   4.860
14431TIP3   OH293760   6.295   3.577   4.109
14431TIP3    H193761   6.203   3.595   4.130
14431TIP3    H293762   6.343   3.654   4.139
14432TIP3   OH293763   6.788   3.112   4.784
14432TIP3    H193764   6.723   3.104   4.854
14432TIP3    H293765   6.871   3.084   4.824
14433TIP3   OH293766   7.064   3.057   3.687
14433TIP3    H193767   7.034   3.103   3.766
14433TIP3    H293768   7.026   3.107   3.615
14434TIP3   OH293769   7.082   3.560   4.948
14434TIP3    H193770   6.994   3.535   4.920
14434TIP3    H293771   7.102   3.639   4.898
14435TIP3   OH293772   7.475   3.638   3.686
14435TIP3    H193773   7.554   3.691   3.677
14435TIP3    H293774   7.405   3.702   3.698
14436TIP3   OH293775   5.870   2.274   4.918
14436TIP3    H193776   5.778   2.300   4.919
14436TIP3    H293777   5.877   2.205   4.983
14437TIP3   OH293778   7.158   3.078   3.952
14437TIP3    H193779   7.125   2.996   3.990
14437TIP3    H293780   7.142   3.144   4.020
14438TIP3   OH293781   5.849   3.445   4.799
14438TIP3    H193782   5.906   3.375   4.831
14438TIP3    H293783   5.792   3.465   4.873
14439TIP3   OH293784   6.346   3.276   3.728
14439TIP3    H193785   6.419   3.228   3.767
14439TIP3    H293786   6.350   3.363   3.767
14440TIP3   OH293787   5.998   3.031   3.802
14440TIP3    H193788   5.929   3.075   3.852
14440TIP3    H293789   6.031   3.099   3.743
14441TIP3   OH293790   6.803   2.240   4.867
14441TIP3    H193791   6.880   2.259   4.921
14441TIP3    H293792   6.772   2.155   4.899
14442TIP3   OH293793   6.866   2.188   4.001
14442TIP3    H193794   6.863   2.238   3.919
14442TIP3    H293795   6.911   2.246   4.062
14443TIP3   OH293796   6.635   3.411   3.774
14443TIP3    H193797   6.557   3.445   3.819
14443TIP3    H293798   6.665   3.484   3.720
14444TIP3   OH293799   6.544   2.413   4.030
14444TIP3    H193800   6.616   2.476   4.038
14444TIP3    H293801   6.537   2.373   4.116
14445TIP3   OH293802   6.655   2.470   4.912
14445TIP3    H193803   6.650   2.475   5.007
14445TIP3    H293804   6.699   2.387   4.894
14446TIP3   OH293805   6.625   2.083   4.086
14446TIP3    H193806   6.595   2.148   4.148
14446TIP3    H293807   6.713   2.112   4.060
14447TIP3   OH293808   6.389   3.515   3.857
14447TIP3    H193809   6.394   3.602   3.818
14447TIP3    H293810   6.357   3.531   3.946
14448TIP3   OH293811   6.242   2.232   3.772
14448TIP3    H193812   6.231   2.318   3.813
14448TIP3    H293813   6.333   2.208   3.792
14449TIP3   OH293814   7.291   2.336   5.109
14449TIP3    H193815   7.200   2.310   5.095
14449TIP3    H293816   7.323   2.276   5.176
14450TIP3   OH293817   7.077   2.678   4.387
14450TIP3    H193818   6.992   2.643   4.362
14450TIP3    H293819   7.103   2.627   4.464
14451TIP3   OH293820   6.084   3.234   3.637
14451TIP3    H193821   6.162   3.258   3.688
14451TIP3    H293822   6.110   3.249   3.546
14452TIP3   OH293823   7.228   3.626   4.551
14452TIP3    H193824   7.220   3.700   4.491
14452TIP3    H293825   7.321   3.623   4.574
14453TIP3   OH293826   5.969   1.999   4.450
14453TIP3    H193827   5.954   1.988   4.356
14453TIP3    H293828   5.934   1.919   4.490
14454TIP3   OH293829   5.831   3.405   4.092
14454TIP3    H193830   5.777   3.436   4.164
14454TIP3    H293831   5.815   3.469   4.022
14455TIP3   OH293832   7.187   3.559   3.548
14455TIP3    H193833   7.250   3.511   3.601
14455TIP3    H293834   7.238   3.632   3.512
14456TIP3   OH293835   7.009   3.050   4.983
14456TIP3    H193836   7.099   3.083   4.980
14456TIP3    H293837   6.957   3.125   5.012
14457TIP3   OH293838   6.337   2.835   3.800
14457TIP3    H193839   6.390   2.817   3.878
14457TIP3    H293840   6.388   2.800   3.727
14458TIP3   OH293841   6.256   2.697   4.971
14458TIP3    H193842   6.226   2.677   5.060
14458TIP3    H293843   6.349   2.716   4.982
14459TIP3   OH293844   6.467   2.686   3.586
14459TIP3    H193845   6.472   2.677   3.491
14459TIP3    H293846   6.557   2.674   3.617
14460TIP3   OH293847   6.283   2.364   5.089
14460TIP3    H193848   6.309   2.317   5.010
14460TIP3    H293849   6.236   2.441   5.057
14461TIP3   OH293850   6.343   2.240   4.845
14461TIP3    H193851   6.393   2.284   4.775
14461TIP3    H293852   6.254   2.234   4.810
14462TIP3   OH293853   6.503   2.816   4.910
14462TIP3    H193854   6.583   2.774   4.880
14462TIP3    H293855   6.530   2.903   4.940
14463TIP3   OH293856   6.430   1.976   4.900
14463TIP3    H193857   6.400   2.067   4.893
14463TIP3    H293858   6.352   1.923   4.884
14464TIP3   OH293859   6.440   3.744   3.713
14464TIP3    H193860   6.531   3.729   3.686
14464TIP3    H293861   6.427   3.839   3.704
14465TIP3   OH293862   5.806   3.200   3.577
14465TIP3    H193863   5.889   3.241   3.600
14465TIP3    H293864   5.789   3.228   3.487
14466TIP3   OH293865   5.686   3.744   4.180
14466TIP3    H193866   5.627   3.723   4.108
14466TIP3    H293867   5.697   3.662   4.227
14467TIP3   OH293868   5.733   3.521   4.344
14467TIP3    H193869   5.721   3.438   4.389
14467TIP3    H293870   5.724   3.587   4.412
14468TIP3   OH293871   7.487   3.620   4.653
14468TIP3    H193872   7.484   3.618   4.749
14468TIP3    H293873   7.541   3.697   4.633
14469TIP3   OH293874   7.458   3.602   4.939
14469TIP3    H193875   7.379   3.551   4.920
14469TIP3    H293876   7.520   3.537   4.974
14470TIP3   OH293877   7.473   3.014   3.922
14470TIP3    H193878   7.548   3.073   3.927
14470TIP3    H293879   7.491   2.946   3.987
14471TIP3   OH293880   7.508   2.801   4.104
14471TIP3    H193881   7.423   2.775   4.141
14471TIP3    H293882   7.562   2.820   4.181
14472TIP3   OH293883   7.491   3.109   4.651
14472TIP3    H193884   7.549   3.048   4.605
14472TIP3    H293885   7.514   3.195   4.616
14473TIP3   OH293886   7.271   3.384   4.854
14473TIP3    H193887   7.202   3.434   4.896
14473TIP3    H293888   7.241   3.372   4.764
14474TIP3   OH293889   7.411   2.850   3.675
14474TIP3    H193890   7.415   2.830   3.582
14474TIP3    H293891   7.503   2.851   3.703
14475TIP3   OH293892   7.254   2.693   4.174
14475TIP3    H193893   7.246   2.605   4.135
14475TIP3    H293894   7.202   2.689   4.254
14476TIP3   OH293895   5.734   2.877   4.585
14476TIP3    H193896   5.742   2.859   4.491
14476TIP3    H293897   5.824   2.877   4.617
14477TIP3   OH293898   7.350   2.878   5.238
14477TIP3    H193899   7.373   2.791   5.206
14477TIP3    H293900   7.413   2.937   5.196
14478TIP3   OH293901   7.159   2.332   3.619
14478TIP3    H193902   7.245   2.292   3.617
14478TIP3    H293903   7.105   2.271   3.669
14479TIP3   OH293904   7.229   2.460   4.000
14479TIP3    H193905   7.254   2.368   4.003
14479TIP3    H293906   7.286   2.498   3.933
14480TIP3   OH293907   7.236   2.522   4.562
14480TIP3    H193908   7.306   2.586   4.552
14480TIP3    H293909   7.221   2.518   4.657
14481TIP3   OH293910   7.273   2.555   4.831
14481TIP3    H193911   7.195   2.582   4.880
14481TIP3    H293912   7.321   2.636   4.815
14482TIP3   OH293913   7.272   2.188   4.029
14482TIP3    H193914   7.302   2.140   4.106
14482TIP3    H293915   7.209   2.130   3.987
14483TIP3   OH293916   5.855   2.249   4.439
14483TIP3    H193917   5.881   2.159   4.458
14483TIP3    H293918   5.924   2.303   4.476
14484TIP3   OH293919   5.638   2.514   4.551
14484TIP3    H193920   5.711   2.517   4.489
14484TIP3    H293921   5.654   2.587   4.610
14485TIP3   OH293922   7.396   2.181   3.643
14485TIP3    H193923   7.424   2.168   3.553
14485TIP3    H293924   7.470   2.226   3.685
14486TIP3   OH293925   5.682   2.158   3.959
14486TIP3    H193926   5.589   2.160   3.979
14486TIP3    H293927   5.693   2.224   3.891
14487TIP3   OH293928   7.156   3.677   4.184
14487TIP3    H193929   7.233   3.686   4.128
14487TIP3    H293930   7.170   3.740   4.255
14488TIP3   OH293931   5.682   2.000   4.750
14488TIP3    H193932   5.629   1.990   4.829
14488TIP3    H293933   5.648   2.079   4.708
14489TIP3   OH293934   6.247   3.484   4.862
14489TIP3    H193935   6.218   3.572   4.841
14489TIP3    H293936   6.341   3.483   4.841
14490TIP3   OH293937   6.623   3.594   5.223
14490TIP3    H193938   6.642   3.562   5.311
14490TIP3    H293939   6.704   3.637   5.195
14491TIP3   OH293940   6.857   3.714   5.134
14491TIP3    H193941   6.926   3.697   5.070
14491TIP3    H293942   6.899   3.702   5.219
14492TIP3   OH293943   7.331   1.930   4.939
14492TIP3    H193944   7.321   1.933   5.034
14492TIP3    H293945   7.364   1.842   4.921
14493TIP3   OH293946   5.949   3.796   4.909
14493TIP3    H193947   5.927   3.868   4.968
14493TIP3    H293948   5.951   3.719   4.965
14494TIP3   OH293949   6.204   3.747   4.807
14494TIP3    H193950   6.119   3.776   4.843
14494TIP3    H293951   6.217   3.803   4.730
14495TIP3   OH293952   6.636   3.729   4.708
14495TIP3    H193953   6.599   3.777   4.634
14495TIP3    H293954   6.649   3.796   4.775
14496TIP3   OH293955   6.868   3.599   4.771
14496TIP3    H193956   6.786   3.645   4.752
14496TIP3    H293957   6.936   3.665   4.758
14497TIP3   OH293958   7.101   3.758   4.757
14497TIP3    H193959   7.118   3.850   4.738
14497TIP3    H293960   7.142   3.710   4.685
14498TIP3   OH293961   5.931   3.647   4.623
14498TIP3    H193962   5.896   3.583   4.686
14498TIP3    H293963   5.989   3.596   4.567
14499TIP3   OH293964   6.103   3.514   4.456
14499TIP3    H193965   6.094   3.419   4.463
14499TIP3    H293966   6.193   3.531   4.486
14500TIP3   OH293967   6.370   3.522   4.545
14500TIP3    H193968   6.382   3.431   4.516
14500TIP3    H293969   6.412   3.525   4.631
14501TIP3   OH293970   6.668   2.102   4.435
14501TIP3    H193971   6.610   2.030   4.461
14501TIP3    H293972   6.746   2.059   4.400
14502TIP3   OH293973   7.174   1.921   4.368
14502TIP3    H193974   7.235   1.986   4.332
14502TIP3    H293975   7.088   1.963   4.363
14503TIP3   OH293976   7.383   2.058   4.245
14503TIP3    H193977   7.441   1.983   4.232
14503TIP3    H293978   7.442   2.129   4.270
14504TIP3   OH293979   5.923   1.962   4.180
14504TIP3    H193980   5.830   1.941   4.170
14504TIP3    H293981   5.967   1.877   4.172
14505TIP3   OH293982   5.798   1.983   3.777
14505TIP3    H193983   5.861   2.043   3.737
14505TIP3    H293984   5.756   2.034   3.846
14506TIP3   OH293985   6.420   1.924   4.209
14506TIP3    H193986   6.491   1.979   4.176
14506TIP3    H293987   6.431   1.926   4.305
14507TIP3   OH293988   6.897   1.985   4.316
14507TIP3    H193989   6.887   1.961   4.224
14507TIP3    H293990   6.885   1.902   4.363
14508TIP3   OH293991   7.077   2.019   3.928
14508TIP3    H193992   6.999   2.071   3.946
14508TIP3    H293993   7.050   1.929   3.945
14509TIP3   OH293994   5.795   3.583   3.889
14509TIP3    H193995   5.715   3.584   3.837
14509TIP3    H293996   5.838   3.666   3.869
14510TIP3   OH293997   6.031   2.104   3.644
14510TIP3    H193998   6.045   2.010   3.645
14510TIP3    H293999   6.100   2.139   3.701
14511TIP3   OH294000   6.508   2.199   3.856
14511TIP3    H194001   6.533   2.134   3.921
14511TIP3    H294002   6.524   2.283   3.899
14512TIP3   OH294003   6.693   3.663   3.642
14512TIP3    H194004   6.784   3.650   3.669
14512TIP3    H294005   6.698   3.680   3.548
14513TIP3   OH294006   7.354   3.683   3.985
14513TIP3    H194007   7.323   3.600   3.948
14513TIP3    H294008   7.349   3.745   3.913
14514TIP3   OH294009   5.956   2.050   5.093
14514TIP3    H194010   5.966   1.967   5.140
14514TIP3    H294011   6.004   2.113   5.146
14515TIP3   OH294012   5.939   3.723   3.504
14515TIP3    H194013   5.895   3.751   3.584
14515TIP3    H294014   6.030   3.711   3.529
14516TIP3   OH294015   7.868   2.772   4.695
14516TIP3    H194016   7.862   2.684   4.733
14516TIP3    H294017   7.900   2.827   4.767
14517TIP3   OH294018   7.916   3.202   4.529
14517TIP3    H194019   7.911   3.111   4.499
14517TIP3    H294020   7.952   3.196   4.617
14518TIP3   OH294021   7.601   2.563   3.974
14518TIP3    H194022   7.590   2.644   4.023
14518TIP3    H294023   7.527   2.560   3.914
14519TIP3   OH294024   7.688   2.827   4.317
14519TIP3    H194025   7.714   2.737   4.335
14519TIP3    H294026   7.765   2.880   4.338
14520TIP3   OH294027   8.017   2.251   4.373
14520TIP3    H194028   8.066   2.256   4.291
14520TIP3    H294029   8.052   2.174   4.418
14521TIP3   OH294030   7.750   2.567   4.384
14521TIP3    H194031   7.815   2.534   4.446
14521TIP3    H294032   7.767   2.519   4.303
14522TIP3   OH294033   7.965   2.241   4.748
14522TIP3    H194034   7.958   2.319   4.693
14522TIP3    H294035   7.886   2.242   4.801
14523TIP3   OH294036   7.935   2.438   4.546
14523TIP3    H194037   8.005   2.502   4.557
14523TIP3    H294038   7.970   2.375   4.482
14524TIP3   OH294039   8.022   3.211   4.793
14524TIP3    H194040   8.052   3.302   4.797
14524TIP3    H294041   7.954   3.205   4.860
14525TIP3   OH294042   7.685   3.191   3.906
14525TIP3    H194043   7.678   3.243   3.827
14525TIP3    H294044   7.704   3.255   3.975
14526TIP3   OH294045   8.069   2.803   4.252
14526TIP3    H194046   8.048   2.829   4.162
14526TIP3    H294047   0.019   2.818   4.260
14527TIP3   OH294048   7.922   2.891   4.937
14527TIP3    H194049   7.982   2.856   5.002
14527TIP3    H294050   7.835   2.872   4.972
14528TIP3   OH294051   8.007   3.429   5.108
14528TIP3    H194052   8.050   3.465   5.031
14528TIP3    H294053   7.942   3.367   5.073
14529TIP3   OH294054   8.004   2.823   3.976
14529TIP3    H194055   7.983   2.900   3.924
14529TIP3    H294056   7.926   2.768   3.971
14530TIP3   OH294057   7.633   3.077   4.895
14530TIP3    H194058   7.579   3.089   4.817
14530TIP3    H294059   7.638   2.982   4.907
14531TIP3   OH294060   7.579   3.365   4.574
14531TIP3    H194061   7.661   3.374   4.623
14531TIP3    H294062   7.527   3.441   4.600
14532TIP3   OH294063   7.927   3.588   4.206
14532TIP3    H194064   7.958   3.546   4.286
14532TIP3    H294065   7.883   3.518   4.158
14533TIP3   OH294066   7.829   3.236   5.000
14533TIP3    H194067   7.854   3.189   5.080
14533TIP3    H294068   7.763   3.180   4.959
14534TIP3   OH294069   8.066   2.042   4.549
14534TIP3    H194070   7.971   2.036   4.541
14534TIP3    H294071   8.080   2.097   4.627
14535TIP3   OH294072   8.117   2.607   4.837
14535TIP3    H194073   8.029   2.572   4.851
14535TIP3    H294074   8.133   2.593   4.744
14536TIP3   OH294075   8.064   2.524   4.195
14536TIP3    H194076   7.973   2.495   4.192
14536TIP3    H294077   8.060   2.611   4.233
14537TIP3   OH294078   7.847   2.536   4.875
14537TIP3    H194079   7.829   2.563   4.965
14537TIP3    H294080   7.814   2.446   4.869
14538TIP3   OH294081   7.534   2.284   4.300
14538TIP3    H194082   7.617   2.278   4.348
14538TIP3    H294083   7.560   2.284   4.207
14539TIP3   OH294084   7.617   2.321   3.756
14539TIP3    H194085   7.657   2.321   3.668
14539TIP3    H294086   7.641   2.406   3.793
14540TIP3   OH294087   7.801   2.436   4.147
14540TIP3    H194088   7.737   2.460   4.081
14540TIP3    H294089   7.833   2.350   4.119
14541TIP3   OH294090   0.013   2.550   3.663
14541TIP3    H194091   8.131   2.557   3.571
14541TIP3    H294092   0.050   2.636   3.683
14542TIP3   OH294093   7.919   2.190   4.076
14542TIP3    H194094   7.883   2.115   4.122
14542TIP3    H294095   8.003   2.160   4.042
14543TIP3   OH294096   7.914   2.921   4.455
14543TIP3    H194097   7.981   2.886   4.396
14543TIP3    H294098   7.923   2.869   4.535
14544TIP3   OH294099   7.662   2.823   5.019
14544TIP3    H194100   7.665   2.820   5.114
14544TIP3    H294101   7.630   2.737   4.993
14545TIP3   OH294102   7.686   2.838   3.701
14545TIP3    H194103   7.745   2.900   3.744
14545TIP3    H294104   7.743   2.789   3.642
14546TIP3   OH294105   7.738   2.273   4.907
14546TIP3    H194106   7.647   2.302   4.915
14546TIP3    H294107   7.739   2.186   4.947
14547TIP3   OH294108   7.760   3.479   4.764
14547TIP3    H194109   7.761   3.420   4.840
14547TIP3    H294110   7.771   3.566   4.801
14548TIP3   OH294111   7.876   3.018   3.806
14548TIP3    H194112   7.810   3.067   3.856
14548TIP3    H294113   7.931   3.085   3.767
14549TIP3   OH294114   8.046   2.294   3.698
14549TIP3    H194115   8.074   2.385   3.697
14549TIP3    H294116   8.077   2.258   3.614
14550TIP3   OH294117   7.991   3.239   3.677
14550TIP3    H194118   7.992   3.326   3.715
14550TIP3    H294119   8.082   3.224   3.649
14551TIP3   OH294120   7.800   2.006   4.479
14551TIP3    H194121   7.807   1.991   4.384
14551TIP3    H294122   7.791   1.918   4.516
14552TIP3   OH294123   7.726   3.399   4.087
14552TIP3    H194124   7.685   3.428   4.169
14552TIP3    H294125   7.702   3.467   4.023
14553TIP3   OH294126   7.702   3.253   3.607
14553TIP3    H194127   7.797   3.259   3.615
14553TIP3    H294128   7.687   3.247   3.513
14554TIP3   OH294129   7.566   3.727   4.167
14554TIP3    H194130   7.505   3.704   4.097
14554TIP3    H294131   7.577   3.646   4.217
14555TIP3   OH294132   7.627   3.504   4.327
14555TIP3    H194133   7.593   3.437   4.386
14555TIP3    H294134   7.684   3.558   4.382
14556TIP3   OH294135   7.631   2.868   4.588
14556TIP3    H194136   7.642   2.865   4.493
14556TIP3    H294137   7.716   2.845   4.624
14557TIP3   OH294138   7.708   2.261   4.520
14557TIP3    H194139   7.746   2.174   4.512
14557TIP3    H294140   7.783   2.319   4.536
14558TIP3   OH294141   7.511   2.555   4.519
14558TIP3    H194142   7.593   2.564   4.472
14558TIP3    H294143   7.517   2.618   4.591
14559TIP3   OH294144   7.550   2.237   4.021
14559TIP3    H194145   7.458   2.216   4.006
14559TIP3    H294146   7.582   2.264   3.935
14560TIP3   OH294147   7.564   2.023   4.807
14560TIP3    H194148   7.495   1.991   4.866
14560TIP3    H294149   7.516   2.070   4.738
14561TIP3   OH294150   8.094   3.480   4.848
14561TIP3    H194151   8.062   3.559   4.805
14561TIP3    H294152   0.045   3.483   4.836
14562TIP3   OH294153   7.781   3.745   4.835
14562TIP3    H194154   7.707   3.797   4.802
14562TIP3    H294155   7.786   3.766   4.928
14563TIP3   OH294156   8.038   3.723   4.726
14563TIP3    H194157   7.946   3.740   4.749
14563TIP3    H294158   8.055   3.781   4.651
14564TIP3   OH294159   7.792   3.623   4.521
14564TIP3    H194160   7.772   3.582   4.606
14564TIP3    H294161   7.874   3.581   4.493
14565TIP3   OH294162   7.999   3.452   4.446
14565TIP3    H194163   7.956   3.368   4.459
14565TIP3    H294164   8.078   3.447   4.499
14566TIP3   OH294165   7.800   1.955   4.201
14566TIP3    H194166   7.709   1.928   4.191
14566TIP3    H294167   7.850   1.874   4.199
14567TIP3   OH294168   7.690   1.969   3.775
14567TIP3    H194169   7.749   2.013   3.714
14567TIP3    H294170   7.674   2.034   3.844
14568TIP3   OH294171   7.659   3.575   3.892
14568TIP3    H194172   7.577   3.578   3.843
14568TIP3    H294173   7.704   3.656   3.868
14569TIP3   OH294174   7.860   2.105   3.605
14569TIP3    H194175   7.925   2.103   3.535
14569TIP3    H294176   7.894   2.171   3.667
14570TIP3   OH294177   7.811   2.026   5.070
14570TIP3    H194178   7.818   1.945   5.121
14570TIP3    H294179   7.838   2.095   5.130
14571TIP3   OH294180   7.921   3.628   3.533
14571TIP3    H194181   7.851   3.669   3.585
14571TIP3    H294182   8.002   3.666   3.567
14572TIP3   OH294183   1.191   4.816   4.179
14572TIP3    H194184   1.182   4.910   4.163
14572TIP3    H294185   1.129   4.775   4.119
14573TIP3   OH294186   1.036   4.713   4.564
14573TIP3    H194187   1.067   4.667   4.642
14573TIP3    H294188   1.007   4.643   4.505
14574TIP3   OH294189   0.305   4.645   4.724
14574TIP3    H194190   0.275   4.563   4.764
14574TIP3    H294191   0.342   4.695   4.796
14575TIP3   OH294192   1.459   5.043   4.396
14575TIP3    H194193   1.436   4.960   4.440
14575TIP3    H294194   1.477   5.104   4.467
14576TIP3   OH294195   0.451   5.114   4.495
14576TIP3    H194196   0.419   5.026   4.479
14576TIP3    H294197   0.546   5.103   4.504
14577TIP3   OH294198   0.079   4.556   4.065
14577TIP3    H194199   0.126   4.613   4.126
14577TIP3    H294200   8.144   4.604   4.043
14578TIP3   OH294201   0.197   4.695   4.277
14578TIP3    H194202   0.202   4.615   4.329
14578TIP3    H294203   0.260   4.755   4.319
14579TIP3   OH294204   1.194   5.493   4.445
14579TIP3    H194205   1.229   5.453   4.365
14579TIP3    H294206   1.185   5.420   4.507
14580TIP3   OH294207   0.924   4.966   4.587
14580TIP3    H194208   0.958   4.881   4.560
14580TIP3    H294209   0.997   5.007   4.634
14581TIP3   OH294210   1.765   4.105   4.674
14581TIP3    H194211   1.793   4.162   4.745
14581TIP3    H294212   1.833   4.114   4.608
14582TIP3   OH294213   1.207   4.399   4.586
14582TIP3    H194214   1.226   4.306   4.601
14582TIP3    H294215   1.210   4.409   4.491
14583TIP3   OH294216   0.587   4.196   4.308
14583TIP3    H194217   0.591   4.284   4.269
14583TIP3    H294218   0.534   4.145   4.248
14584TIP3   OH294219   1.350   4.224   4.170
14584TIP3    H194220   1.388   4.189   4.250
14584TIP3    H294221   1.426   4.254   4.119
14585TIP3   OH294222   0.225   4.443   4.391
14585TIP3    H194223   0.291   4.398   4.443
14585TIP3    H294224   0.237   4.408   4.303
14586TIP3   OH294225   0.712   4.596   4.350
14586TIP3    H194226   0.796   4.556   4.371
14586TIP3    H294227   0.668   4.532   4.295
14587TIP3   OH294228   1.828   4.265   4.892
14587TIP3    H194229   1.784   4.341   4.855
14587TIP3    H294230   1.770   4.235   4.962
14588TIP3   OH294231   0.446   4.110   4.734
14588TIP3    H194232   0.419   4.171   4.665
14588TIP3    H294233   0.375   4.113   4.799
14589TIP3   OH294234   1.164   5.064   4.055
14589TIP3    H194235   1.150   5.061   3.961
14589TIP3    H294236   1.117   5.143   4.084
14590TIP3   OH294237   0.726   4.864   4.756
14590TIP3    H194238   0.673   4.934   4.793
14590TIP3    H294239   0.794   4.910   4.706
14591TIP3   OH294240   1.439   4.174   4.427
14591TIP3    H194241   1.374   4.153   4.493
14591TIP3    H294242   1.502   4.230   4.472
14592TIP3   OH294243   0.413   4.278   4.515
14592TIP3    H194244   0.464   4.340   4.567
14592TIP3    H294245   0.475   4.244   4.451
14593TIP3   OH294246   0.567   5.080   4.853
14593TIP3    H194247   0.571   5.168   4.815
14593TIP3    H294248   0.480   5.075   4.894
14594TIP3   OH294249   0.182   5.075   3.929
14594TIP3    H194250   0.135   5.120   3.858
14594TIP3    H294251   0.197   5.143   3.995
14595TIP3   OH294252   1.472   5.244   4.596
14595TIP3    H194253   1.377   5.254   4.591
14595TIP3    H294254   1.506   5.329   4.567
14596TIP3   OH294255   1.515   4.005   4.727
14596TIP3    H194256   1.467   4.087   4.719
14596TIP3    H294257   1.606   4.029   4.711
14597TIP3   OH294258   0.805   3.824   4.500
14597TIP3    H194259   0.786   3.730   4.504
14597TIP3    H294260   0.723   3.866   4.528
14598TIP3   OH294261   1.309   5.381   4.221
14598TIP3    H194262   1.352   5.298   4.198
14598TIP3    H294263   1.379   5.445   4.220
14599TIP3   OH294264   1.421   5.143   4.142
14599TIP3    H194265   1.342   5.097   4.114
14599TIP3    H294266   1.444   5.101   4.225
14600TIP3   OH294267   1.611   5.009   4.959
14600TIP3    H194268   1.612   4.961   4.877
14600TIP3    H294269   1.609   5.101   4.933
14601TIP3   OH294270   1.058   4.723   3.951
14601TIP3    H194271   0.991   4.787   3.926
14601TIP3    H294272   1.123   4.728   3.881
14602TIP3   OH294273   1.096   4.556   3.627
14602TIP3    H194274   1.156   4.605   3.683
14602TIP3    H294275   1.147   4.481   3.597
14603TIP3   OH294276   1.779   4.681   4.791
14603TIP3    H194277   1.710   4.747   4.780
14603TIP3    H294278   1.838   4.695   4.717
14604TIP3   OH294279   1.410   4.739   4.032
14604TIP3    H194280   1.346   4.766   4.098
14604TIP3    H294281   1.478   4.693   4.080
14605TIP3   OH294282   1.396   4.547   4.972
14605TIP3    H194283   1.406   4.593   5.055
14605TIP3    H294284   1.357   4.611   4.913
14606TIP3   OH294285   0.570   4.797   4.217
14606TIP3    H194286   0.541   4.759   4.134
14606TIP3    H294287   0.626   4.730   4.256
14607TIP3   OH294288   0.731   5.140   4.480
14607TIP3    H194289   0.743   5.145   4.386
14607TIP3    H294290   0.801   5.081   4.510
14608TIP3   OH294291   0.588   4.694   4.582
14608TIP3    H194292   0.644   4.671   4.507
14608TIP3    H294293   0.642   4.753   4.634
14609TIP3   OH294294   1.199   5.269   4.618
14609TIP3    H194295   1.190   5.333   4.688
14609TIP3    H294296   1.172   5.186   4.658
14610TIP3   OH294297   0.706   5.173   5.077
14610TIP3    H194298   0.634   5.217   5.122
14610TIP3    H294299   0.664   5.125   5.006
14611TIP3   OH294300   1.292   4.703   3.789
14611TIP3    H194301   1.328   4.709   3.877
14611TIP3    H294302   1.340   4.770   3.740
14612TIP3   OH294303   0.366   4.744   4.980
14612TIP3    H194304   0.372   4.828   5.024
14612TIP3    H294305   0.274   4.718   4.990
14613TIP3   OH294306   1.065   5.317   4.111
14613TIP3    H194307   1.142   5.339   4.163
14613TIP3    H294308   1.036   5.400   4.074
14614TIP3   OH294309   0.458   5.343   5.104
14614TIP3    H194310   0.507   5.368   5.026
14614TIP3    H294311   0.401   5.272   5.074
14615TIP3   OH294312   1.650   3.855   3.769
14615TIP3    H194313   1.567   3.876   3.812
14615TIP3    H294314   1.702   3.935   3.778
14616TIP3   OH294315   0.475   4.702   3.963
14616TIP3    H194316   0.417   4.762   3.915
14616TIP3    H294317   0.423   4.622   3.973
14617TIP3   OH294318   1.765   5.286   3.664
14617TIP3    H194319   1.805   5.372   3.670
14617TIP3    H294320   1.838   5.227   3.646
14618TIP3   OH294321   0.111   4.967   4.951
14618TIP3    H194322   0.047   5.002   4.889
14618TIP3    H294323   0.101   4.872   4.944
14619TIP3   OH294324   0.081   5.279   4.579
14619TIP3    H194325   0.080   5.183   4.586
14619TIP3    H294326   0.128   5.308   4.657
14620TIP3   OH294327   1.905   5.297   5.073
14620TIP3    H194328   1.975   5.269   5.133
14620TIP3    H294329   1.825   5.287   5.124
14621TIP3   OH294330   0.956   5.269   5.041
14621TIP3    H194331   0.964   5.343   5.101
14621TIP3    H294332   0.870   5.232   5.060
14622TIP3   OH294333   1.033   5.554   3.966
14622TIP3    H194334   1.033   5.570   3.872
14622TIP3    H294335   1.010   5.638   4.005
14623TIP3   OH294336   0.392   5.481   4.195
14623TIP3    H194337   0.408   5.450   4.284
14623TIP3    H294338   0.333   5.416   4.157
14624TIP3   OH294339   1.324   5.531   3.674
14624TIP3    H194340   1.384   5.461   3.646
14624TIP3    H294341   1.337   5.536   3.769
14625TIP3   OH294342   1.318   5.550   3.954
14625TIP3    H194343   1.227   5.533   3.977
14625TIP3    H294344   1.368   5.526   4.032
14626TIP3   OH294345   0.340   5.104   5.011
14626TIP3    H194346   0.349   5.078   5.102
14626TIP3    H294347   0.258   5.063   4.982
14627TIP3   OH294348   0.554   3.909   4.582
14627TIP3    H194349   0.486   3.902   4.515
14627TIP3    H294350   0.527   3.983   4.637
14628TIP3   OH294351   1.041   3.890   4.952
14628TIP3    H194352   1.091   3.834   5.011
14628TIP3    H294353   0.950   3.877   4.977
14629TIP3   OH294354   1.344   4.271   5.014
14629TIP3    H194355   1.301   4.284   5.098
14629TIP3    H294356   1.369   4.359   4.986
14630TIP3   OH294357   0.967   4.095   3.612
14630TIP3    H194358   0.909   4.084   3.688
14630TIP3    H294359   1.049   4.127   3.649
14631TIP3   OH294360   0.542   4.443   4.694
14631TIP3    H194361   0.485   4.441   4.770
14631TIP3    H294362   0.537   4.534   4.663
14632TIP3   OH294363   0.561   4.436   4.178
14632TIP3    H194364   0.466   4.426   4.173
14632TIP3    H294365   0.591   4.424   4.088
14633TIP3   OH294366   1.102   4.475   4.058
14633TIP3    H194367   1.076   4.562   4.028
14633TIP3    H294368   1.176   4.451   4.003
14634TIP3   OH294369   1.199   4.411   4.310
14634TIP3    H194370   1.163   4.455   4.233
14634TIP3    H294371   1.247   4.336   4.275
14635TIP3   OH294372   0.373   4.385   4.914
14635TIP3    H194373   0.353   4.426   4.998
14635TIP3    H294374   0.315   4.309   4.910
14636TIP3   OH294375   0.082   4.073   4.205
14636TIP3    H194376   0.095   4.102   4.296
14636TIP3    H294377   0.155   4.013   4.188
14637TIP3   OH294378   0.177   4.267   3.830
14637TIP3    H194379   0.234   4.232   3.761
14637TIP3    H294380   0.124   4.334   3.785
14638TIP3   OH294381   1.091   4.541   4.784
14638TIP3    H194382   1.140   4.491   4.718
14638TIP3    H294383   1.097   4.488   4.863
14639TIP3   OH294384   0.867   4.148   4.256
14639TIP3    H194385   0.778   4.156   4.290
14639TIP3    H294386   0.919   4.117   4.331
14640TIP3   OH294387   0.299   4.355   4.136
14640TIP3    H194388   0.230   4.377   4.074
14640TIP3    H294389   0.322   4.264   4.116
14641TIP3   OH294390   0.635   4.374   3.919
14641TIP3    H194391   0.729   4.364   3.937
14641TIP3    H294392   0.632   4.409   3.830
14642TIP3   OH294393   1.227   4.126   4.606
14642TIP3    H194394   1.194   4.122   4.695
14642TIP3    H294395   1.161   4.081   4.553
14643TIP3   OH294396   0.617   4.454   3.655
14643TIP3    H194397   0.563   4.441   3.577
14643TIP3    H294398   0.698   4.492   3.621
14644TIP3   OH294399   0.947   4.471   4.437
14644TIP3    H194400   1.026   4.448   4.388
14644TIP3    H294401   0.938   4.401   4.501
14645TIP3   OH294402   0.421   4.097   4.102
14645TIP3    H194403   0.372   4.015   4.111
14645TIP3    H294404   0.462   4.090   4.016
14646TIP3   OH294405   0.799   4.353   4.732
14646TIP3    H194406   0.712   4.385   4.709
14646TIP3    H294407   0.852   4.432   4.739
14647TIP3   OH294408   0.877   4.917   3.868
14647TIP3    H194409   0.809   4.864   3.825
14647TIP3    H294410   0.835   4.948   3.948
14648TIP3   OH294411   1.589   4.872   4.720
14648TIP3    H194412   1.656   4.924   4.675
14648TIP3    H294413   1.523   4.855   4.652
14649TIP3   OH294414   1.200   4.223   3.743
14649TIP3    H194415   1.229   4.248   3.655
14649TIP3    H294416   1.231   4.293   3.800
14650TIP3   OH294417   1.001   4.977   4.978
14650TIP3    H194418   1.072   4.960   5.040
14650TIP3    H294419   0.970   5.065   5.001
14651TIP3   OH294420   1.316   4.427   3.888
14651TIP3    H194421   1.398   4.401   3.929
14651TIP3    H294422   1.336   4.509   3.844
14652TIP3   OH294423   0.394   4.837   4.431
14652TIP3    H194424   0.455   4.832   4.357
14652TIP3    H294425   0.434   4.782   4.498
14653TIP3   OH294426   1.092   5.061   3.767
14653TIP3    H194427   1.052   5.148   3.774
14653TIP3    H294428   1.024   5.000   3.793
14654TIP3   OH294429   0.099   4.688   4.984
14654TIP3    H194430   0.038   4.693   5.058
14654TIP3    H294431   0.064   4.618   4.929
14655TIP3   OH294432   1.219   5.144   5.072
14655TIP3    H194433   1.148   5.207   5.061
14655TIP3    H294434   1.268   5.176   5.147
14656TIP3   OH294435   1.724   4.464   3.796
14656TIP3    H194436   1.759   4.403   3.730
14656TIP3    H294437   1.790   4.466   3.865
14657TIP3   OH294438   1.832   4.956   5.122
14657TIP3    H194439   1.750   4.989   5.084
14657TIP3    H294440   1.894   4.957   5.049
14658TIP3   OH294441   1.640   5.311   3.916
14658TIP3    H194442   1.594   5.235   3.949
14658TIP3    H294443   1.674   5.284   3.831
14659TIP3   OH294444   1.386   4.804   4.528
14659TIP3    H194445   1.291   4.802   4.519
14659TIP3    H294446   1.415   4.722   4.487
14660TIP3   OH294447   0.660   5.226   4.214
14660TIP3    H194448   0.680   5.308   4.169
14660TIP3    H294449   0.570   5.236   4.245
14661TIP3   OH294450   0.109   4.677   3.723
14661TIP3    H194451   0.189   4.727   3.743
14661TIP3    H294452   0.042   4.716   3.779
14662TIP3   OH294453   0.727   4.990   4.085
14662TIP3    H194454   0.713   5.074   4.128
14662TIP3    H294455   0.674   4.928   4.135
14663TIP3   OH294456   0.844   5.389   4.805
14663TIP3    H194457   0.894   5.468   4.785
14663TIP3    H294458   0.895   5.344   4.872
14664TIP3   OH294459   0.644   5.486   4.087
14664TIP3    H194460   0.552   5.487   4.114
14664TIP3    H294461   0.681   5.566   4.124
14665TIP3   OH294462   1.143   5.028   4.748
14665TIP3    H194463   1.092   5.011   4.827
14665TIP3    H294464   1.228   4.987   4.764
14666TIP3   OH294465   1.361   5.084   3.661
14666TIP3    H194466   1.415   5.032   3.719
14666TIP3    H294467   1.273   5.080   3.699
14667TIP3   OH294468   1.389   5.455   4.958
14667TIP3    H194469   1.311   5.443   4.903
14667TIP3    H294470   1.436   5.528   4.918
14668TIP3   OH294471   1.872   5.545   3.722
14668TIP3    H194472   1.927   5.610   3.681
14668TIP3    H294473   1.787   5.588   3.733
14669TIP3   OH294474   0.239   4.133   4.917
14669TIP3    H194475   0.153   4.115   4.879
14669TIP3    H294476   0.249   4.066   4.985
14670TIP3   OH294477   1.502   4.917   3.835
14670TIP3    H194478   1.470   4.872   3.913
14670TIP3    H294479   1.597   4.919   3.847
14671TIP3   OH294480   0.227   5.405   4.791
14671TIP3    H194481   0.305   5.358   4.820
14671TIP3    H294482   0.236   5.493   4.828
14672TIP3   OH294483   0.648   5.170   3.717
14672TIP3    H194484   0.702   5.112   3.771
14672TIP3    H294485   0.664   5.258   3.753
14673TIP3   OH294486   0.309   4.867   3.804
14673TIP3    H194487   0.261   4.923   3.864
14673TIP3    H294488   0.358   4.927   3.748
14674TIP3   OH294489   1.136   4.143   4.871
14674TIP3    H194490   1.215   4.164   4.920
14674TIP3    H294491   1.110   4.057   4.903
14675TIP3   OH294492   1.204   4.070   3.984
14675TIP3    H194493   1.200   4.122   3.903
14675TIP3    H294494   1.248   4.127   4.046
14676TIP3   OH294495   0.958   5.295   3.809
14676TIP3    H194496   0.870   5.331   3.814
14676TIP3    H294497   1.012   5.354   3.860
14677TIP3   OH294498   0.887   4.303   4.023
14677TIP3    H194499   0.960   4.364   4.033
14677TIP3    H294500   0.881   4.259   4.108
14678TIP3   OH294501   1.003   4.361   5.008
14678TIP3    H194502   1.060   4.353   5.084
14678TIP3    H294503   1.026   4.287   4.952
14679TIP3   OH294504   0.968   3.958   4.076
14679TIP3    H194505   0.940   4.026   4.138
14679TIP3    H294506   1.056   3.985   4.050
14680TIP3   OH294507   0.711   5.426   3.824
14680TIP3    H194508   0.728   5.514   3.790
14680TIP3    H294509   0.686   5.440   3.915
14681TIP3   OH294510   0.559   4.116   3.854
14681TIP3    H194511   0.568   4.208   3.876
14681TIP3    H294512   0.649   4.083   3.849
14682TIP3   OH294513   1.623   4.199   5.069
14682TIP3    H194514   1.531   4.197   5.041
14682TIP3    H294515   1.636   4.116   5.113
14683TIP3   OH294516   1.444   4.551   4.414
14683TIP3    H194517   1.364   4.504   4.389
14683TIP3    H294518   1.491   4.491   4.471
14684TIP3   OH294519   0.395   5.077   3.636
14684TIP3    H194520   0.475   5.110   3.676
14684TIP3    H294521   0.407   5.091   3.542
14685TIP3   OH294522   1.568   5.500   4.545
14685TIP3    H194523   1.558   5.573   4.484
14685TIP3    H294524   1.660   5.501   4.569
14686TIP3   OH294525   0.326   3.899   4.428
14686TIP3    H194526   0.313   3.891   4.334
14686TIP3    H294527   0.284   3.822   4.465
14687TIP3   OH294528   0.198   5.317   4.078
14687TIP3    H194529   0.146   5.348   4.153
14687TIP3    H294530   0.169   5.372   4.005
14688TIP3   OH294531   1.486   5.326   3.592
14688TIP3    H194532   1.447   5.242   3.616
14688TIP3    H294533   1.580   5.313   3.601
14689TIP3   OH294534   1.360   4.914   5.022
14689TIP3    H194535   1.448   4.945   5.001
14689TIP3    H294536   1.309   4.993   5.038
14690TIP3   OH294537   0.678   4.756   3.770
14690TIP3    H194538   0.615   4.731   3.838
14690TIP3    H294539   0.696   4.675   3.722
14691TIP3   OH294540   0.599   4.600   4.991
14691TIP3    H194541   0.511   4.638   4.998
14691TIP3    H294542   0.643   4.653   4.925
14692TIP3   OH294543   0.830   4.585   3.552
14692TIP3    H194544   0.839   4.577   3.457
14692TIP3    H294545   0.919   4.580   3.585
14693TIP3   OH294546   0.629   4.299   5.027
14693TIP3    H194547   0.650   4.221   4.975
14693TIP3    H294548   0.547   4.330   4.989
14694TIP3   OH294549   0.702   4.110   4.838
14694TIP3    H194550   0.752   4.176   4.791
14694TIP3    H294551   0.617   4.108   4.794
14695TIP3   OH294552   0.846   4.631   4.861
14695TIP3    H194553   0.937   4.624   4.835
14695TIP3    H294554   0.818   4.718   4.831
14696TIP3   OH294555   0.759   3.865   4.959
14696TIP3    H194556   0.744   3.952   4.923
14696TIP3    H294557   0.690   3.811   4.920
14697TIP3   OH294558   0.798   5.656   3.683
14697TIP3    H194559   0.889   5.627   3.689
14697TIP3    H294560   0.789   5.688   3.593
14698TIP3   OH294561   0.105   5.109   3.636
14698TIP3    H194562   0.199   5.104   3.656
14698TIP3    H294563   0.099   5.084   3.544
14699TIP3   OH294564   0.013   5.640   4.162
14699TIP3    H194565   8.076   5.598   4.135
14699TIP3    H294566   0.053   5.580   4.225
14700TIP3   OH294567   0.100   5.433   4.315
14700TIP3    H194568   0.028   5.381   4.351
14700TIP3    H294569   0.149   5.462   4.392
14701TIP3   OH294570   1.824   5.513   4.642
14701TIP3    H194571   1.806   5.487   4.732
14701TIP3    H294572   1.869   5.597   4.650
14702TIP3   OH294573   1.764   5.449   4.899
14702TIP3    H194574   1.697   5.381   4.890
14702TIP3    H294575   1.831   5.410   4.956
14703TIP3   OH294576   1.775   4.883   3.907
14703TIP3    H194577   1.845   4.947   3.916
14703TIP3    H294578   1.786   4.824   3.981
14704TIP3   OH294579   1.831   4.712   4.115
14704TIP3    H194580   1.752   4.674   4.155
14704TIP3    H294581   1.890   4.728   4.188
14705TIP3   OH294582   1.826   4.996   4.650
14705TIP3    H194583   1.881   4.930   4.609
14705TIP3    H294584   1.859   5.079   4.616
14706TIP3   OH294585   1.566   5.261   4.860
14706TIP3    H194586   1.498   5.313   4.903
14706TIP3    H294587   1.535   5.250   4.770
14707TIP3   OH294588   1.793   4.718   3.686
14707TIP3    H194589   1.760   4.634   3.718
14707TIP3    H294590   1.780   4.779   3.759
14708TIP3   OH294591   1.587   4.585   4.177
14708TIP3    H194592   1.592   4.495   4.145
14708TIP3    H294593   1.550   4.577   4.265
14709TIP3   OH294594   0.091   4.735   4.575
14709TIP3    H194595   0.111   4.811   4.521
14709TIP3    H294596   0.172   4.716   4.620
14710TIP3   OH294597   1.715   4.737   5.237
14710TIP3    H194598   1.778   4.666   5.241
14710TIP3    H294599   1.762   4.810   5.196
14711TIP3   OH294600   1.513   4.204   3.591
14711TIP3    H194601   1.608   4.193   3.593
14711TIP3    H294602   1.479   4.132   3.643
14712TIP3   OH294603   1.557   4.346   4.000
14712TIP3    H194604   1.588   4.256   4.011
14712TIP3    H294605   1.615   4.384   3.935
14713TIP3   OH294606   1.587   4.369   4.568
14713TIP3    H194607   1.680   4.374   4.546
14713TIP3    H294608   1.583   4.389   4.662
14714TIP3   OH294609   1.624   4.456   4.830
14714TIP3    H194610   1.551   4.488   4.882
14714TIP3    H294611   1.679   4.533   4.816
14715TIP3   OH294612   1.592   4.078   4.044
14715TIP3    H194613   1.640   4.031   4.112
14715TIP3    H294614   1.537   4.012   4.003
14716TIP3   OH294615   0.164   4.115   4.471
14716TIP3    H194616   0.225   4.041   4.471
14716TIP3    H294617   0.218   4.191   4.494
14717TIP3   OH294618   0.008   4.475   4.574
14717TIP3    H194619   0.070   4.451   4.505
14717TIP3    H294620   0.010   4.570   4.577
14718TIP3   OH294621   1.776   4.125   3.648
14718TIP3    H194622   1.833   4.121   3.571
14718TIP3    H294623   1.831   4.160   3.718
14719TIP3   OH294624   0.032   4.038   3.890
14719TIP3    H194625   8.116   4.043   3.964
14719TIP3    H294626   0.090   4.114   3.901
14720TIP3   OH294627   1.490   5.578   4.186
14720TIP3    H194628   1.571   5.576   4.135
14720TIP3    H294629   1.507   5.638   4.258
14721TIP3   OH294630   0.030   3.941   4.843
14721TIP3    H194631   8.130   3.862   4.812
14721TIP3    H294632   8.110   4.011   4.832
14722TIP3   OH294633   0.573   5.373   4.852
14722TIP3    H194634   0.555   5.465   4.832
14722TIP3    H294635   0.668   5.364   4.843
14723TIP3   OH294636   0.972   5.478   5.223
14723TIP3    H194637   0.993   5.447   5.311
14723TIP3    H294638   1.052   5.523   5.194
14724TIP3   OH294639   1.199   5.601   5.117
14724TIP3    H194640   1.265   5.554   5.064
14724TIP3    H294641   1.234   5.599   5.206
14725TIP3   OH294642   1.743   3.835   4.920
14725TIP3    H194643   1.651   3.850   4.940
14725TIP3    H294644   1.755   3.740   4.933
14726TIP3   OH294645   0.266   5.669   4.881
14726TIP3    H194646   0.193   5.720   4.846
14726TIP3    H294647   0.281   5.706   4.968
14727TIP3   OH294648   0.533   5.641   4.810
14727TIP3    H194649   0.442   5.656   4.834
14727TIP3    H294650   0.544   5.686   4.726
14728TIP3   OH294651   0.962   5.626   4.719
14728TIP3    H194652   0.920   5.673   4.648
14728TIP3    H294653   0.980   5.693   4.785
14729TIP3   OH294654   1.197   5.494   4.770
14729TIP3    H194655   1.116   5.541   4.748
14729TIP3    H294656   1.267   5.556   4.751
14730TIP3   OH294657   1.436   5.637   4.746
14730TIP3    H194658   1.478   5.722   4.737
14730TIP3    H294659   1.481   5.581   4.683
14731TIP3   OH294660   0.250   5.531   4.530
14731TIP3    H194661   0.219   5.495   4.613
14731TIP3    H294662   0.327   5.478   4.508
14732TIP3   OH294663   0.463   5.382   4.445
14732TIP3    H194664   0.448   5.290   4.465
14732TIP3    H294665   0.549   5.401   4.483
14733TIP3   OH294666   0.722   5.411   4.552
14733TIP3    H194667   0.734   5.321   4.519
14733TIP3    H294668   0.761   5.410   4.639
14734TIP3   OH294669   1.018   4.004   4.445
14734TIP3    H194670   0.951   3.940   4.468
14734TIP3    H294671   1.088   3.953   4.404
14735TIP3   OH294672   1.529   3.849   4.411
14735TIP3    H194673   1.603   3.888   4.363
14735TIP3    H294674   1.493   3.922   4.462
14736TIP3   OH294675   1.728   3.928   4.241
14736TIP3    H194676   1.778   3.850   4.219
14736TIP3    H294677   1.793   3.998   4.243
14737TIP3   OH294678   0.271   3.864   4.156
14737TIP3    H194679   0.185   3.829   4.134
14737TIP3    H294680   0.328   3.788   4.157
14738TIP3   OH294681   0.186   3.847   3.759
14738TIP3    H194682   0.250   3.909   3.725
14738TIP3    H294683   0.124   3.901   3.808
14739TIP3   OH294684   0.772   3.800   4.213
14739TIP3    H194685   0.838   3.851   4.165
14739TIP3    H294686   0.791   3.819   4.305
14740TIP3   OH294687   1.213   3.841   4.347
14740TIP3    H194688   1.300   3.841   4.308
14740TIP3    H294689   1.203   3.754   4.386
14741TIP3   OH294690   1.419   3.901   3.920
14741TIP3    H194691   1.341   3.954   3.936
14741TIP3    H294692   1.391   3.811   3.937
14742TIP3   OH294693   0.125   5.470   3.861
14742TIP3    H194694   0.060   5.460   3.791
14742TIP3    H294695   0.150   5.562   3.856
14743TIP3   OH294696   0.369   4.034   3.669
14743TIP3    H194697   0.404   4.066   3.586
14743TIP3    H294698   0.436   4.057   3.734
14744TIP3   OH294699   0.837   4.085   3.860
14744TIP3    H194700   0.873   4.018   3.918
14744TIP3    H294701   0.858   4.168   3.903
14745TIP3   OH294702   1.051   5.552   3.687
14745TIP3    H194703   1.146   5.559   3.676
14745TIP3    H294704   1.028   5.472   3.639
14746TIP3   OH294705   1.701   5.558   4.008
14746TIP3    H194706   1.681   5.469   3.979
14746TIP3    H294707   1.693   5.612   3.929
14747TIP3   OH294708   0.279   3.922   5.110
14747TIP3    H194709   0.215   3.906   5.180
14747TIP3    H294710   0.346   3.975   5.153
14748TIP3   OH294711   0.384   5.615   3.649
14748TIP3    H194712   0.306   5.637   3.700
14748TIP3    H294713   0.389   5.519   3.654
14749TIP3   OH294714   3.075   4.823   4.168
14749TIP3    H194715   3.057   4.911   4.135
14749TIP3    H294716   3.023   4.816   4.248
14750TIP3   OH294717   2.941   4.718   4.556
14750TIP3    H194718   2.978   4.683   4.637
14750TIP3    H294719   2.888   4.646   4.521
14751TIP3   OH294720   2.180   4.628   4.692
14751TIP3    H194721   2.189   4.563   4.762
14751TIP3    H294722   2.269   4.655   4.672
14752TIP3   OH294723   3.347   5.040   4.387
14752TIP3    H194724   3.324   4.961   4.436
14752TIP3    H294725   3.367   5.105   4.455
14753TIP3   OH294726   2.372   5.103   4.509
14753TIP3    H194727   2.330   5.023   4.478
14753TIP3    H294728   2.374   5.093   4.605
14754TIP3   OH294729   1.900   4.465   4.003
14754TIP3    H194730   1.890   4.557   4.027
14754TIP3    H294731   1.924   4.422   4.085
14755TIP3   OH294732   2.022   4.754   4.318
14755TIP3    H194733   2.070   4.673   4.331
14755TIP3    H294734   2.088   4.823   4.326
14756TIP3   OH294735   3.078   5.473   4.434
14756TIP3    H194736   3.114   5.405   4.376
14756TIP3    H294737   3.071   5.430   4.519
14757TIP3   OH294738   2.823   4.971   4.589
14757TIP3    H194739   2.854   4.885   4.562
14757TIP3    H294740   2.894   5.007   4.641
14758TIP3   OH294741   3.692   4.121   4.671
14758TIP3    H194742   3.707   4.176   4.749
14758TIP3    H294743   3.737   4.167   4.600
14759TIP3   OH294744   3.099   4.372   4.574
14759TIP3    H194745   3.112   4.278   4.582
14759TIP3    H294746   3.089   4.387   4.480
14760TIP3   OH294747   2.458   4.218   4.358
14760TIP3    H194748   2.465   4.301   4.310
14760TIP3    H294749   2.452   4.151   4.290
14761TIP3   OH294750   3.255   4.254   4.158
14761TIP3    H194751   3.294   4.209   4.233
14761TIP3    H294752   3.330   4.291   4.111
14762TIP3   OH294753   2.194   4.555   4.400
14762TIP3    H194754   2.223   4.515   4.483
14762TIP3    H294755   2.139   4.488   4.360
14763TIP3   OH294756   2.576   4.609   4.376
14763TIP3    H194757   2.658   4.570   4.408
14763TIP3    H294758   2.542   4.543   4.315
14764TIP3   OH294759   3.724   4.282   4.892
14764TIP3    H194760   3.651   4.331   4.854
14764TIP3    H294761   3.727   4.311   4.983
14765TIP3   OH294762   2.318   4.116   4.747
14765TIP3    H194763   2.294   4.178   4.678
14765TIP3    H294764   2.245   4.121   4.810
14766TIP3   OH294765   3.048   5.072   4.048
14766TIP3    H194766   3.031   5.070   3.954
14766TIP3    H294767   3.005   5.151   4.080
14767TIP3   OH294768   2.584   4.895   4.713
14767TIP3    H194769   2.533   4.970   4.744
14767TIP3    H294770   2.664   4.934   4.678
14768TIP3   OH294771   3.347   4.126   4.385
14768TIP3    H194772   3.272   4.109   4.441
14768TIP3    H294773   3.399   4.190   4.433
14769TIP3   OH294774   2.290   4.314   4.557
14769TIP3    H194775   2.356   4.358   4.611
14769TIP3    H294776   2.340   4.276   4.485
14770TIP3   OH294777   2.415   5.107   4.787
14770TIP3    H194778   2.444   5.197   4.805
14770TIP3    H294779   2.327   5.102   4.825
14771TIP3   OH294780   1.993   5.056   3.926
14771TIP3    H194781   1.988   5.101   3.842
14771TIP3    H294782   2.003   5.126   3.991
14772TIP3   OH294783   3.371   5.246   4.584
14772TIP3    H194784   3.276   5.246   4.595
14772TIP3    H294785   3.394   5.337   4.566
14773TIP3   OH294786   3.432   4.009   4.708
14773TIP3    H194787   3.368   4.079   4.725
14773TIP3    H294788   3.516   4.055   4.704
14774TIP3   OH294789   2.677   3.806   4.513
14774TIP3    H194790   2.653   3.714   4.501
14774TIP3    H294791   2.596   3.850   4.537
14775TIP3   OH294792   3.209   5.366   4.198
14775TIP3    H194793   3.259   5.287   4.180
14775TIP3    H294794   3.275   5.433   4.214
14776TIP3   OH294795   3.320   5.124   4.126
14776TIP3    H194796   3.234   5.088   4.104
14776TIP3    H294797   3.340   5.088   4.212
14777TIP3   OH294798   3.499   5.014   4.950
14777TIP3    H194799   3.498   4.963   4.869
14777TIP3    H294800   3.503   5.105   4.921
14778TIP3   OH294801   2.955   4.699   3.871
14778TIP3    H194802   2.891   4.769   3.883
14778TIP3    H294803   3.040   4.743   3.877
14779TIP3   OH294804   2.928   4.556   3.633
14779TIP3    H194805   2.936   4.599   3.718
14779TIP3    H294806   3.003   4.497   3.629
14780TIP3   OH294807   3.649   4.649   4.744
14780TIP3    H194808   3.583   4.718   4.750
14780TIP3    H294809   3.722   4.690   4.697
14781TIP3   OH294810   3.308   4.757   4.042
14781TIP3    H194811   3.232   4.776   4.097
14781TIP3    H294812   3.370   4.713   4.100
14782TIP3   OH294813   3.267   4.520   4.935
14782TIP3    H194814   3.274   4.583   5.007
14782TIP3    H294815   3.197   4.555   4.880
14783TIP3   OH294816   2.475   4.811   4.207
14783TIP3    H194817   2.447   4.764   4.129
14783TIP3    H294818   2.519   4.745   4.260
14784TIP3   OH294819   2.648   5.153   4.452
14784TIP3    H194820   2.565   5.114   4.479
14784TIP3    H294821   2.714   5.095   4.490
14785TIP3   OH294822   2.440   4.684   4.609
14785TIP3    H194823   2.486   4.663   4.527
14785TIP3    H294824   2.488   4.759   4.645
14786TIP3   OH294825   3.104   5.242   4.636
14786TIP3    H194826   3.087   5.315   4.696
14786TIP3    H294827   3.078   5.164   4.685
14787TIP3   OH294828   2.586   5.137   5.047
14787TIP3    H194829   2.515   5.183   5.092
14787TIP3    H294830   2.540   5.077   4.987
14788TIP3   OH294831   3.254   4.695   3.785
14788TIP3    H194832   3.268   4.707   3.879
14788TIP3    H294833   3.306   4.764   3.744
14789TIP3   OH294834   2.294   4.722   5.003
14789TIP3    H194835   2.286   4.785   5.073
14789TIP3    H294836   2.204   4.712   4.969
14790TIP3   OH294837   2.955   5.334   4.101
14790TIP3    H194838   3.037   5.344   4.149
14790TIP3    H294839   2.921   5.424   4.091
14791TIP3   OH294840   2.351   5.282   5.107
14791TIP3    H194841   2.384   5.319   5.025
14791TIP3    H294842   2.332   5.358   5.161
14792TIP3   OH294843   3.532   3.837   3.776
14792TIP3    H194844   3.437   3.839   3.762
14792TIP3    H294845   3.564   3.916   3.732
14793TIP3   OH294846   2.374   4.696   3.969
14793TIP3    H194847   2.309   4.756   3.931
14793TIP3    H294848   2.328   4.613   3.978
14794TIP3   OH294849   3.645   5.278   3.666
14794TIP3    H194850   3.672   5.370   3.662
14794TIP3    H294851   3.727   5.229   3.658
14795TIP3   OH294852   1.980   4.953   4.891
14795TIP3    H194853   1.924   4.961   4.813
14795TIP3    H294854   1.999   4.860   4.897
14796TIP3   OH294855   1.927   5.258   4.584
14796TIP3    H194856   2.003   5.270   4.640
14796TIP3    H294857   1.873   5.336   4.600
14797TIP3   OH294858   3.818   5.301   5.075
14797TIP3    H194859   3.880   5.231   5.093
14797TIP3    H294860   3.756   5.299   5.148
14798TIP3   OH294861   2.830   5.249   5.012
14798TIP3    H194862   2.842   5.323   5.071
14798TIP3    H294863   2.742   5.216   5.032
14799TIP3   OH294864   2.911   5.587   3.989
14799TIP3    H194865   2.895   5.607   3.897
14799TIP3    H294866   2.895   5.670   4.035
14800TIP3   OH294867   2.240   5.441   4.177
14800TIP3    H194868   2.286   5.422   4.259
14800TIP3    H294869   2.173   5.372   4.171
14801TIP3   OH294870   3.204   5.518   3.675
14801TIP3    H194871   3.267   5.452   3.645
14801TIP3    H294872   3.216   5.523   3.769
14802TIP3   OH294873   3.184   5.537   3.954
14802TIP3    H194874   3.092   5.552   3.975
14802TIP3    H294875   3.217   5.484   4.026
14803TIP3   OH294876   2.173   5.152   4.909
14803TIP3    H194877   2.193   5.170   5.001
14803TIP3    H294878   2.101   5.088   4.913
14804TIP3   OH294879   2.426   3.911   4.591
14804TIP3    H194880   2.354   3.906   4.528
14804TIP3    H294881   2.405   3.986   4.647
14805TIP3   OH294882   2.916   3.894   4.952
14805TIP3    H194883   2.956   3.844   5.023
14805TIP3    H294884   2.822   3.893   4.972
14806TIP3   OH294885   3.223   4.257   5.014
14806TIP3    H194886   3.181   4.271   5.099
14806TIP3    H294887   3.239   4.346   4.981
14807TIP3   OH294888   2.888   4.085   3.585
14807TIP3    H194889   2.831   4.091   3.661
14807TIP3    H294890   2.937   4.003   3.599
14808TIP3   OH294891   2.457   4.440   4.738
14808TIP3    H194892   2.388   4.439   4.805
14808TIP3    H294893   2.458   4.531   4.706
14809TIP3   OH294894   2.479   4.432   4.186
14809TIP3    H194895   2.388   4.426   4.158
14809TIP3    H294896   2.530   4.402   4.110
14810TIP3   OH294897   3.006   4.480   4.040
14810TIP3    H194898   2.970   4.559   3.999
14810TIP3    H294899   3.081   4.457   3.985
14811TIP3   OH294900   3.083   4.415   4.303
14811TIP3    H194901   3.036   4.463   4.235
14811TIP3    H294902   3.133   4.348   4.257
14812TIP3   OH294903   2.221   4.429   4.888
14812TIP3    H194904   2.198   4.463   4.974
14812TIP3    H294905   2.186   4.340   4.888
14813TIP3   OH294906   1.945   4.078   4.180
14813TIP3    H194907   1.944   4.168   4.213
14813TIP3    H294908   2.037   4.054   4.179
14814TIP3   OH294909   1.960   4.262   3.822
14814TIP3    H194910   2.054   4.265   3.804
14814TIP3    H294911   1.947   4.328   3.890
14815TIP3   OH294912   3.040   4.559   4.765
14815TIP3    H194913   3.066   4.493   4.701
14815TIP3    H294914   2.980   4.513   4.823
14816TIP3   OH294915   2.736   4.131   4.303
14816TIP3    H194916   2.686   4.134   4.221
14816TIP3    H294917   2.678   4.173   4.367
14817TIP3   OH294918   2.229   4.370   4.085
14817TIP3    H194919   2.156   4.383   4.146
14817TIP3    H294920   2.231   4.276   4.069
14818TIP3   OH294921   2.584   4.375   3.897
14818TIP3    H194922   2.558   4.288   3.928
14818TIP3    H294923   2.531   4.389   3.819
14819TIP3   OH294924   3.135   4.094   4.561
14819TIP3    H194925   3.123   4.084   4.656
14819TIP3    H294926   3.060   4.048   4.523
14820TIP3   OH294927   2.454   4.438   3.651
14820TIP3    H194928   2.406   4.432   3.568
14820TIP3    H294929   2.532   4.489   3.630
14821TIP3   OH294930   2.803   4.480   4.483
14821TIP3    H194931   2.871   4.425   4.444
14821TIP3    H294932   2.776   4.432   4.562
14822TIP3   OH294933   2.233   4.090   4.062
14822TIP3    H194934   2.212   4.001   4.091
14822TIP3    H294935   2.329   4.092   4.059
14823TIP3   OH294936   2.716   4.350   4.719
14823TIP3    H194937   2.629   4.389   4.730
14823TIP3    H294938   2.766   4.381   4.794
14824TIP3   OH294939   2.779   4.922   3.868
14824TIP3    H194940   2.711   4.868   3.829
14824TIP3    H294941   2.737   4.961   3.945
14825TIP3   OH294942   3.481   4.867   4.715
14825TIP3    H194943   3.543   4.923   4.669
14825TIP3    H294944   3.410   4.855   4.652
14826TIP3   OH294945   3.145   4.191   3.740
14826TIP3    H194946   3.083   4.203   3.668
14826TIP3    H294947   3.159   4.279   3.775
14827TIP3   OH294948   2.861   4.967   4.972
14827TIP3    H194949   2.867   4.934   5.061
14827TIP3    H294950   2.843   5.061   4.983
14828TIP3   OH294951   3.218   4.429   3.862
14828TIP3    H194952   3.302   4.409   3.903
14828TIP3    H294953   3.231   4.516   3.822
14829TIP3   OH294954   2.278   4.861   4.400
14829TIP3    H194955   2.342   4.853   4.330
14829TIP3    H294956   2.278   4.775   4.443
14830TIP3   OH294957   2.987   5.060   3.743
14830TIP3    H194958   2.955   5.147   3.765
14830TIP3    H294959   2.919   5.000   3.774
14831TIP3   OH294960   2.011   4.684   4.957
14831TIP3    H194961   2.027   4.612   5.017
14831TIP3    H294962   1.930   4.660   4.911
14832TIP3   OH294963   3.110   5.200   5.018
14832TIP3    H194964   3.016   5.220   5.014
14832TIP3    H294965   3.131   5.200   5.111
14833TIP3   OH294966   3.659   4.437   3.797
14833TIP3    H194967   3.610   4.408   3.720
14833TIP3    H294968   3.684   4.527   3.777
14834TIP3   OH294969   3.713   4.943   5.108
14834TIP3    H194970   3.632   4.985   5.080
14834TIP3    H294971   3.775   4.962   5.038
14835TIP3   OH294972   3.512   5.314   3.916
14835TIP3    H194973   3.471   5.238   3.957
14835TIP3    H294974   3.549   5.280   3.834
14836TIP3   OH294975   3.277   4.804   4.528
14836TIP3    H194976   3.185   4.799   4.552
14836TIP3    H294977   3.296   4.718   4.488
14837TIP3   OH294978   2.541   5.257   4.217
14837TIP3    H194979   2.605   5.226   4.281
14837TIP3    H294980   2.460   5.266   4.266
14838TIP3   OH294981   2.038   4.847   3.627
14838TIP3    H194982   2.095   4.835   3.703
14838TIP3    H294983   1.963   4.790   3.644
14839TIP3   OH294984   2.612   5.018   4.068
14839TIP3    H194985   2.590   5.100   4.112
14839TIP3    H294986   2.568   4.951   4.119
14840TIP3   OH294987   2.731   5.393   4.787
14840TIP3    H194988   2.782   5.473   4.772
14840TIP3    H294989   2.782   5.345   4.853
14841TIP3   OH294990   2.511   5.524   4.091
14841TIP3    H194991   2.539   5.451   4.147
14841TIP3    H294992   2.549   5.602   4.133
14842TIP3   OH294993   3.041   5.000   4.768
14842TIP3    H194994   2.976   4.985   4.836
14842TIP3    H294995   3.124   4.973   4.808
14843TIP3   OH294996   3.266   5.065   3.654
14843TIP3    H194997   3.321   5.025   3.721
14843TIP3    H294998   3.178   5.066   3.692
14844TIP3   OH294999   3.286   5.441   4.962
14844TIP3    H195000   3.206   5.393   4.939
14844TIP3    H295001   3.290   5.512   4.897
14845TIP3   OH295002   3.721   5.542   3.690
14845TIP3    H195003   3.790   5.608   3.689
14845TIP3    H295004   3.640   5.593   3.696
14846TIP3   OH295005   2.100   4.174   4.914
14846TIP3    H195006   2.008   4.201   4.906
14846TIP3    H295007   2.098   4.101   4.976
14847TIP3   OH295008   3.415   4.927   3.843
14847TIP3    H195009   3.375   4.894   3.924
14847TIP3    H295010   3.509   4.925   3.860
14848TIP3   OH295011   2.118   5.382   4.757
14848TIP3    H195012   2.140   5.308   4.814
14848TIP3    H295013   2.126   5.459   4.813
14849TIP3   OH295014   2.550   5.173   3.719
14849TIP3    H195015   2.603   5.117   3.775
14849TIP3    H295016   2.550   5.258   3.762
14850TIP3   OH295017   2.203   4.887   3.849
14850TIP3    H195018   2.136   4.935   3.897
14850TIP3    H295019   2.252   4.954   3.801
14851TIP3   OH295020   3.099   4.081   4.832
14851TIP3    H195021   3.137   4.136   4.901
14851TIP3    H295022   3.037   4.025   4.878
14852TIP3   OH295023   3.129   4.074   3.987
14852TIP3    H195024   3.123   4.110   3.899
14852TIP3    H295025   3.153   4.149   4.042
14853TIP3   OH295026   2.886   5.292   3.838
14853TIP3    H195027   2.898   5.303   3.932
14853TIP3    H295028   2.899   5.380   3.801
14854TIP3   OH295029   2.862   4.246   4.000
14854TIP3    H195030   2.911   4.326   4.022
14854TIP3    H295031   2.771   4.271   4.010
14855TIP3   OH295032   2.886   4.405   4.938
14855TIP3    H195033   2.886   4.454   5.020
14855TIP3    H295034   2.919   4.319   4.961
14856TIP3   OH295035   2.926   3.964   4.142
14856TIP3    H195036   2.866   4.029   4.179
14856TIP3    H295037   2.980   4.013   4.080
14857TIP3   OH295038   2.530   5.429   3.836
14857TIP3    H195039   2.574   5.495   3.783
14857TIP3    H295040   2.561   5.445   3.925
14858TIP3   OH295041   2.477   4.087   3.725
14858TIP3    H195042   2.448   4.093   3.816
14858TIP3    H295043   2.573   4.094   3.729
14859TIP3   OH295044   3.488   4.178   5.082
14859TIP3    H195045   3.396   4.202   5.070
14859TIP3    H295046   3.506   4.115   5.013
14860TIP3   OH295047   3.321   4.543   4.410
14860TIP3    H195048   3.234   4.508   4.389
14860TIP3    H295049   3.360   4.476   4.466
14861TIP3   OH295050   2.288   5.105   3.644
14861TIP3    H195051   2.375   5.126   3.677
14861TIP3    H295052   2.300   5.094   3.550
14862TIP3   OH295053   3.451   5.514   4.561
14862TIP3    H195054   3.443   5.591   4.504
14862TIP3    H295055   3.544   5.511   4.583
14863TIP3   OH295056   2.186   3.900   4.446
14863TIP3    H195057   2.178   3.894   4.351
14863TIP3    H295058   2.153   3.817   4.479
14864TIP3   OH295059   2.024   5.281   4.086
14864TIP3    H195060   1.980   5.305   4.168
14864TIP3    H295061   2.018   5.360   4.031
14865TIP3   OH295062   3.374   5.318   3.585
14865TIP3    H195063   3.336   5.232   3.605
14865TIP3    H295064   3.468   5.307   3.602
14866TIP3   OH295065   3.234   4.952   4.983
14866TIP3    H195066   3.327   4.976   4.980
14866TIP3    H295067   3.189   5.034   5.003
14867TIP3   OH295068   2.580   4.760   3.779
14867TIP3    H195069   2.517   4.729   3.845
14867TIP3    H295070   2.593   4.685   3.721
14868TIP3   OH295071   2.513   4.550   5.023
14868TIP3    H195072   2.436   4.605   5.017
14868TIP3    H295073   2.576   4.588   4.962
14869TIP3   OH295074   2.667   4.581   3.552
14869TIP3    H195075   2.674   4.545   3.464
14869TIP3    H295076   2.755   4.576   3.587
14870TIP3   OH295077   2.460   4.281   5.085
14870TIP3    H195078   2.504   4.226   5.020
14870TIP3    H295079   2.478   4.371   5.056
14871TIP3   OH295080   2.569   4.133   4.866
14871TIP3    H195081   2.623   4.187   4.808
14871TIP3    H295082   2.484   4.130   4.822
14872TIP3   OH295083   2.690   4.683   4.860
14872TIP3    H195084   2.778   4.713   4.879
14872TIP3    H295085   2.649   4.755   4.812
14873TIP3   OH295086   2.632   3.876   4.967
14873TIP3    H195087   2.612   3.965   4.941
14873TIP3    H295088   2.568   3.822   4.919
14874TIP3   OH295089   2.669   5.618   3.687
14874TIP3    H195090   2.762   5.598   3.695
14874TIP3    H295091   2.666   5.705   3.647
14875TIP3   OH295092   2.007   5.124   3.657
14875TIP3    H195093   2.101   5.140   3.651
14875TIP3    H295094   1.996   5.032   3.633
14876TIP3   OH295095   1.911   5.610   4.170
14876TIP3    H195096   1.835   5.589   4.116
14876TIP3    H295097   1.918   5.538   4.232
14877TIP3   OH295098   1.964   5.396   4.337
14877TIP3    H195099   1.930   5.327   4.394
14877TIP3    H295100   2.023   5.446   4.393
14878TIP3   OH295101   3.711   5.515   4.650
14878TIP3    H195102   3.697   5.489   4.741
14878TIP3    H295103   3.755   5.600   4.655
14879TIP3   OH295104   3.667   5.454   4.911
14879TIP3    H195105   3.598   5.389   4.898
14879TIP3    H295106   3.730   5.411   4.969
14880TIP3   OH295107   3.683   4.880   3.916
14880TIP3    H195108   3.747   4.950   3.927
14880TIP3    H295109   3.698   4.822   3.991
14881TIP3   OH295110   3.735   4.692   4.122
14881TIP3    H195111   3.650   4.668   4.159
14881TIP3    H295112   3.789   4.711   4.198
14882TIP3   OH295113   3.701   5.004   4.626
14882TIP3    H195114   3.765   4.944   4.588
14882TIP3    H295115   3.731   5.091   4.601
14883TIP3   OH295116   3.472   5.267   4.849
14883TIP3    H195117   3.405   5.318   4.895
14883TIP3    H295118   3.439   5.257   4.760
14884TIP3   OH295119   3.723   4.691   3.718
14884TIP3    H195120   3.702   4.727   3.632
14884TIP3    H295121   3.702   4.761   3.779
14885TIP3   OH295122   3.480   4.589   4.188
14885TIP3    H195123   3.474   4.503   4.147
14885TIP3    H295124   3.434   4.580   4.271
14886TIP3   OH295125   1.960   4.758   4.593
14886TIP3    H195126   1.967   4.747   4.498
14886TIP3    H295127   2.038   4.716   4.629
14887TIP3   OH295128   3.583   4.697   5.148
14887TIP3    H195129   3.596   4.703   5.243
14887TIP3    H295130   3.624   4.776   5.113
14888TIP3   OH295131   3.403   4.248   3.633
14888TIP3    H195132   3.474   4.184   3.631
14888TIP3    H295133   3.330   4.203   3.674
14889TIP3   OH295134   3.467   4.349   3.993
14889TIP3    H195135   3.493   4.257   3.994
14889TIP3    H295136   3.531   4.392   3.936
14890TIP3   OH295137   3.468   4.334   4.540
14890TIP3    H195138   3.561   4.350   4.523
14890TIP3    H295139   3.457   4.356   4.632
14891TIP3   OH295140   3.498   4.427   4.804
14891TIP3    H195141   3.422   4.456   4.854
14891TIP3    H295142   3.549   4.507   4.789
14892TIP3   OH295143   3.533   4.079   4.007
14892TIP3    H195144   3.566   4.049   4.092
14892TIP3    H295145   3.466   4.014   3.984
14893TIP3   OH295146   2.000   4.099   4.529
14893TIP3    H195147   2.072   4.040   4.506
14893TIP3    H295148   2.016   4.177   4.476
14894TIP3   OH295149   1.859   4.412   4.560
14894TIP3    H195150   1.890   4.400   4.470
14894TIP3    H295151   1.938   4.433   4.610
14895TIP3   OH295152   3.617   4.065   3.632
14895TIP3    H195153   3.638   4.053   3.539
14895TIP3    H295154   3.694   4.111   3.668
14896TIP3   OH295155   1.901   4.008   3.915
14896TIP3    H195156   1.901   4.011   4.011
14896TIP3    H295157   1.922   4.097   3.888
14897TIP3   OH295158   3.377   5.581   4.197
14897TIP3    H195159   3.449   5.583   4.135
14897TIP3    H295160   3.408   5.631   4.272
14898TIP3   OH295161   1.943   3.875   4.734
14898TIP3    H195162   1.872   3.882   4.798
14898TIP3    H295163   1.939   3.956   4.683
14899TIP3   OH295164   2.468   5.366   4.864
14899TIP3    H195165   2.439   5.456   4.845
14899TIP3    H295166   2.563   5.369   4.849
14900TIP3   OH295167   2.869   5.458   5.181
14900TIP3    H195168   2.873   5.435   5.274
14900TIP3    H295169   2.947   5.511   5.166
14901TIP3   OH295170   3.101   5.599   5.122
14901TIP3    H195171   3.169   5.556   5.070
14901TIP3    H295172   3.134   5.597   5.212
14902TIP3   OH295173   3.629   3.832   4.973
14902TIP3    H195174   3.613   3.842   5.067
14902TIP3    H295175   3.627   3.738   4.958
14903TIP3   OH295176   2.142   5.651   4.862
14903TIP3    H195177   2.064   5.685   4.819
14903TIP3    H295178   2.152   5.704   4.941
14904TIP3   OH295179   2.414   5.628   4.806
14904TIP3    H195180   2.322   5.638   4.830
14904TIP3    H295181   2.425   5.684   4.729
14905TIP3   OH295182   2.854   5.629   4.710
14905TIP3    H195183   2.803   5.676   4.643
14905TIP3    H295184   2.871   5.695   4.778
14906TIP3   OH295185   3.085   5.488   4.752
14906TIP3    H195186   3.005   5.538   4.737
14906TIP3    H295187   3.155   5.553   4.752
14907TIP3   OH295188   3.317   5.641   4.771
14907TIP3    H195189   3.356   5.727   4.781
14907TIP3    H295190   3.367   5.600   4.700
14908TIP3   OH295191   2.145   5.512   4.512
14908TIP3    H195192   2.126   5.480   4.600
14908TIP3    H295193   2.226   5.466   4.487
14909TIP3   OH295194   2.361   5.363   4.418
14909TIP3    H195195   2.352   5.275   4.455
14909TIP3    H295196   2.440   5.398   4.461
14910TIP3   OH295197   2.608   5.416   4.538
14910TIP3    H195198   2.640   5.334   4.500
14910TIP3    H295199   2.641   5.415   4.628
14911TIP3   OH295200   2.901   3.979   4.466
14911TIP3    H195201   2.837   3.909   4.481
14911TIP3    H295202   2.855   4.040   4.408
14912TIP3   OH295203   3.463   3.861   4.483
14912TIP3    H195204   3.548   3.899   4.460
14912TIP3    H295205   3.435   3.911   4.559
14913TIP3   OH295206   3.604   3.949   4.242
14913TIP3    H195207   3.664   3.878   4.220
14913TIP3    H295208   3.661   4.022   4.264
14914TIP3   OH295209   2.146   3.848   4.173
14914TIP3    H195210   2.055   3.818   4.165
14914TIP3    H295211   2.198   3.769   4.168
14915TIP3   OH295212   2.036   3.840   3.748
14915TIP3    H195213   2.102   3.899   3.710
14915TIP3    H295214   1.986   3.895   3.808
14916TIP3   OH295215   2.616   3.832   4.200
14916TIP3    H195216   2.593   3.914   4.156
14916TIP3    H295217   2.656   3.860   4.282
14917TIP3   OH295218   3.145   3.866   4.290
14917TIP3    H195219   3.064   3.902   4.254
14917TIP3    H295220   3.116   3.796   4.349
14918TIP3   OH295221   3.323   3.892   4.033
14918TIP3    H195222   3.250   3.952   4.016
14918TIP3    H295223   3.291   3.806   4.006
14919TIP3   OH295224   2.057   5.517   3.938
14919TIP3    H195225   2.003   5.514   3.859
14919TIP3    H295226   2.013   5.579   3.996
14920TIP3   OH295227   2.242   3.970   3.617
14920TIP3    H195228   2.273   3.880   3.603
14920TIP3    H295229   2.318   4.017   3.652
14921TIP3   OH295230   2.748   4.065   3.825
14921TIP3    H195231   2.683   4.049   3.894
14921TIP3    H295232   2.812   4.123   3.866
14922TIP3   OH295233   2.930   5.530   3.693
14922TIP3    H195234   3.024   5.547   3.689
14922TIP3    H295235   2.914   5.468   3.622
14923TIP3   OH295236   3.576   5.566   3.998
14923TIP3    H195237   3.555   5.476   3.974
14923TIP3    H295238   3.569   5.615   3.916
14924TIP3   OH295239   2.135   3.953   5.093
14924TIP3    H195240   2.080   3.921   5.164
14924TIP3    H295241   2.207   3.997   5.137
14925TIP3   OH295242   2.275   5.566   3.737
14925TIP3    H195243   2.211   5.628   3.701
14925TIP3    H295244   2.314   5.525   3.660
14926TIP3   OH295245   4.974   4.802   4.174
14926TIP3    H195246   4.962   4.897   4.171
14926TIP3    H295247   4.896   4.767   4.130
14927TIP3   OH295248   4.852   4.720   4.565
14927TIP3    H195249   4.876   4.681   4.649
14927TIP3    H295250   4.799   4.654   4.522
14928TIP3   OH295251   4.055   4.637   4.726
14928TIP3    H195252   4.051   4.555   4.775
14928TIP3    H295253   4.110   4.694   4.781
14929TIP3   OH295254   5.246   5.033   4.402
14929TIP3    H195255   5.205   4.960   4.449
14929TIP3    H295256   5.257   5.101   4.469
14930TIP3   OH295257   4.230   5.113   4.470
14930TIP3    H195258   4.189   5.027   4.466
14930TIP3    H295259   4.320   5.096   4.498
14931TIP3   OH295260   3.847   4.453   4.021
14931TIP3    H195261   3.820   4.537   4.059
14931TIP3    H295262   3.785   4.438   3.949
14932TIP3   OH295263   3.920   4.711   4.333
14932TIP3    H195264   3.945   4.623   4.359
14932TIP3    H295265   3.998   4.764   4.351
14933TIP3   OH295266   4.982   5.491   4.439
14933TIP3    H195267   5.014   5.438   4.366
14933TIP3    H295268   4.967   5.428   4.510
14934TIP3   OH295269   4.715   4.968   4.586
14934TIP3    H195270   4.753   4.885   4.557
14934TIP3    H295271   4.782   5.006   4.642
14935TIP3   OH295272   5.558   4.147   4.667
14935TIP3    H195273   5.570   4.189   4.753
14935TIP3    H295274   5.587   4.213   4.604
14936TIP3   OH295275   4.986   4.390   4.575
14936TIP3    H195276   5.001   4.297   4.592
14936TIP3    H295277   4.987   4.398   4.479
14937TIP3   OH295278   4.360   4.194   4.317
14937TIP3    H195279   4.362   4.280   4.276
14937TIP3    H295280   4.297   4.143   4.266
14938TIP3   OH295281   5.137   4.228   4.159
14938TIP3    H195282   5.172   4.197   4.243
14938TIP3    H295283   5.212   4.268   4.115
14939TIP3   OH295284   3.984   4.454   4.411
14939TIP3    H195285   4.050   4.420   4.472
14939TIP3    H295286   4.009   4.419   4.326
14940TIP3   OH295287   4.481   4.598   4.355
14940TIP3    H195288   4.563   4.560   4.388
14940TIP3    H295289   4.443   4.529   4.301
14941TIP3   OH295290   5.576   4.263   4.919
14941TIP3    H195291   5.526   4.341   4.892
14941TIP3    H295292   5.511   4.208   4.963
14942TIP3   OH295293   4.212   4.114   4.741
14942TIP3    H195294   4.191   4.179   4.674
14942TIP3    H295295   4.138   4.117   4.802
14943TIP3   OH295296   4.941   5.063   4.089
14943TIP3    H195297   4.918   5.043   3.998
14943TIP3    H295298   4.894   5.144   4.108
14944TIP3   OH295299   4.480   4.889   4.721
14944TIP3    H195300   4.429   4.960   4.760
14944TIP3    H295301   4.554   4.933   4.678
14945TIP3   OH295302   5.218   4.169   4.416
14945TIP3    H195303   5.147   4.147   4.477
14945TIP3    H295304   5.270   4.234   4.464
14946TIP3   OH295305   4.191   4.290   4.526
14946TIP3    H195306   4.240   4.350   4.582
14946TIP3    H295307   4.256   4.257   4.464
14947TIP3   OH295308   4.328   5.094   4.840
14947TIP3    H195309   4.342   5.189   4.835
14947TIP3    H295310   4.234   5.084   4.855
14948TIP3   OH295311   3.884   5.075   3.925
14948TIP3    H195312   3.879   5.121   3.841
14948TIP3    H295313   3.906   5.143   3.988
14949TIP3   OH295314   5.259   5.241   4.594
14949TIP3    H195315   5.165   5.245   4.611
14949TIP3    H295316   5.284   5.331   4.573
14950TIP3   OH295317   5.306   4.028   4.744
14950TIP3    H195318   5.233   4.069   4.698
14950TIP3    H295319   5.384   4.064   4.702
14951TIP3   OH295320   4.566   3.802   4.501
14951TIP3    H195321   4.542   3.709   4.504
14951TIP3    H295322   4.487   3.848   4.530
14952TIP3   OH295323   5.097   5.379   4.209
14952TIP3    H195324   5.138   5.294   4.191
14952TIP3    H295325   5.170   5.440   4.218
14953TIP3   OH295326   5.204   5.134   4.148
14953TIP3    H195327   5.119   5.096   4.126
14953TIP3    H295328   5.228   5.093   4.231
14954TIP3   OH295329   5.391   5.012   4.957
14954TIP3    H195330   5.380   4.958   4.878
14954TIP3    H295331   5.398   5.102   4.923
14955TIP3   OH295332   4.831   4.716   3.934
14955TIP3    H195333   4.746   4.759   3.922
14955TIP3    H295334   4.893   4.776   3.894
14956TIP3   OH295335   4.844   4.546   3.631
14956TIP3    H195336   4.881   4.597   3.704
14956TIP3    H295337   4.919   4.497   3.596
14957TIP3   OH295338   5.545   4.686   4.797
14957TIP3    H195339   5.473   4.747   4.786
14957TIP3    H295340   5.608   4.710   4.728
14958TIP3   OH295341   5.200   4.745   4.033
14958TIP3    H195342   5.127   4.766   4.092
14958TIP3    H295343   5.265   4.704   4.090
14959TIP3   OH295344   5.155   4.522   4.937
14959TIP3    H195345   5.169   4.592   5.001
14959TIP3    H295346   5.079   4.550   4.886
14960TIP3   OH295347   4.335   4.791   4.222
14960TIP3    H195348   4.309   4.754   4.138
14960TIP3    H295349   4.393   4.726   4.261
14961TIP3   OH295350   4.515   5.141   4.483
14961TIP3    H195351   4.520   5.149   4.388
14961TIP3    H295352   4.590   5.085   4.506
14962TIP3   OH295353   4.345   4.693   4.581
14962TIP3    H195354   4.401   4.670   4.507
14962TIP3    H295355   4.393   4.761   4.628
14963TIP3   OH295356   4.995   5.267   4.656
14963TIP3    H195357   4.979   5.335   4.722
14963TIP3    H295358   4.962   5.186   4.696
14964TIP3   OH295359   4.489   5.133   5.068
14964TIP3    H195360   4.424   5.183   5.116
14964TIP3    H295361   4.442   5.099   4.992
14965TIP3   OH295362   5.105   4.689   3.782
14965TIP3    H195363   5.138   4.712   3.869
14965TIP3    H295364   5.120   4.767   3.730
14966TIP3   OH295365   4.167   4.728   4.974
14966TIP3    H195366   4.180   4.816   5.007
14966TIP3    H295367   4.074   4.711   4.990
14967TIP3   OH295368   4.841   5.321   4.117
14967TIP3    H195369   4.923   5.348   4.160
14967TIP3    H295370   4.805   5.401   4.080
14968TIP3   OH295371   4.279   5.300   5.144
14968TIP3    H195372   4.291   5.330   5.054
14968TIP3    H295373   4.234   5.372   5.187
14969TIP3   OH295374   5.420   3.827   3.779
14969TIP3    H195375   5.337   3.851   3.820
14969TIP3    H295376   5.453   3.909   3.742
14970TIP3   OH295377   4.233   4.705   3.973
14970TIP3    H195378   4.186   4.782   3.939
14970TIP3    H295379   4.166   4.637   3.980
14971TIP3   OH295380   5.517   5.283   3.650
14971TIP3    H195381   5.545   5.375   3.651
14971TIP3    H295382   5.598   5.233   3.646
14972TIP3   OH295383   3.851   4.949   4.863
14972TIP3    H195384   3.788   4.954   4.791
14972TIP3    H295385   3.857   4.856   4.883
14973TIP3   OH295386   3.807   5.262   4.577
14973TIP3    H195387   3.882   5.271   4.635
14973TIP3    H295388   3.754   5.340   4.594
14974TIP3   OH295389   5.710   5.264   5.043
14974TIP3    H195390   5.685   5.179   5.007
14974TIP3    H295391   5.676   5.262   5.133
14975TIP3   OH295392   4.723   5.269   5.038
14975TIP3    H195393   4.723   5.348   5.093
14975TIP3    H295394   4.638   5.228   5.055
14976TIP3   OH295395   4.800   5.576   3.990
14976TIP3    H195396   4.785   5.579   3.896
14976TIP3    H295397   4.763   5.657   4.024
14977TIP3   OH295398   4.153   5.475   4.182
14977TIP3    H195399   4.177   5.446   4.270
14977TIP3    H295400   4.097   5.406   4.148
14978TIP3   OH295401   5.106   5.579   3.698
14978TIP3    H195402   5.079   5.496   3.659
14978TIP3    H295403   5.114   5.560   3.791
14979TIP3   OH295404   5.073   5.542   3.971
14979TIP3    H195405   4.978   5.546   3.981
14979TIP3    H295406   5.102   5.482   4.040
14980TIP3   OH295407   4.060   5.118   4.904
14980TIP3    H195408   4.047   5.123   4.999
14980TIP3    H295409   3.989   5.062   4.873
14981TIP3   OH295410   4.321   3.909   4.588
14981TIP3    H195411   4.246   3.900   4.529
14981TIP3    H295412   4.299   3.983   4.644
14982TIP3   OH295413   4.822   3.891   4.952
14982TIP3    H195414   4.862   3.834   5.018
14982TIP3    H295415   4.727   3.883   4.968
14983TIP3   OH295416   5.124   4.258   5.023
14983TIP3    H195417   5.069   4.269   5.100
14983TIP3    H295418   5.133   4.347   4.988
14984TIP3   OH295419   4.748   4.085   3.584
14984TIP3    H195420   4.699   4.102   3.664
14984TIP3    H295421   4.807   4.013   3.608
14985TIP3   OH295422   4.314   4.450   4.713
14985TIP3    H195423   4.251   4.450   4.785
14985TIP3    H295424   4.312   4.540   4.679
14986TIP3   OH295425   4.335   4.431   4.185
14986TIP3    H195426   4.239   4.428   4.186
14986TIP3    H295427   4.358   4.412   4.094
14987TIP3   OH295428   4.880   4.469   4.042
14987TIP3    H195429   4.856   4.556   4.010
14987TIP3    H295430   4.956   4.445   3.988
14988TIP3   OH295431   4.982   4.412   4.303
14988TIP3    H195432   4.930   4.459   4.237
14988TIP3    H295433   5.024   4.341   4.255
14989TIP3   OH295434   4.097   4.418   4.895
14989TIP3    H195435   4.079   4.448   4.984
14989TIP3    H295436   4.067   4.327   4.893
14990TIP3   OH295437   3.780   4.148   4.279
14990TIP3    H195438   3.835   4.149   4.357
14990TIP3    H295439   3.822   4.209   4.219
14991TIP3   OH295440   3.827   4.220   3.738
14991TIP3    H195441   3.905   4.244   3.688
14991TIP3    H295442   3.786   4.303   3.759
14992TIP3   OH295443   4.921   4.555   4.782
14992TIP3    H195444   4.950   4.500   4.710
14992TIP3    H295445   4.860   4.501   4.832
14993TIP3   OH295446   4.638   4.146   4.262
14993TIP3    H195447   4.549   4.157   4.295
14993TIP3    H295448   4.689   4.119   4.338
14994TIP3   OH295449   4.066   4.359   4.165
14994TIP3    H195450   3.995   4.383   4.105
14994TIP3    H295451   4.087   4.269   4.142
14995TIP3   OH295452   4.401   4.349   3.928
14995TIP3    H195453   4.494   4.347   3.947
14995TIP3    H295454   4.394   4.400   3.847
14996TIP3   OH295455   5.015   4.116   4.602
14996TIP3    H195456   4.985   4.117   4.693
14996TIP3    H295457   4.944   4.076   4.553
14997TIP3   OH295458   4.371   4.461   3.678
14997TIP3    H195459   4.308   4.443   3.608
14997TIP3    H295460   4.452   4.483   3.632
14998TIP3   OH295461   4.702   4.482   4.481
14998TIP3    H195462   4.780   4.430   4.465
14998TIP3    H295463   4.658   4.438   4.554
14999TIP3   OH295464   4.165   4.096   4.130
14999TIP3    H195465   4.116   4.017   4.152
14999TIP3    H295466   4.205   4.076   4.045
15000TIP3   OH295467   4.578   4.359   4.699
15000TIP3    H195468   4.494   4.403   4.713
15000TIP3    H295469   4.630   4.382   4.776
15001TIP3   OH295470   4.617   4.882   3.888
15001TIP3    H195471   4.545   4.840   3.839
15001TIP3    H295472   4.574   4.923   3.963
15002TIP3   OH295473   5.357   4.872   4.720
15002TIP3    H195474   5.415   4.930   4.671
15002TIP3    H295475   5.284   4.856   4.661
15003TIP3   OH295476   5.024   4.196   3.744
15003TIP3    H195477   4.967   4.222   3.672
15003TIP3    H295478   5.050   4.279   3.785
15004TIP3   OH295479   4.753   4.989   4.983
15004TIP3    H195480   4.699   4.945   5.048
15004TIP3    H295481   4.740   5.083   5.000
15005TIP3   OH295482   5.103   4.426   3.873
15005TIP3    H195483   5.188   4.415   3.917
15005TIP3    H295484   5.107   4.514   3.836
15006TIP3   OH295485   4.155   4.832   4.426
15006TIP3    H195486   4.215   4.830   4.352
15006TIP3    H295487   4.199   4.782   4.495
15007TIP3   OH295488   4.856   4.999   3.833
15007TIP3    H195489   4.834   5.087   3.803
15007TIP3    H295490   4.771   4.956   3.848
15008TIP3   OH295491   3.888   4.708   5.008
15008TIP3    H195492   3.881   4.721   5.103
15008TIP3    H295493   3.820   4.643   4.987
15009TIP3   OH295494   5.005   5.214   5.036
15009TIP3    H195495   4.911   5.232   5.032
15009TIP3    H295496   5.023   5.202   5.130
15010TIP3   OH295497   5.557   4.440   3.792
15010TIP3    H195498   5.524   4.418   3.705
15010TIP3    H295499   5.575   4.534   3.789
15011TIP3   OH295500   5.604   4.962   5.123
15011TIP3    H195501   5.520   4.993   5.089
15011TIP3    H295502   5.663   4.965   5.048
15012TIP3   OH295503   5.423   5.306   3.916
15012TIP3    H195504   5.366   5.237   3.951
15012TIP3    H295505   5.438   5.280   3.825
15013TIP3   OH295506   5.146   4.805   4.538
15013TIP3    H195507   5.050   4.801   4.544
15013TIP3    H295508   5.170   4.728   4.487
15014TIP3   OH295509   4.429   5.228   4.225
15014TIP3    H195510   4.443   5.307   4.173
15014TIP3    H295511   4.348   5.246   4.273
15015TIP3   OH295512   3.992   4.743   3.650
15015TIP3    H195513   4.031   4.789   3.724
15015TIP3    H295514   3.909   4.708   3.683
15016TIP3   OH295515   4.488   4.989   4.101
15016TIP3    H195516   4.475   5.075   4.139
15016TIP3    H295517   4.432   4.931   4.153
15017TIP3   OH295518   4.621   5.396   4.803
15017TIP3    H195519   4.672   5.474   4.783
15017TIP3    H295520   4.671   5.351   4.870
15018TIP3   OH295521   4.415   5.477   4.086
15018TIP3    H195522   4.322   5.487   4.108
15018TIP3    H295523   4.458   5.550   4.130
15019TIP3   OH295524   4.923   5.017   4.771
15019TIP3    H195525   4.862   5.004   4.844
15019TIP3    H295526   5.003   4.972   4.799
15020TIP3   OH295527   5.159   5.013   3.626
15020TIP3    H195528   5.211   4.997   3.705
15020TIP3    H295529   5.102   5.086   3.650
15021TIP3   OH295530   5.199   5.404   4.962
15021TIP3    H195531   5.123   5.347   4.980
15021TIP3    H295532   5.164   5.472   4.904
15022TIP3   OH295533   5.608   5.542   3.692
15022TIP3    H195534   5.673   5.612   3.697
15022TIP3    H295535   5.524   5.588   3.698
15023TIP3   OH295536   3.988   4.158   4.901
15023TIP3    H195537   3.897   4.190   4.899
15023TIP3    H295538   3.988   4.092   4.970
15024TIP3   OH295539   5.304   4.929   3.849
15024TIP3    H195540   5.260   4.886   3.922
15024TIP3    H295541   5.397   4.930   3.874
15025TIP3   OH295542   3.999   5.359   4.763
15025TIP3    H195543   4.028   5.281   4.811
15025TIP3    H295544   3.990   5.426   4.830
15026TIP3   OH295545   4.436   5.177   3.743
15026TIP3    H195546   4.510   5.125   3.775
15026TIP3    H295547   4.454   5.266   3.774
15027TIP3   OH295548   4.090   4.906   3.849
15027TIP3    H195549   4.021   4.956   3.892
15027TIP3    H295550   4.135   4.969   3.793
15028TIP3   OH295551   4.928   4.131   4.863
15028TIP3    H195552   4.998   4.155   4.924
15028TIP3    H295553   4.893   4.049   4.897
15029TIP3   OH295554   4.986   4.066   3.990
15029TIP3    H195555   4.989   4.111   3.906
15029TIP3    H295556   5.028   4.127   4.051
15030TIP3   OH295557   4.732   5.235   3.769
15030TIP3    H195558   4.681   5.309   3.801
15030TIP3    H295559   4.803   5.275   3.718
15031TIP3   OH295560   4.661   4.300   4.024
15031TIP3    H195561   4.733   4.361   4.031
15031TIP3    H295562   4.653   4.261   4.111
15032TIP3   OH295563   4.770   4.361   4.908
15032TIP3    H195564   4.756   4.358   5.003
15032TIP3    H295565   4.814   4.279   4.888
15033TIP3   OH295566   4.741   3.965   4.078
15033TIP3    H195567   4.709   4.032   4.138
15033TIP3    H295568   4.829   3.995   4.052
15034TIP3   OH295569   4.522   5.426   3.835
15034TIP3    H195570   4.524   5.514   3.797
15034TIP3    H295571   4.490   5.439   3.924
15035TIP3   OH295572   4.358   4.114   3.778
15035TIP3    H195573   4.350   4.196   3.828
15035TIP3    H295574   4.449   4.086   3.791
15036TIP3   OH295575   5.362   4.115   5.008
15036TIP3    H195576   5.281   4.160   5.029
15036TIP3    H295577   5.344   4.072   4.924
15037TIP3   OH295578   5.209   4.556   4.406
15037TIP3    H195579   5.123   4.520   4.381
15037TIP3    H295580   5.244   4.493   4.468
15038TIP3   OH295581   4.183   5.100   3.663
15038TIP3    H195582   4.263   5.130   3.707
15038TIP3    H295583   4.209   5.089   3.571
15039TIP3   OH295584   5.336   5.507   4.575
15039TIP3    H195585   5.322   5.580   4.514
15039TIP3    H295586   5.430   5.507   4.591
15040TIP3   OH295587   4.080   3.890   4.453
15040TIP3    H195588   4.069   3.884   4.358
15040TIP3    H295589   4.045   3.808   4.486
15041TIP3   OH295590   3.950   5.295   4.088
15041TIP3    H195591   3.906   5.323   4.168
15041TIP3    H295592   3.928   5.363   4.024
15042TIP3   OH295593   5.275   5.324   3.469
15042TIP3    H195594   5.191   5.314   3.514
15042TIP3    H295595   5.341   5.307   3.537
15043TIP3   OH295596   5.124   4.951   5.006
15043TIP3    H195597   5.214   4.982   4.997
15043TIP3    H295598   5.072   5.030   5.020
15044TIP3   OH295599   4.418   4.738   3.766
15044TIP3    H195600   4.356   4.727   3.838
15044TIP3    H295601   4.422   4.651   3.724
15045TIP3   OH295602   4.388   4.549   5.018
15045TIP3    H195603   4.309   4.602   5.007
15045TIP3    H295604   4.451   4.587   4.957
15046TIP3   OH295605   4.583   4.553   3.543
15046TIP3    H195606   4.593   4.552   3.447
15046TIP3    H295607   4.672   4.555   3.576
15047TIP3   OH295608   4.358   4.273   5.073
15047TIP3    H195609   4.404   4.230   5.001
15047TIP3    H295610   4.362   4.366   5.052
15048TIP3   OH295611   4.466   4.137   4.846
15048TIP3    H195612   4.511   4.196   4.785
15048TIP3    H295613   4.377   4.131   4.811
15049TIP3   OH295614   4.577   4.668   4.857
15049TIP3    H195615   4.669   4.690   4.867
15049TIP3    H295616   4.539   4.744   4.812
15050TIP3   OH295617   4.544   3.875   4.913
15050TIP3    H195618   4.517   3.966   4.900
15050TIP3    H295619   4.465   3.824   4.895
15051TIP3   OH295620   4.563   5.649   3.672
15051TIP3    H195621   4.657   5.637   3.686
15051TIP3    H295622   4.557   5.687   3.584
15052TIP3   OH295623   3.905   5.148   3.649
15052TIP3    H195624   3.999   5.146   3.663
15052TIP3    H295625   3.891   5.109   3.563
15053TIP3   OH295626   3.784   5.622   4.177
15053TIP3    H195627   3.722   5.595   4.109
15053TIP3    H295628   3.797   5.543   4.229
15054TIP3   OH295629   3.857   5.401   4.331
15054TIP3    H195630   3.821   5.331   4.385
15054TIP3    H295631   3.910   5.453   4.392
15055TIP3   OH295632   5.598   5.513   4.655
15055TIP3    H195633   5.590   5.490   4.748
15055TIP3    H295634   5.638   5.599   4.655
15056TIP3   OH295635   5.562   5.463   4.924
15056TIP3    H195636   5.493   5.399   4.904
15056TIP3    H295637   5.626   5.415   4.976
15057TIP3   OH295638   5.568   4.884   3.937
15057TIP3    H195639   5.632   4.955   3.944
15057TIP3    H295640   5.587   4.827   4.012
15058TIP3   OH295641   5.626   4.687   4.130
15058TIP3    H195642   5.540   4.663   4.164
15058TIP3    H295643   5.677   4.707   4.208
15059TIP3   OH295644   5.596   5.008   4.650
15059TIP3    H195645   5.647   4.944   4.601
15059TIP3    H295646   5.621   5.093   4.612
15060TIP3   OH295647   5.391   5.260   4.841
15060TIP3    H195648   5.322   5.307   4.888
15060TIP3    H295649   5.356   5.247   4.753
15061TIP3   OH295650   5.591   4.706   3.733
15061TIP3    H195651   5.534   4.737   3.663
15061TIP3    H295652   5.580   4.769   3.804
15062TIP3   OH295653   5.373   4.582   4.186
15062TIP3    H195654   5.361   4.495   4.148
15062TIP3    H295655   5.322   4.581   4.267
15063TIP3   OH295656   3.850   4.764   4.596
15063TIP3    H195657   3.866   4.753   4.502
15063TIP3    H295658   3.928   4.727   4.638
15064TIP3   OH295659   5.476   4.758   5.250
15064TIP3    H195660   5.489   4.674   5.206
15064TIP3    H295661   5.528   4.820   5.200
15065TIP3   OH295662   5.271   4.155   3.561
15065TIP3    H195663   5.351   4.123   3.602
15065TIP3    H295664   5.203   4.140   3.627
15066TIP3   OH295665   5.355   4.341   4.000
15066TIP3    H195666   5.381   4.249   4.003
15066TIP3    H295667   5.419   4.382   3.941
15067TIP3   OH295668   5.354   4.368   4.560
15067TIP3    H195669   5.446   4.377   4.536
15067TIP3    H295670   5.351   4.390   4.653
15068TIP3   OH295671   5.398   4.454   4.823
15068TIP3    H195672   5.314   4.476   4.863
15068TIP3    H295673   5.447   4.536   4.820
15069TIP3   OH295674   5.411   4.067   4.014
15069TIP3    H195675   5.436   4.032   4.100
15069TIP3    H295676   5.340   4.010   3.985
15070TIP3   OH295677   3.954   4.137   4.489
15070TIP3    H195678   3.995   4.050   4.490
15070TIP3    H295679   4.027   4.197   4.507
15071TIP3   OH295680   3.737   4.406   4.548
15071TIP3    H195681   3.818   4.421   4.500
15071TIP3    H295682   3.734   4.477   4.612
15072TIP3   OH295683   5.516   4.052   3.653
15072TIP3    H195684   5.550   4.047   3.563
15072TIP3    H295685   5.584   4.099   3.701
15073TIP3   OH295686   3.797   4.015   3.916
15073TIP3    H195687   3.707   4.029   3.945
15073TIP3    H295688   3.817   4.092   3.863
15074TIP3   OH295689   5.289   5.566   4.200
15074TIP3    H195690   5.361   5.571   4.138
15074TIP3    H295691   5.316   5.622   4.273
15075TIP3   OH295692   3.793   3.876   4.755
15075TIP3    H195693   3.736   3.870   4.832
15075TIP3    H295694   3.770   3.961   4.716
15076TIP3   OH295695   4.357   5.369   4.878
15076TIP3    H195696   4.323   5.455   4.855
15076TIP3    H295697   4.451   5.374   4.859
15077TIP3   OH295698   4.732   5.490   5.207
15077TIP3    H195699   4.747   5.446   5.290
15077TIP3    H295700   4.816   5.528   5.184
15078TIP3   OH295701   4.966   5.601   5.121
15078TIP3    H195702   5.019   5.561   5.051
15078TIP3    H295703   5.020   5.592   5.199
15079TIP3   OH295704   5.530   3.845   4.940
15079TIP3    H195705   5.460   3.873   4.998
15079TIP3    H295706   5.520   3.750   4.934
15080TIP3   OH295707   4.037   5.671   4.865
15080TIP3    H195708   3.957   5.697   4.820
15080TIP3    H295709   4.038   5.724   4.945
15081TIP3   OH295710   4.303   5.631   4.809
15081TIP3    H195711   4.212   5.642   4.833
15081TIP3    H295712   4.311   5.676   4.725
15082TIP3   OH295713   4.744   5.629   4.717
15082TIP3    H195714   4.690   5.656   4.643
15082TIP3    H295715   4.733   5.698   4.782
15083TIP3   OH295716   4.973   5.503   4.803
15083TIP3    H195717   4.894   5.546   4.772
15083TIP3    H295718   5.044   5.565   4.785
15084TIP3   OH295719   5.210   5.641   4.783
15084TIP3    H195720   5.249   5.729   4.779
15084TIP3    H295721   5.253   5.593   4.712
15085TIP3   OH295722   4.023   5.513   4.527
15085TIP3    H195723   4.004   5.474   4.612
15085TIP3    H295724   4.103   5.469   4.498
15086TIP3   OH295725   4.243   5.380   4.426
15086TIP3    H195726   4.226   5.289   4.450
15086TIP3    H295727   4.323   5.403   4.473
15087TIP3   OH295728   4.492   5.411   4.554
15087TIP3    H195729   4.506   5.321   4.524
15087TIP3    H295730   4.526   5.412   4.643
15088TIP3   OH295731   4.798   4.000   4.447
15088TIP3    H195732   4.736   3.931   4.471
15088TIP3    H295733   4.870   3.954   4.404
15089TIP3   OH295734   5.307   3.856   4.406
15089TIP3    H195735   5.373   3.912   4.365
15089TIP3    H295736   5.228   3.910   4.406
15090TIP3   OH295737   5.512   3.954   4.246
15090TIP3    H195738   5.577   3.886   4.229
15090TIP3    H295739   5.563   4.034   4.257
15091TIP3   OH295740   4.042   3.851   4.181
15091TIP3    H195741   3.949   3.834   4.167
15091TIP3    H295742   4.084   3.766   4.170
15092TIP3   OH295743   3.938   3.837   3.760
15092TIP3    H195744   4.006   3.894   3.724
15092TIP3    H295745   3.890   3.893   3.821
15093TIP3   OH295746   4.546   3.797   4.212
15093TIP3    H195747   4.607   3.860   4.173
15093TIP3    H295748   4.557   3.809   4.307
15094TIP3   OH295749   5.014   3.869   4.338
15094TIP3    H195750   5.041   3.852   4.248
15094TIP3    H295751   5.005   3.782   4.378
15095TIP3   OH295752   5.202   3.898   3.936
15095TIP3    H195753   5.126   3.954   3.948
15095TIP3    H295754   5.169   3.809   3.951
15096TIP3   OH295755   3.895   5.482   3.900
15096TIP3    H195756   3.823   5.472   3.838
15096TIP3    H295757   3.926   5.572   3.887
15097TIP3   OH295758   4.133   4.007   3.658
15097TIP3    H195759   4.159   4.024   3.567
15097TIP3    H295760   4.206   4.038   3.710
15098TIP3   OH295761   4.633   4.093   3.842
15098TIP3    H195762   4.656   4.024   3.905
15098TIP3    H295763   4.644   4.175   3.890
15099TIP3   OH295764   4.828   5.588   3.704
15099TIP3    H195765   4.915   5.627   3.709
15099TIP3    H295766   4.841   5.506   3.658
15100TIP3   OH295767   5.485   5.558   4.001
15100TIP3    H195768   5.465   5.469   3.973
15100TIP3    H295769   5.467   5.612   3.924
15101TIP3   OH295770   4.028   3.948   5.093
15101TIP3    H195771   3.976   3.917   5.167
15101TIP3    H295772   4.104   3.990   5.133
15102TIP3   OH295773   4.101   5.617   3.561
15102TIP3    H195774   4.038   5.621   3.632
15102TIP3    H295775   4.164   5.551   3.588
15103TIP3   OH295776   6.828   4.823   4.137
15103TIP3    H195777   6.831   4.916   4.114
15103TIP3    H295778   6.798   4.823   4.228
15104TIP3   OH295779   6.709   4.727   4.544
15104TIP3    H195780   6.716   4.692   4.633
15104TIP3    H295781   6.674   4.654   4.493
15105TIP3   OH295782   5.954   4.628   4.684
15105TIP3    H195783   5.963   4.572   4.761
15105TIP3    H295784   6.043   4.658   4.666
15106TIP3   OH295785   7.123   5.061   4.369
15106TIP3    H195786   7.123   4.978   4.418
15106TIP3    H295787   7.140   5.128   4.435
15107TIP3   OH295788   6.113   5.115   4.468
15107TIP3    H195789   6.078   5.027   4.458
15107TIP3    H295790   6.204   5.101   4.496
15108TIP3   OH295791   5.720   4.439   4.043
15108TIP3    H195792   5.698   4.526   4.075
15108TIP3    H295793   5.669   4.430   3.962
15109TIP3   OH295794   5.808   4.710   4.342
15109TIP3    H195795   5.836   4.621   4.365
15109TIP3    H295796   5.887   4.763   4.354
15110TIP3   OH295797   6.854   5.503   4.445
15110TIP3    H195798   6.891   5.455   4.371
15110TIP3    H295799   6.845   5.438   4.514
15111TIP3   OH295800   6.592   4.974   4.583
15111TIP3    H195801   6.627   4.890   4.555
15111TIP3    H295802   6.662   5.014   4.635
15112TIP3   OH295803   7.463   4.115   4.668
15112TIP3    H195804   7.462   4.180   4.738
15112TIP3    H295805   7.531   4.146   4.608
15113TIP3   OH295806   6.878   4.393   4.633
15113TIP3    H195807   6.955   4.380   4.688
15113TIP3    H295808   6.870   4.312   4.582
15114TIP3   OH295809   6.219   4.192   4.324
15114TIP3    H195810   6.232   4.279   4.286
15114TIP3    H295811   6.167   4.145   4.259
15115TIP3   OH295812   7.013   4.221   4.154
15115TIP3    H195813   7.053   4.184   4.233
15115TIP3    H295814   7.085   4.266   4.110
15116TIP3   OH295815   5.874   4.449   4.412
15116TIP3    H195816   5.942   4.425   4.475
15116TIP3    H295817   5.905   4.411   4.329
15117TIP3   OH295818   6.361   4.587   4.374
15117TIP3    H195819   6.447   4.551   4.396
15117TIP3    H295820   6.322   4.522   4.315
15118TIP3   OH295821   7.476   4.237   4.925
15118TIP3    H195822   7.445   4.327   4.922
15118TIP3    H295823   7.408   4.190   4.973
15119TIP3   OH295824   5.985   4.074   4.727
15119TIP3    H195825   6.026   4.142   4.674
15119TIP3    H295826   5.944   4.121   4.799
15120TIP3   OH295827   6.841   5.077   4.033
15120TIP3    H195828   6.825   5.075   3.938
15120TIP3    H295829   6.798   5.156   4.063
15121TIP3   OH295830   6.367   4.879   4.723
15121TIP3    H195831   6.320   4.950   4.768
15121TIP3    H295832   6.442   4.923   4.682
15122TIP3   OH295833   7.113   4.135   4.400
15122TIP3    H195834   7.033   4.138   4.453
15122TIP3    H295835   7.169   4.203   4.436
15123TIP3   OH295836   6.078   4.268   4.551
15123TIP3    H195837   6.130   4.327   4.606
15123TIP3    H295838   6.136   4.246   4.478
15124TIP3   OH295839   6.223   5.081   4.847
15124TIP3    H195840   6.213   5.176   4.835
15124TIP3    H295841   6.141   5.053   4.887
15125TIP3   OH295842   5.770   5.075   3.925
15125TIP3    H195843   5.756   5.119   3.841
15125TIP3    H295844   5.790   5.146   3.986
15126TIP3   OH295845   7.141   5.267   4.569
15126TIP3    H195846   7.046   5.271   4.581
15126TIP3    H295847   7.167   5.357   4.550
15127TIP3   OH295848   7.207   4.007   4.709
15127TIP3    H195849   7.159   4.087   4.732
15127TIP3    H295850   7.292   4.038   4.679
15128TIP3   OH295851   6.462   3.795   4.484
15128TIP3    H195852   6.439   3.702   4.492
15128TIP3    H295853   6.389   3.842   4.524
15129TIP3   OH295854   6.973   5.360   4.234
15129TIP3    H195855   7.025   5.282   4.218
15129TIP3    H295856   7.033   5.433   4.218
15130TIP3   OH295857   7.110   5.139   4.104
15130TIP3    H195858   7.023   5.105   4.082
15130TIP3    H295859   7.129   5.102   4.190
15131TIP3   OH295860   7.268   5.011   4.949
15131TIP3    H195861   7.268   4.961   4.867
15131TIP3    H295862   7.272   5.103   4.921
15132TIP3   OH295863   6.714   4.716   3.909
15132TIP3    H195864   6.650   4.784   3.886
15132TIP3    H295865   6.761   4.752   3.984
15133TIP3   OH295866   6.712   4.581   3.660
15133TIP3    H195867   6.718   4.627   3.744
15133TIP3    H295868   6.796   4.536   3.651
15134TIP3   OH295869   7.453   4.682   4.814
15134TIP3    H195870   7.385   4.746   4.793
15134TIP3    H295871   7.510   4.681   4.737
15135TIP3   OH295872   7.074   4.750   4.033
15135TIP3    H195873   6.993   4.770   4.080
15135TIP3    H295874   7.134   4.718   4.101
15136TIP3   OH295875   6.930   4.573   5.045
15136TIP3    H195876   6.979   4.629   5.106
15136TIP3    H295877   6.972   4.588   4.960
15137TIP3   OH295878   6.248   4.791   4.212
15137TIP3    H195879   6.221   4.750   4.130
15137TIP3    H295880   6.296   4.722   4.258
15138TIP3   OH295881   6.393   5.140   4.481
15138TIP3    H195882   6.406   5.145   4.386
15138TIP3    H295883   6.465   5.086   4.512
15139TIP3   OH295884   6.217   4.690   4.592
15139TIP3    H195885   6.274   4.660   4.521
15139TIP3    H295886   6.269   4.755   4.639
15140TIP3   OH295887   6.874   5.279   4.632
15140TIP3    H195888   6.867   5.342   4.704
15140TIP3    H295889   6.844   5.196   4.669
15141TIP3   OH295890   6.372   5.160   5.072
15141TIP3    H195891   6.300   5.207   5.114
15141TIP3    H295892   6.333   5.116   4.998
15142TIP3   OH295893   7.043   4.662   3.778
15142TIP3    H195894   7.048   4.681   3.872
15142TIP3    H295895   7.065   4.744   3.735
15143TIP3   OH295896   6.051   4.727   4.983
15143TIP3    H195897   6.059   4.822   4.983
15143TIP3    H295898   5.958   4.711   4.967
15144TIP3   OH295899   6.740   5.330   4.093
15144TIP3    H195900   6.812   5.337   4.155
15144TIP3    H295901   6.708   5.420   4.082
15145TIP3   OH295902   6.135   5.313   5.130
15145TIP3    H195903   6.158   5.338   5.041
15145TIP3    H295904   6.105   5.394   5.171
15146TIP3   OH295905   7.303   3.849   3.743
15146TIP3    H195906   7.227   3.877   3.793
15146TIP3    H295907   7.351   3.930   3.725
15147TIP3   OH295908   6.146   4.703   3.960
15147TIP3    H195909   6.089   4.775   3.933
15147TIP3    H295910   6.090   4.626   3.960
15148TIP3   OH295911   7.420   5.260   3.653
15148TIP3    H195912   7.441   5.353   3.660
15148TIP3    H295913   7.504   5.216   3.645
15149TIP3   OH295914   5.739   4.979   4.887
15149TIP3    H195915   5.686   4.996   4.810
15149TIP3    H295916   5.758   4.885   4.883
15150TIP3   OH295917   5.697   5.263   4.581
15150TIP3    H195918   5.775   5.275   4.636
15150TIP3    H295919   5.644   5.341   4.597
15151TIP3   OH295920   7.607   5.286   5.055
15151TIP3    H195921   7.674   5.228   5.091
15151TIP3    H295922   7.534   5.280   5.116
15152TIP3   OH295923   6.619   5.268   5.039
15152TIP3    H195924   6.623   5.348   5.091
15152TIP3    H295925   6.532   5.232   5.058
15153TIP3   OH295926   6.698   5.583   3.993
15153TIP3    H195927   6.686   5.594   3.898
15153TIP3    H295928   6.670   5.666   4.031
15154TIP3   OH295929   6.036   5.475   4.183
15154TIP3    H195930   6.060   5.447   4.271
15154TIP3    H295931   5.977   5.407   4.151
15155TIP3   OH295932   6.977   5.516   3.652
15155TIP3    H195933   7.040   5.448   3.631
15155TIP3    H295934   6.984   5.527   3.747
15156TIP3   OH295935   6.969   5.537   3.933
15156TIP3    H195936   6.879   5.538   3.966
15156TIP3    H295937   7.022   5.520   4.011
15157TIP3   OH295938   5.999   5.002   4.987
15157TIP3    H195939   5.997   5.036   5.076
15157TIP3    H295940   5.910   5.014   4.955
15158TIP3   OH295941   6.247   3.928   4.602
15158TIP3    H195942   6.189   3.975   4.542
15158TIP3    H295943   6.272   3.994   4.667
15159TIP3   OH295944   6.694   3.862   4.944
15159TIP3    H195945   6.736   3.819   5.018
15159TIP3    H295946   6.601   3.864   4.967
15160TIP3   OH295947   6.875   4.252   4.988
15160TIP3    H195948   6.902   4.268   5.078
15160TIP3    H295949   6.949   4.282   4.935
15161TIP3   OH295950   6.620   4.078   3.630
15161TIP3    H195951   6.569   4.076   3.711
15161TIP3    H295952   6.702   4.122   3.655
15162TIP3   OH295953   6.215   4.438   4.719
15162TIP3    H195954   6.151   4.441   4.789
15162TIP3    H295955   6.225   4.529   4.691
15163TIP3   OH295956   6.218   4.432   4.190
15163TIP3    H195957   6.122   4.425   4.186
15163TIP3    H295958   6.247   4.417   4.100
15164TIP3   OH295959   6.761   4.469   4.035
15164TIP3    H195960   6.736   4.554   3.998
15164TIP3    H295961   6.840   4.445   3.987
15165TIP3   OH295962   6.835   4.400   4.297
15165TIP3    H195963   6.802   4.439   4.217
15165TIP3    H295964   6.892   4.328   4.268
15166TIP3   OH295965   5.995   4.432   4.888
15166TIP3    H195966   5.993   4.467   4.976
15166TIP3    H295967   5.944   4.351   4.893
15167TIP3   OH295968   5.664   4.178   4.255
15167TIP3    H195969   5.726   4.171   4.328
15167TIP3    H295970   5.683   4.263   4.215
15168TIP3   OH295971   5.719   4.214   3.758
15168TIP3    H195972   5.761   4.230   3.674
15168TIP3    H295973   5.679   4.297   3.781
15169TIP3   OH295974   6.704   4.558   4.767
15169TIP3    H195975   6.768   4.507   4.718
15169TIP3    H295976   6.691   4.509   4.848
15170TIP3   OH295977   6.495   4.180   4.254
15170TIP3    H195978   6.409   4.176   4.296
15170TIP3    H295979   6.551   4.127   4.310
15171TIP3   OH295980   5.954   4.352   4.165
15171TIP3    H195981   5.878   4.375   4.112
15171TIP3    H295982   5.975   4.262   4.139
15172TIP3   OH295983   6.280   4.364   3.928
15172TIP3    H195984   6.375   4.358   3.944
15172TIP3    H295985   6.273   4.402   3.841
15173TIP3   OH295986   6.871   4.130   4.533
15173TIP3    H195987   6.861   4.103   4.624
15173TIP3    H295988   6.793   4.095   4.489
15174TIP3   OH295989   6.250   4.452   3.670
15174TIP3    H195990   6.177   4.466   3.609
15174TIP3    H295991   6.327   4.486   3.624
15175TIP3   OH295992   6.609   4.478   4.453
15175TIP3    H195993   6.687   4.444   4.408
15175TIP3    H295994   6.607   4.430   4.536
15176TIP3   OH295995   6.063   4.096   4.111
15176TIP3    H195996   6.017   4.013   4.128
15176TIP3    H295997   6.105   4.083   4.026
15177TIP3   OH295998   6.472   4.320   4.744
15177TIP3    H195999   6.398   4.381   4.740
15177TIP3    H296000   6.526   4.353   4.816
15178TIP3   OH296001   6.537   4.940   3.857
15178TIP3    H196002   6.473   4.878   3.821
15178TIP3    H296003   6.501   4.964   3.942
15179TIP3   OH296004   7.268   4.866   4.712
15179TIP3    H196005   7.327   4.916   4.655
15179TIP3    H296006   7.194   4.844   4.656
15180TIP3   OH296007   6.854   4.222   3.722
15180TIP3    H196008   6.877   4.253   3.634
15180TIP3    H296009   6.887   4.290   3.780
15181TIP3   OH296010   6.667   4.993   4.975
15181TIP3    H196011   6.686   4.949   5.058
15181TIP3    H296012   6.639   5.081   5.000
15182TIP3   OH296013   6.980   4.411   3.873
15182TIP3    H196014   7.062   4.379   3.912
15182TIP3    H296015   7.004   4.493   3.831
15183TIP3   OH296016   6.055   4.834   4.408
15183TIP3    H196017   6.117   4.833   4.336
15183TIP3    H296018   6.099   4.787   4.479
15184TIP3   OH296019   6.758   5.074   3.752
15184TIP3    H196020   6.725   5.163   3.764
15184TIP3    H296021   6.687   5.017   3.780
15185TIP3   OH296022   5.773   4.708   4.965
15185TIP3    H196023   5.761   4.701   5.060
15185TIP3    H296024   5.689   4.680   4.929
15186TIP3   OH296025   6.900   5.189   5.075
15186TIP3    H196026   6.812   5.222   5.056
15186TIP3    H296027   6.958   5.261   5.051
15187TIP3   OH296028   7.426   4.444   3.817
15187TIP3    H196029   7.392   4.431   3.729
15187TIP3    H296030   7.452   4.537   3.819
15188TIP3   OH296031   7.491   4.882   5.063
15188TIP3    H196032   7.413   4.937   5.060
15188TIP3    H296033   7.537   4.899   4.981
15189TIP3   OH296034   7.271   5.294   3.930
15189TIP3    H196035   7.219   5.239   3.989
15189TIP3    H296036   7.295   5.236   3.857
15190TIP3   OH296037   7.050   4.800   4.540
15190TIP3    H196038   6.955   4.805   4.550
15190TIP3    H296039   7.067   4.714   4.502
15191TIP3   OH296040   6.312   5.221   4.216
15191TIP3    H196041   6.321   5.305   4.170
15191TIP3    H296042   6.234   5.231   4.270
15192TIP3   OH296043   5.858   4.754   3.651
15192TIP3    H196044   5.897   4.792   3.729
15192TIP3    H296045   5.771   4.726   3.679
15193TIP3   OH296046   6.400   4.993   4.088
15193TIP3    H196047   6.376   5.076   4.129
15193TIP3    H296048   6.349   4.927   4.135
15194TIP3   OH296049   6.501   5.392   4.804
15194TIP3    H196050   6.552   5.470   4.783
15194TIP3    H296051   6.553   5.346   4.870
15195TIP3   OH296052   6.293   5.470   4.084
15195TIP3    H196053   6.202   5.483   4.109
15195TIP3    H296054   6.339   5.545   4.122
15196TIP3   OH296055   6.812   5.029   4.749
15196TIP3    H196056   6.758   5.016   4.827
15196TIP3    H296057   6.895   4.985   4.769
15197TIP3   OH296058   7.027   5.071   3.644
15197TIP3    H196059   7.079   5.023   3.708
15197TIP3    H296060   6.939   5.074   3.682
15198TIP3   OH296061   7.058   5.400   4.988
15198TIP3    H196062   6.995   5.450   4.936
15198TIP3    H296063   7.099   5.465   5.045
15199TIP3   OH296064   7.474   5.530   3.683
15199TIP3    H196065   7.533   5.603   3.662
15199TIP3    H296066   7.389   5.571   3.699
15200TIP3   OH296067   5.844   4.198   4.927
15200TIP3    H196068   5.752   4.223   4.925
15200TIP3    H296069   5.850   4.129   4.992
15201TIP3   OH296070   7.174   4.919   3.831
15201TIP3    H196071   7.135   4.880   3.909
15201TIP3    H296072   7.264   4.938   3.856
15202TIP3   OH296073   5.870   5.395   4.778
15202TIP3    H196074   5.853   5.341   4.855
15202TIP3    H296075   5.890   5.481   4.813
15203TIP3   OH296076   6.339   5.150   3.715
15203TIP3    H196077   6.398   5.091   3.760
15203TIP3    H296078   6.355   5.235   3.755
15204TIP3   OH296079   5.971   4.895   3.860
15204TIP3    H196080   5.899   4.940   3.904
15204TIP3    H296081   6.015   4.963   3.809
15205TIP3   OH296082   6.817   4.058   4.791
15205TIP3    H196083   6.840   4.128   4.852
15205TIP3    H296084   6.777   3.990   4.846
15206TIP3   OH296085   6.868   4.073   3.966
15206TIP3    H196086   6.856   4.126   3.888
15206TIP3    H296087   6.908   4.132   4.030
15207TIP3   OH296088   6.643   5.308   3.833
15207TIP3    H196089   6.551   5.334   3.837
15207TIP3    H296090   6.674   5.315   3.923
15208TIP3   OH296091   6.537   4.307   4.015
15208TIP3    H196092   6.613   4.364   4.023
15208TIP3    H296093   6.525   4.271   4.102
15209TIP3   OH296094   6.630   4.381   4.974
15209TIP3    H196095   6.639   4.432   5.054
15209TIP3    H296096   6.708   4.325   4.972
15210TIP3   OH296097   6.650   3.946   4.083
15210TIP3    H196098   6.653   3.979   4.173
15210TIP3    H296099   6.728   3.984   4.042
15211TIP3   OH296100   6.382   5.400   3.834
15211TIP3    H196101   6.387   5.485   3.790
15211TIP3    H296102   6.349   5.419   3.921
15212TIP3   OH296103   6.212   4.102   3.864
15212TIP3    H196104   6.217   4.196   3.884
15212TIP3    H296105   6.303   4.072   3.866
15213TIP3   OH296106   7.235   4.144   5.050
15213TIP3    H196107   7.165   4.150   5.115
15213TIP3    H296108   7.200   4.191   4.974
15214TIP3   OH296109   7.071   4.544   4.422
15214TIP3    H196110   6.987   4.501   4.411
15214TIP3    H296111   7.128   4.477   4.460
15215TIP3   OH296112   6.058   5.126   3.728
15215TIP3    H196113   6.054   5.194   3.795
15215TIP3    H296114   6.150   5.122   3.704
15216TIP3   OH296115   7.223   5.533   4.543
15216TIP3    H196116   7.213   5.606   4.482
15216TIP3    H296117   7.316   5.533   4.565
15217TIP3   OH296118   5.961   3.880   4.458
15217TIP3    H196119   5.957   3.891   4.362
15217TIP3    H296120   5.982   3.788   4.471
15218TIP3   OH296121   5.837   5.297   4.083
15218TIP3    H196122   5.787   5.326   4.159
15218TIP3    H296123   5.818   5.363   4.016
15219TIP3   OH296124   7.150   5.314   3.585
15219TIP3    H196125   7.107   5.232   3.608
15219TIP3    H296126   7.243   5.298   3.601
15220TIP3   OH296127   7.015   4.939   5.035
15220TIP3    H196128   7.104   4.965   5.009
15220TIP3    H296129   6.968   5.022   5.046
15221TIP3   OH296130   6.357   4.754   3.776
15221TIP3    H196131   6.288   4.728   3.837
15221TIP3    H296132   6.367   4.678   3.718
15222TIP3   OH296133   6.258   4.549   5.032
15222TIP3    H196134   6.185   4.610   5.021
15222TIP3    H296135   6.323   4.578   4.969
15223TIP3   OH296136   6.459   4.579   3.550
15223TIP3    H196137   6.475   4.573   3.456
15223TIP3    H296138   6.546   4.581   3.590
15224TIP3   OH296139   6.277   4.268   5.033
15224TIP3    H196140   6.372   4.275   5.042
15224TIP3    H296141   6.246   4.359   5.028
15225TIP3   OH296142   6.322   4.100   4.805
15225TIP3    H196143   6.383   4.164   4.770
15225TIP3    H296144   6.277   4.146   4.877
15226TIP3   OH296145   6.442   4.643   4.852
15226TIP3    H196146   6.533   4.630   4.824
15226TIP3    H296147   6.420   4.730   4.819
15227TIP3   OH296148   6.417   3.873   4.943
15227TIP3    H196149   6.394   3.956   4.903
15227TIP3    H296150   6.352   3.811   4.911
15228TIP3   OH296151   6.441   5.623   3.674
15228TIP3    H196152   6.535   5.611   3.689
15228TIP3    H296153   6.436   5.675   3.594
15229TIP3   OH296154   5.785   5.151   3.644
15229TIP3    H196155   5.878   5.141   3.663
15229TIP3    H296156   5.779   5.139   3.549
15230TIP3   OH296157   5.672   5.629   4.186
15230TIP3    H196158   5.614   5.604   4.114
15230TIP3    H296159   5.685   5.548   4.235
15231TIP3   OH296160   5.742   5.400   4.328
15231TIP3    H196161   5.704   5.330   4.381
15231TIP3    H296162   5.795   5.451   4.389
15232TIP3   OH296163   7.483   5.528   4.637
15232TIP3    H196164   7.470   5.496   4.726
15232TIP3    H296165   7.521   5.615   4.649
15233TIP3   OH296166   7.453   5.437   4.892
15233TIP3    H196167   7.377   5.381   4.878
15233TIP3    H296168   7.506   5.388   4.955
15234TIP3   OH296169   7.441   4.916   3.923
15234TIP3    H196170   7.513   4.976   3.941
15234TIP3    H296171   7.441   4.855   3.996
15235TIP3   OH296172   7.458   4.664   4.054
15235TIP3    H196173   7.371   4.638   4.086
15235TIP3    H296174   7.500   4.703   4.131
15236TIP3   OH296175   7.464   5.002   4.572
15236TIP3    H196176   7.478   4.951   4.493
15236TIP3    H296177   7.484   5.092   4.547
15237TIP3   OH296178   7.245   5.264   4.835
15237TIP3    H196179   7.175   5.309   4.884
15237TIP3    H296180   7.212   5.261   4.745
15238TIP3   OH296181   7.458   4.721   3.728
15238TIP3    H196182   7.365   4.723   3.707
15238TIP3    H296183   7.466   4.780   3.804
15239TIP3   OH296184   7.240   4.653   4.228
15239TIP3    H196185   7.187   4.613   4.298
15239TIP3    H296186   7.311   4.696   4.274
15240TIP3   OH296187   5.726   4.753   4.602
15240TIP3    H196188   5.736   4.748   4.507
15240TIP3    H296189   5.807   4.718   4.637
15241TIP3   OH296190   7.329   4.718   5.227
15241TIP3    H196191   7.352   4.625   5.218
15241TIP3    H296192   7.389   4.763   5.167
15242TIP3   OH296193   7.183   4.225   3.609
15242TIP3    H196194   7.268   4.182   3.606
15242TIP3    H296195   7.136   4.180   3.680
15243TIP3   OH296196   7.220   4.311   3.974
15243TIP3    H196197   7.259   4.225   3.988
15243TIP3    H296198   7.292   4.367   3.946
15244TIP3   OH296199   7.246   4.349   4.520
15244TIP3    H196200   7.338   4.376   4.524
15244TIP3    H296201   7.220   4.337   4.611
15245TIP3   OH296202   7.341   4.473   4.944
15245TIP3    H196203   7.267   4.440   4.893
15245TIP3    H296204   7.372   4.549   4.894
15246TIP3   OH296205   7.304   4.049   4.013
15246TIP3    H196206   7.326   4.018   4.101
15246TIP3    H296207   7.226   3.999   3.988
15247TIP3   OH296208   5.847   4.139   4.455
15247TIP3    H196209   5.885   4.051   4.460
15247TIP3    H296210   5.913   4.196   4.495
15248TIP3   OH296211   5.633   4.403   4.553
15248TIP3    H196212   5.709   4.409   4.495
15248TIP3    H296213   5.642   4.478   4.611
15249TIP3   OH296214   7.427   4.084   3.638
15249TIP3    H196215   7.474   4.098   3.555
15249TIP3    H296216   7.484   4.125   3.704
15250TIP3   OH296217   5.682   3.990   3.916
15250TIP3    H196218   5.599   4.007   3.960
15250TIP3    H296219   5.709   4.075   3.881
15251TIP3   OH296220   7.136   5.562   4.155
15251TIP3    H196221   7.220   5.560   4.110
15251TIP3    H296222   7.146   5.632   4.220
15252TIP3   OH296223   5.667   3.900   4.712
15252TIP3    H196224   5.622   3.883   4.795
15252TIP3    H296225   5.630   3.982   4.681
15253TIP3   OH296226   6.232   5.363   4.869
15253TIP3    H196227   6.205   5.452   4.846
15253TIP3    H296228   6.327   5.363   4.854
15254TIP3   OH296229   6.625   5.494   5.201
15254TIP3    H196230   6.648   5.459   5.287
15254TIP3    H296231   6.701   5.547   5.175
15255TIP3   OH296232   6.853   5.642   5.132
15255TIP3    H196233   6.935   5.677   5.097
15255TIP3    H296234   6.879   5.592   5.209
15256TIP3   OH296235   7.329   3.900   4.955
15256TIP3    H196236   7.304   3.980   5.000
15256TIP3    H296237   7.263   3.890   4.886
15257TIP3   OH296238   5.913   5.661   4.856
15257TIP3    H196239   5.835   5.693   4.810
15257TIP3    H296240   5.919   5.716   4.934
15258TIP3   OH296241   6.185   5.629   4.812
15258TIP3    H196242   6.091   5.641   4.829
15258TIP3    H296243   6.200   5.676   4.730
15259TIP3   OH296244   6.632   5.620   4.721
15259TIP3    H196245   6.589   5.661   4.645
15259TIP3    H296246   6.646   5.693   4.781
15260TIP3   OH296247   6.867   5.495   4.800
15260TIP3    H196248   6.787   5.539   4.774
15260TIP3    H296249   6.937   5.557   4.781
15261TIP3   OH296250   7.079   5.655   4.750
15261TIP3    H196251   7.123   5.739   4.763
15261TIP3    H296252   7.128   5.613   4.679
15262TIP3   OH296253   5.905   5.517   4.524
15262TIP3    H196254   5.885   5.480   4.610
15262TIP3    H296255   5.986   5.473   4.497
15263TIP3   OH296256   6.125   5.383   4.429
15263TIP3    H196257   6.109   5.291   4.451
15263TIP3    H296258   6.207   5.405   4.473
15264TIP3   OH296259   6.374   5.410   4.554
15264TIP3    H196260   6.388   5.320   4.525
15264TIP3    H296261   6.410   5.412   4.643
15265TIP3   OH296262   6.650   3.979   4.371
15265TIP3    H196263   6.598   3.916   4.420
15265TIP3    H296264   6.734   3.936   4.357
15266TIP3   OH296265   7.193   3.860   4.393
15266TIP3    H196266   7.272   3.888   4.346
15266TIP3    H296267   7.158   3.940   4.431
15267TIP3   OH296268   7.406   3.936   4.243
15267TIP3    H196269   7.469   3.868   4.221
15267TIP3    H296270   7.459   4.013   4.264
15268TIP3   OH296271   5.943   3.853   4.182
15268TIP3    H196272   5.849   3.839   4.166
15268TIP3    H296273   5.982   3.767   4.171
15269TIP3   OH296274   5.828   3.837   3.740
15269TIP3    H196275   5.898   3.898   3.718
15269TIP3    H296276   5.775   3.883   3.805
15270TIP3   OH296277   6.425   3.800   4.199
15270TIP3    H196278   6.488   3.859   4.157
15270TIP3    H296279   6.443   3.808   4.292
15271TIP3   OH296280   6.883   3.850   4.323
15271TIP3    H196281   6.976   3.870   4.328
15271TIP3    H296282   6.873   3.767   4.369
15272TIP3   OH296283   7.087   3.910   3.909
15272TIP3    H196284   7.012   3.967   3.926
15272TIP3    H296285   7.054   3.822   3.924
15273TIP3   OH296286   5.801   5.475   3.881
15273TIP3    H196287   5.722   5.464   3.828
15273TIP3    H296288   5.822   5.568   3.873
15274TIP3   OH296289   6.037   4.004   3.667
15274TIP3    H196290   6.060   4.057   3.591
15274TIP3    H296291   6.092   4.037   3.737
15275TIP3   OH296292   6.494   4.070   3.881
15275TIP3    H196293   6.536   4.013   3.945
15275TIP3    H296294   6.507   4.159   3.914
15276TIP3   OH296295   6.705   5.555   3.711
15276TIP3    H196296   6.794   5.559   3.676
15276TIP3    H296297   6.691   5.462   3.731
15277TIP3   OH296298   7.354   5.547   3.981
15277TIP3    H196299   7.326   5.458   3.960
15277TIP3    H296300   7.329   5.599   3.905
15278TIP3   OH296301   5.892   3.984   5.099
15278TIP3    H196302   5.848   3.944   5.175
15278TIP3    H296303   5.971   4.023   5.136
15279TIP3   OH296304   6.020   5.612   3.610
15279TIP3    H196305   5.930   5.612   3.643
15279TIP3    H296306   6.051   5.523   3.624
15280TIP3   OH296307   7.910   4.650   4.704
15280TIP3    H196308   7.882   4.567   4.742
15280TIP3    H296309   7.940   4.702   4.778
15281TIP3   OH296310   7.920   5.098   4.542
15281TIP3    H196311   7.895   5.011   4.511
15281TIP3    H296312   7.965   5.083   4.625
15282TIP3   OH296313   7.671   4.466   4.021
15282TIP3    H196314   7.706   4.533   4.080
15282TIP3    H296315   7.582   4.495   4.003
15283TIP3   OH296316   7.762   4.647   4.212
15283TIP3    H196317   7.764   4.584   4.285
15283TIP3    H296318   7.702   4.716   4.242
15284TIP3   OH296319   7.987   4.166   4.369
15284TIP3    H196320   8.046   4.227   4.327
15284TIP3    H296321   7.916   4.153   4.306
15285TIP3   OH296322   7.762   4.433   4.392
15285TIP3    H196323   7.817   4.407   4.465
15285TIP3    H296324   7.777   4.365   4.325
15286TIP3   OH296325   7.981   4.135   4.808
15286TIP3    H196326   7.977   4.195   4.734
15286TIP3    H296327   7.902   4.155   4.859
15287TIP3   OH296328   7.935   4.307   4.590
15287TIP3    H196329   8.002   4.376   4.594
15287TIP3    H296330   7.964   4.250   4.518
15288TIP3   OH296331   8.054   5.089   4.795
15288TIP3    H196332   8.064   5.182   4.815
15288TIP3    H296333   7.977   5.062   4.844
15289TIP3   OH296334   7.676   5.071   3.934
15289TIP3    H196335   7.664   5.115   3.850
15289TIP3    H296336   7.695   5.141   3.995
15290TIP3   OH296337   8.080   4.790   4.285
15290TIP3    H196338   8.047   4.770   4.198
15290TIP3    H296339   0.028   4.761   4.284
15291TIP3   OH296340   7.931   4.767   4.958
15291TIP3    H196341   7.909   4.860   4.959
15291TIP3    H296342   7.849   4.723   4.983
15292TIP3   OH296343   8.016   5.372   5.138
15292TIP3    H196344   8.039   5.345   5.049
15292TIP3    H296345   8.005   5.290   5.186
15293TIP3   OH296346   7.977   4.697   4.041
15293TIP3    H196347   7.943   4.755   3.973
15293TIP3    H296348   7.902   4.677   4.097
15294TIP3   OH296349   7.609   4.937   4.807
15294TIP3    H196350   7.556   4.985   4.744
15294TIP3    H296351   7.628   4.854   4.763
15295TIP3   OH296352   7.555   5.271   4.547
15295TIP3    H196353   7.628   5.268   4.609
15295TIP3    H296354   7.508   5.352   4.568
15296TIP3   OH296355   7.935   5.466   4.193
15296TIP3    H196356   7.954   5.426   4.278
15296TIP3    H296357   7.881   5.401   4.148
15297TIP3   OH296358   7.831   5.028   4.942
15297TIP3    H196359   7.802   5.052   5.030
15297TIP3    H296360   7.750   5.006   4.895
15298TIP3   OH296361   8.088   3.920   4.538
15298TIP3    H196362   8.004   3.945   4.501
15298TIP3    H296363   0.002   3.993   4.519
15299TIP3   OH296364   8.130   4.473   4.855
15299TIP3    H196365   8.036   4.459   4.869
15299TIP3    H296366   8.141   4.467   4.760
15300TIP3   OH296367   8.083   4.380   4.229
15300TIP3    H196368   8.002   4.428   4.214
15300TIP3    H296369   0.003   4.425   4.174
15301TIP3   OH296370   7.854   4.447   4.900
15301TIP3    H196371   7.790   4.509   4.936
15301TIP3    H296372   7.814   4.361   4.912
15302TIP3   OH296373   7.581   4.136   4.284
15302TIP3    H196374   7.609   4.149   4.375
15302TIP3    H296375   7.645   4.184   4.232
15303TIP3   OH296376   7.605   4.230   3.803
15303TIP3    H196377   7.693   4.266   3.804
15303TIP3    H296378   7.549   4.305   3.825
15304TIP3   OH296379   7.797   4.267   4.166
15304TIP3    H196380   7.758   4.329   4.104
15304TIP3    H296381   7.857   4.215   4.114
15305TIP3   OH296382   0.010   4.424   3.652
15305TIP3    H196383   8.114   4.443   3.567
15305TIP3    H296384   0.044   4.508   3.682
15306TIP3   OH296385   7.976   4.063   4.090
15306TIP3    H196386   7.929   3.986   4.122
15306TIP3    H296387   8.055   4.067   4.144
15307TIP3   OH296388   7.900   4.827   4.492
15307TIP3    H196389   7.960   4.813   4.419
15307TIP3    H296390   7.925   4.761   4.557
15308TIP3   OH296391   7.678   4.639   5.003
15308TIP3    H196392   7.659   4.682   5.087
15308TIP3    H296393   7.600   4.655   4.950
15309TIP3   OH296394   7.708   4.825   3.638
15309TIP3    H196395   7.762   4.823   3.717
15309TIP3    H296396   7.630   4.775   3.660
15310TIP3   OH296397   7.744   4.187   4.951
15310TIP3    H196398   7.653   4.213   4.934
15310TIP3    H296399   7.736   4.099   4.989
15311TIP3   OH296400   7.730   5.348   4.757
15311TIP3    H196401   7.787   5.285   4.802
15311TIP3    H296402   7.669   5.378   4.825
15312TIP3   OH296403   7.867   4.883   3.859
15312TIP3    H196404   7.800   4.932   3.907
15312TIP3    H296405   7.917   4.951   3.813
15313TIP3   OH296406   8.044   4.151   3.676
15313TIP3    H196407   8.072   4.242   3.680
15313TIP3    H296408   8.086   4.110   3.752
15314TIP3   OH296409   7.976   5.109   3.726
15314TIP3    H196410   7.983   5.172   3.798
15314TIP3    H296411   8.065   5.104   3.690
15315TIP3   OH296412   7.812   3.900   4.463
15315TIP3    H196413   7.816   3.895   4.368
15315TIP3    H296414   7.801   3.809   4.492
15316TIP3   OH296415   7.736   5.307   4.071
15316TIP3    H196416   7.690   5.328   4.152
15316TIP3    H296417   7.708   5.373   4.008
15317TIP3   OH296418   7.689   5.120   3.656
15317TIP3    H196419   7.784   5.130   3.659
15317TIP3    H296420   7.675   5.028   3.634
15318TIP3   OH296421   7.561   5.608   4.145
15318TIP3    H196422   7.482   5.585   4.096
15318TIP3    H296423   7.571   5.538   4.209
15319TIP3   OH296424   7.637   5.406   4.316
15319TIP3    H196425   7.593   5.338   4.367
15319TIP3    H296426   7.687   5.455   4.381
15320TIP3   OH296427   7.625   4.704   4.605
15320TIP3    H196428   7.588   4.735   4.522
15320TIP3    H296429   7.720   4.711   4.593
15321TIP3   OH296430   7.704   4.146   4.532
15321TIP3    H196431   7.747   4.062   4.517
15321TIP3    H296432   7.772   4.203   4.568
15322TIP3   OH296433   7.516   4.437   4.545
15322TIP3    H196434   7.584   4.421   4.479
15322TIP3    H296435   7.532   4.526   4.575
15323TIP3   OH296436   7.555   3.979   3.903
15323TIP3    H196437   7.474   3.995   3.952
15323TIP3    H296438   7.588   4.066   3.882
15324TIP3   OH296439   7.549   3.883   4.786
15324TIP3    H196440   7.468   3.883   4.837
15324TIP3    H296441   7.543   3.962   4.731
15325TIP3   OH296442   8.100   5.352   4.865
15325TIP3    H196443   8.060   5.433   4.832
15325TIP3    H296444   0.050   5.366   4.853
15326TIP3   OH296445   7.813   5.725   4.857
15326TIP3    H196446   7.728   5.735   4.815
15326TIP3    H296447   7.799   5.754   4.947
15327TIP3   OH296448   8.039   5.603   4.764
15327TIP3    H196449   7.954   5.634   4.796
15327TIP3    H296450   8.051   5.650   4.681
15328TIP3   OH296451   7.792   5.512   4.528
15328TIP3    H196452   7.760   5.475   4.610
15328TIP3    H296453   7.870   5.461   4.507
15329TIP3   OH296454   7.996   5.340   4.441
15329TIP3    H196455   7.949   5.258   4.454
15329TIP3    H296456   8.070   5.335   4.501
15330TIP3   OH296457   7.824   3.846   4.190
15330TIP3    H196458   7.732   3.831   4.167
15330TIP3    H296459   7.862   3.758   4.193
15331TIP3   OH296460   7.689   3.812   3.731
15331TIP3    H196461   7.751   3.871   3.688
15331TIP3    H296462   7.644   3.866   3.795
15332TIP3   OH296463   7.664   5.503   3.888
15332TIP3    H196464   7.590   5.496   3.827
15332TIP3    H296465   7.636   5.569   3.951
15333TIP3   OH296466   7.851   3.974   3.582
15333TIP3    H196467   7.879   3.979   3.490
15333TIP3    H296468   7.907   4.038   3.627
15334TIP3   OH296469   7.736   3.819   5.098
15334TIP3    H196470   7.773   3.746   5.148
15334TIP3    H296471   7.780   3.897   5.132
15335TIP3   OH296472   7.865   5.579   3.654
15335TIP3    H196473   7.792   5.592   3.714
15335TIP3    H296474   7.868   5.485   3.639
15336TIP3   OH296475   1.197   6.705   4.172
15336TIP3    H196476   1.185   6.799   4.158
15336TIP3    H296477   1.129   6.664   4.119
15337TIP3   OH296478   1.008   6.602   4.580
15337TIP3    H196479   1.055   6.566   4.655
15337TIP3    H296480   0.981   6.525   4.530
15338TIP3   OH296481   0.288   6.532   4.725
15338TIP3    H196482   0.284   6.442   4.758
15338TIP3    H296483   0.344   6.578   4.788
15339TIP3   OH296484   1.459   6.939   4.394
15339TIP3    H196485   1.442   6.856   4.439
15339TIP3    H296486   1.481   7.001   4.464
15340TIP3   OH296487   0.470   7.008   4.560
15340TIP3    H196488   0.495   7.006   4.653
15340TIP3    H296489   0.553   7.000   4.513
15341TIP3   OH296490   0.180   6.433   4.019
15341TIP3    H196491   0.104   6.393   4.060
15341TIP3    H296492   0.149   6.465   3.935
15342TIP3   OH296493   0.168   6.573   4.295
15342TIP3    H196494   0.187   6.485   4.327
15342TIP3    H296495   0.212   6.577   4.210
15343TIP3   OH296496   1.192   7.359   4.440
15343TIP3    H196497   1.229   7.315   4.363
15343TIP3    H296498   1.186   7.290   4.506
15344TIP3   OH296499   0.928   6.866   4.581
15344TIP3    H196500   0.952   6.775   4.564
15344TIP3    H296501   1.004   6.902   4.628
15345TIP3   OH296502   1.807   5.991   4.663
15345TIP3    H196503   1.813   6.050   4.739
15345TIP3    H296504   1.881   6.017   4.607
15346TIP3   OH296505   1.211   6.272   4.589
15346TIP3    H196506   1.235   6.182   4.608
15346TIP3    H296507   1.215   6.280   4.494
15347TIP3   OH296508   0.562   6.083   4.358
15347TIP3    H196509   0.571   6.160   4.303
15347TIP3    H296510   0.532   6.014   4.299
15348TIP3   OH296511   1.354   6.110   4.150
15348TIP3    H196512   1.389   6.086   4.236
15348TIP3    H296513   1.428   6.150   4.104
15349TIP3   OH296514   0.212   6.326   4.400
15349TIP3    H196515   0.279   6.297   4.462
15349TIP3    H296516   0.198   6.251   4.343
15350TIP3   OH296517   0.710   6.477   4.352
15350TIP3    H196518   0.792   6.441   4.384
15350TIP3    H296519   0.668   6.404   4.306
15351TIP3   OH296520   1.812   6.140   4.897
15351TIP3    H196521   1.763   6.216   4.866
15351TIP3    H296522   1.761   6.109   4.972
15352TIP3   OH296523   0.450   5.997   4.745
15352TIP3    H196524   0.426   6.068   4.686
15352TIP3    H296525   0.380   5.995   4.811
15353TIP3   OH296526   1.163   6.953   4.051
15353TIP3    H196527   1.152   6.949   3.955
15353TIP3    H296528   1.118   7.033   4.077
15354TIP3   OH296529   0.711   6.780   4.733
15354TIP3    H196530   0.660   6.854   4.767
15354TIP3    H296531   0.787   6.821   4.691
15355TIP3   OH296532   1.438   6.089   4.406
15355TIP3    H196533   1.384   6.052   4.476
15355TIP3    H296534   1.506   6.139   4.453
15356TIP3   OH296535   0.403   6.190   4.551
15356TIP3    H196536   0.458   6.246   4.606
15356TIP3    H296537   0.464   6.149   4.489
15357TIP3   OH296538   0.545   6.993   4.822
15357TIP3    H196539   0.576   7.082   4.838
15357TIP3    H296540   0.459   6.989   4.864
15358TIP3   OH296541   0.182   6.952   3.936
15358TIP3    H196542   0.119   6.990   3.875
15358TIP3    H296543   0.196   7.021   4.001
15359TIP3   OH296544   1.477   7.149   4.594
15359TIP3    H196545   1.382   7.150   4.594
15359TIP3    H296546   1.503   7.238   4.569
15360TIP3   OH296547   1.555   5.878   4.650
15360TIP3    H196548   1.499   5.951   4.679
15360TIP3    H296549   1.644   5.911   4.657
15361TIP3   OH296550   0.781   5.683   4.479
15361TIP3    H196551   0.768   5.589   4.496
15361TIP3    H296552   0.704   5.725   4.518
15362TIP3   OH296553   1.311   7.249   4.216
15362TIP3    H196554   1.358   7.169   4.193
15362TIP3    H296555   1.379   7.317   4.214
15363TIP3   OH296556   1.428   7.015   4.131
15363TIP3    H196557   1.345   6.973   4.109
15363TIP3    H296558   1.450   6.980   4.218
15364TIP3   OH296559   1.620   6.901   4.965
15364TIP3    H196560   1.617   6.849   4.884
15364TIP3    H296561   1.617   6.992   4.935
15365TIP3   OH296562   1.054   6.616   3.946
15365TIP3    H196563   0.988   6.681   3.922
15365TIP3    H296564   1.121   6.623   3.878
15366TIP3   OH296565   1.097   6.442   3.647
15366TIP3    H196566   1.160   6.492   3.698
15366TIP3    H296567   1.150   6.375   3.603
15367TIP3   OH296568   1.758   6.554   4.741
15367TIP3    H196569   1.696   6.626   4.748
15367TIP3    H296570   1.832   6.590   4.692
15368TIP3   OH296571   1.416   6.618   4.033
15368TIP3    H196572   1.352   6.647   4.098
15368TIP3    H296573   1.484   6.575   4.084
15369TIP3   OH296574   1.382   6.414   4.950
15369TIP3    H196575   1.397   6.475   5.023
15369TIP3    H296576   1.310   6.453   4.901
15370TIP3   OH296577   0.564   6.674   4.216
15370TIP3    H196578   0.524   6.631   4.140
15370TIP3    H296579   0.620   6.608   4.254
15371TIP3   OH296580   0.729   7.030   4.466
15371TIP3    H196581   0.740   7.036   4.371
15371TIP3    H296582   0.802   6.976   4.495
15372TIP3   OH296583   0.597   6.573   4.592
15372TIP3    H196584   0.653   6.550   4.517
15372TIP3    H296585   0.647   6.640   4.639
15373TIP3   OH296586   1.204   7.150   4.627
15373TIP3    H196587   1.194   7.215   4.697
15373TIP3    H296588   1.182   7.067   4.669
15374TIP3   OH296589   0.721   7.029   5.063
15374TIP3    H196590   0.645   7.070   5.104
15374TIP3    H296591   0.684   6.960   5.008
15375TIP3   OH296592   1.293   6.597   3.791
15375TIP3    H196593   1.329   6.597   3.880
15375TIP3    H296594   1.343   6.664   3.745
15376TIP3   OH296595   0.372   6.575   5.015
15376TIP3    H196596   0.375   6.596   5.108
15376TIP3    H296597   0.279   6.582   4.992
15377TIP3   OH296598   1.069   7.214   4.091
15377TIP3    H196599   1.147   7.222   4.146
15377TIP3    H296600   1.042   7.304   4.075
15378TIP3   OH296601   0.483   7.169   5.120
15378TIP3    H196602   0.515   7.207   5.039
15378TIP3    H296603   0.451   7.243   5.171
15379TIP3   OH296604   1.660   5.722   3.784
15379TIP3    H196605   1.574   5.749   3.817
15379TIP3    H296606   1.698   5.802   3.747
15380TIP3   OH296607   0.426   6.570   3.993
15380TIP3    H196608   0.399   6.636   3.929
15380TIP3    H296609   0.349   6.514   4.003
15381TIP3   OH296610   1.757   7.175   3.665
15381TIP3    H196611   1.786   7.266   3.659
15381TIP3    H296612   1.838   7.124   3.658
15382TIP3   OH296613   0.123   6.821   4.891
15382TIP3    H196614   0.039   6.853   4.858
15382TIP3    H296615   0.104   6.733   4.923
15383TIP3   OH296616   0.139   7.051   4.593
15383TIP3    H196617   0.151   7.124   4.653
15383TIP3    H296618   0.045   7.048   4.577
15384TIP3   OH296619   1.935   7.190   5.061
15384TIP3    H196620   2.007   7.135   5.089
15384TIP3    H296621   1.869   7.181   5.130
15385TIP3   OH296622   0.959   7.155   5.035
15385TIP3    H196623   0.963   7.229   5.097
15385TIP3    H296624   0.874   7.114   5.052
15386TIP3   OH296625   1.035   7.465   3.988
15386TIP3    H196626   1.029   7.469   3.893
15386TIP3    H296627   1.008   7.552   4.018
15387TIP3   OH296628   0.394   7.361   4.209
15387TIP3    H196629   0.411   7.333   4.299
15387TIP3    H296630   0.332   7.296   4.176
15388TIP3   OH296631   1.313   7.416   3.673
15388TIP3    H196632   1.376   7.350   3.646
15388TIP3    H296633   1.327   7.425   3.767
15389TIP3   OH296634   1.315   7.439   3.953
15389TIP3    H196635   1.223   7.432   3.981
15389TIP3    H296636   1.366   7.416   4.030
15390TIP3   OH296637   0.297   7.026   4.933
15390TIP3    H196638   0.314   7.034   5.027
15390TIP3    H296639   0.236   6.953   4.925
15391TIP3   OH296640   0.548   5.796   4.581
15391TIP3    H196641   0.471   5.790   4.524
15391TIP3    H296642   0.530   5.872   4.637
15392TIP3   OH296643   1.044   5.770   4.947
15392TIP3    H196644   1.093   5.716   5.008
15392TIP3    H296645   0.953   5.761   4.974
15393TIP3   OH296646   1.344   6.145   5.022
15393TIP3    H196647   1.301   6.161   5.106
15393TIP3    H296648   1.362   6.233   4.987
15394TIP3   OH296649   0.948   5.992   3.609
15394TIP3    H196650   1.007   6.047   3.659
15394TIP3    H296651   0.966   5.903   3.639
15395TIP3   OH296652   0.568   6.329   4.716
15395TIP3    H196653   0.508   6.333   4.791
15395TIP3    H296654   0.573   6.419   4.685
15396TIP3   OH296655   0.574   6.296   4.187
15396TIP3    H196656   0.481   6.287   4.167
15396TIP3    H296657   0.615   6.319   4.104
15397TIP3   OH296658   1.125   6.376   4.064
15397TIP3    H196659   1.095   6.460   4.029
15397TIP3    H296660   1.199   6.352   4.008
15398TIP3   OH296661   1.207   6.294   4.317
15398TIP3    H196662   1.170   6.342   4.243
15398TIP3    H296663   1.251   6.219   4.276
15399TIP3   OH296664   0.328   6.295   4.874
15399TIP3    H196665   0.323   6.337   4.960
15399TIP3    H296666   0.290   6.208   4.887
15400TIP3   OH296667   0.128   6.054   4.192
15400TIP3    H196668   0.149   6.044   4.285
15400TIP3    H296669   0.099   5.967   4.165
15401TIP3   OH296670   0.177   6.130   3.826
15401TIP3    H196671   0.225   6.081   3.758
15401TIP3    H296672   0.130   6.197   3.777
15402TIP3   OH296673   1.126   6.447   4.782
15402TIP3    H196674   1.167   6.392   4.715
15402TIP3    H296675   1.080   6.385   4.838
15403TIP3   OH296676   0.831   6.061   4.261
15403TIP3    H196677   0.760   6.068   4.325
15403TIP3    H296678   0.889   5.993   4.297
15404TIP3   OH296679   0.336   6.210   4.094
15404TIP3    H196680   0.289   6.281   4.051
15404TIP3    H296681   0.268   6.147   4.118
15405TIP3   OH296682   0.664   6.268   3.929
15405TIP3    H196683   0.757   6.270   3.948
15405TIP3    H296684   0.657   6.287   3.835
15406TIP3   OH296685   1.268   5.997   4.606
15406TIP3    H196686   1.226   5.994   4.692
15406TIP3    H296687   1.246   5.914   4.565
15407TIP3   OH296688   0.640   6.275   3.651
15407TIP3    H196689   0.586   6.283   3.572
15407TIP3    H296690   0.717   6.329   3.632
15408TIP3   OH296691   0.929   6.353   4.469
15408TIP3    H196692   1.012   6.315   4.443
15408TIP3    H296693   0.900   6.299   4.543
15409TIP3   OH296694   0.510   5.898   4.147
15409TIP3    H196695   0.428   5.849   4.152
15409TIP3    H296696   0.577   5.833   4.168
15410TIP3   OH296697   0.824   6.220   4.697
15410TIP3    H196698   0.741   6.266   4.711
15410TIP3    H296699   0.877   6.243   4.773
15411TIP3   OH296700   0.872   6.814   3.859
15411TIP3    H196701   0.809   6.755   3.816
15411TIP3    H296702   0.829   6.837   3.942
15412TIP3   OH296703   1.588   6.771   4.722
15412TIP3    H196704   1.655   6.823   4.678
15412TIP3    H296705   1.524   6.752   4.654
15413TIP3   OH296706   1.183   6.125   3.748
15413TIP3    H196707   1.216   6.145   3.661
15413TIP3    H296708   1.221   6.193   3.805
15414TIP3   OH296709   0.988   6.864   4.965
15414TIP3    H196710   1.022   6.817   5.041
15414TIP3    H296711   0.972   6.953   4.997
15415TIP3   OH296712   1.333   6.315   3.888
15415TIP3    H196713   1.414   6.282   3.927
15415TIP3    H296714   1.358   6.397   3.845
15416TIP3   OH296715   0.420   6.727   4.448
15416TIP3    H196716   0.463   6.719   4.362
15416TIP3    H296717   0.467   6.665   4.504
15417TIP3   OH296718   1.099   6.952   3.763
15417TIP3    H196719   1.064   7.041   3.768
15417TIP3    H296720   1.024   6.896   3.786
15418TIP3   OH296721   0.096   6.557   4.997
15418TIP3    H196722   0.106   6.498   5.072
15418TIP3    H296723   0.051   6.504   4.931
15419TIP3   OH296724   1.228   7.065   5.032
15419TIP3    H196725   1.141   7.106   5.033
15419TIP3    H296726   1.264   7.083   5.118
15420TIP3   OH296727   1.739   6.322   3.808
15420TIP3    H196728   1.742   6.275   3.724
15420TIP3    H296729   1.760   6.413   3.785
15421TIP3   OH296730   1.843   6.857   5.128
15421TIP3    H196731   1.761   6.888   5.090
15421TIP3    H296732   1.900   6.841   5.053
15422TIP3   OH296733   1.636   7.200   3.919
15422TIP3    H196734   1.591   7.124   3.956
15422TIP3    H296735   1.667   7.170   3.834
15423TIP3   OH296736   1.400   6.697   4.525
15423TIP3    H196737   1.305   6.693   4.533
15423TIP3    H296738   1.424   6.614   4.485
15424TIP3   OH296739   0.658   7.112   4.195
15424TIP3    H196740   0.688   7.198   4.165
15424TIP3    H296741   0.563   7.118   4.194
15425TIP3   OH296742   0.101   6.558   3.782
15425TIP3    H196743   0.171   6.623   3.776
15425TIP3    H296744   0.031   6.602   3.830
15426TIP3   OH296745   0.722   6.866   4.081
15426TIP3    H196746   0.708   6.951   4.123
15426TIP3    H296747   0.670   6.805   4.133
15427TIP3   OH296748   0.856   7.278   4.799
15427TIP3    H196749   0.907   7.357   4.779
15427TIP3    H296750   0.908   7.233   4.865
15428TIP3   OH296751   0.642   7.382   4.094
15428TIP3    H196752   0.552   7.382   4.126
15428TIP3    H296753   0.676   7.468   4.121
15429TIP3   OH296754   1.153   6.905   4.749
15429TIP3    H196755   1.094   6.890   4.823
15429TIP3    H296756   1.237   6.869   4.778
15430TIP3   OH296757   1.372   6.964   3.663
15430TIP3    H196758   1.427   6.914   3.724
15430TIP3    H296759   1.286   6.965   3.703
15431TIP3   OH296760   1.397   7.341   4.964
15431TIP3    H196761   1.318   7.312   4.919
15431TIP3    H296762   1.429   7.414   4.911
15432TIP3   OH296763   1.840   7.439   3.691
15432TIP3    H196764   1.901   7.511   3.700
15432TIP3    H296765   1.754   7.478   3.704
15433TIP3   OH296766   0.239   6.018   4.921
15433TIP3    H196767   0.160   5.978   4.886
15433TIP3    H296768   0.261   5.965   4.997
15434TIP3   OH296769   1.513   6.798   3.840
15434TIP3    H196770   1.479   6.754   3.917
15434TIP3    H296771   1.607   6.804   3.856
15435TIP3   OH296772   0.223   7.253   4.788
15435TIP3    H196773   0.264   7.182   4.839
15435TIP3    H296774   0.253   7.333   4.831
15436TIP3   OH296775   0.658   7.045   3.724
15436TIP3    H196776   0.716   6.988   3.775
15436TIP3    H296777   0.670   7.132   3.762
15437TIP3   OH296778   0.311   6.751   3.805
15437TIP3    H196779   0.266   6.812   3.864
15437TIP3    H296780   0.363   6.808   3.748
15438TIP3   OH296781   1.157   6.011   4.860
15438TIP3    H196782   1.228   6.038   4.920
15438TIP3    H296783   1.125   5.929   4.897
15439TIP3   OH296784   1.201   5.958   3.975
15439TIP3    H196785   1.191   6.014   3.897
15439TIP3    H296786   1.246   6.014   4.038
15440TIP3   OH296787   0.973   7.187   3.831
15440TIP3    H196788   0.883   7.219   3.835
15440TIP3    H296789   1.006   7.194   3.920
15441TIP3   OH296790   0.907   6.212   4.042
15441TIP3    H196791   0.984   6.266   4.053
15441TIP3    H296792   0.892   6.173   4.128
15442TIP3   OH296793   1.000   6.238   4.914
15442TIP3    H196794   1.000   6.237   5.010
15442TIP3    H296795   1.050   6.160   4.890
15443TIP3   OH296796   0.988   5.812   4.075
15443TIP3    H196797   0.998   5.823   4.169
15443TIP3    H296798   1.064   5.856   4.037
15444TIP3   OH296799   0.717   7.295   3.842
15444TIP3    H196800   0.725   7.378   3.794
15444TIP3    H296801   0.688   7.321   3.929
15445TIP3   OH296802   0.588   6.025   3.761
15445TIP3    H196803   0.605   6.108   3.716
15445TIP3    H296804   0.674   5.984   3.768
15446TIP3   OH296805   1.616   6.085   5.089
15446TIP3    H196806   1.525   6.087   5.061
15446TIP3    H296807   1.627   5.999   5.129
15447TIP3   OH296808   1.446   6.440   4.413
15447TIP3    H196809   1.364   6.393   4.395
15447TIP3    H296810   1.495   6.381   4.470
15448TIP3   OH296811   0.402   6.959   3.635
15448TIP3    H196812   0.481   6.990   3.680
15448TIP3    H296813   0.412   6.990   3.545
15449TIP3   OH296814   1.561   7.418   4.556
15449TIP3    H196815   1.557   7.489   4.491
15449TIP3    H296816   1.655   7.407   4.573
15450TIP3   OH296817   0.309   5.783   4.443
15450TIP3    H196818   0.297   5.770   4.349
15450TIP3    H296819   0.275   5.702   4.483
15451TIP3   OH296820   0.201   7.189   4.093
15451TIP3    H196821   0.143   7.223   4.162
15451TIP3    H296822   0.182   7.244   4.017
15452TIP3   OH296823   1.484   7.216   3.599
15452TIP3    H196824   1.447   7.131   3.623
15452TIP3    H296825   1.579   7.205   3.607
15453TIP3   OH296826   1.358   6.822   5.009
15453TIP3    H196827   1.448   6.850   4.997
15453TIP3    H296828   1.308   6.904   5.017
15454TIP3   OH296829   0.696   6.631   3.753
15454TIP3    H196830   0.632   6.583   3.805
15454TIP3    H296831   0.736   6.565   3.697
15455TIP3   OH296832   0.607   6.418   5.011
15455TIP3    H196833   0.534   6.480   5.008
15455TIP3    H296834   0.674   6.459   4.956
15456TIP3   OH296835   0.832   6.456   3.576
15456TIP3    H196836   0.843   6.448   3.481
15456TIP3    H296837   0.921   6.455   3.611
15457TIP3   OH296838   0.565   6.153   5.096
15457TIP3    H196839   0.615   6.100   5.034
15457TIP3    H296840   0.577   6.243   5.066
15458TIP3   OH296841   0.691   6.021   4.875
15458TIP3    H196842   0.749   6.070   4.816
15458TIP3    H296843   0.608   6.014   4.827
15459TIP3   OH296844   0.801   6.553   4.871
15459TIP3    H196845   0.896   6.555   4.868
15459TIP3    H296846   0.774   6.636   4.830
15460TIP3   OH296847   0.762   5.760   4.952
15460TIP3    H196848   0.740   5.851   4.932
15460TIP3    H296849   0.691   5.708   4.913
15461TIP3   OH296850   0.779   7.512   3.679
15461TIP3    H196851   0.873   7.499   3.695
15461TIP3    H296852   0.776   7.564   3.598
15462TIP3   OH296853   0.107   6.995   3.644
15462TIP3    H196854   0.200   6.994   3.668
15462TIP3    H296855   0.106   6.974   3.551
15463TIP3   OH296856   0.026   7.518   4.145
15463TIP3    H196857   8.080   7.499   4.117
15463TIP3    H296858   0.046   7.449   4.209
15464TIP3   OH296859   0.088   7.314   4.319
15464TIP3    H196860   0.005   7.292   4.361
15464TIP3    H296861   0.144   7.344   4.391
15465TIP3   OH296862   1.824   7.395   4.638
15465TIP3    H196863   1.808   7.368   4.728
15465TIP3    H296864   1.870   7.478   4.646
15466TIP3   OH296865   1.774   7.335   4.899
15466TIP3    H196866   1.706   7.268   4.891
15466TIP3    H296867   1.842   7.294   4.953
15467TIP3   OH296868   1.786   6.766   3.920
15467TIP3    H196869   1.850   6.837   3.928
15467TIP3    H296870   1.806   6.707   3.992
15468TIP3   OH296871   1.855   6.572   4.117
15468TIP3    H196872   1.772   6.546   4.156
15468TIP3    H296873   1.911   6.593   4.192
15469TIP3   OH296874   1.817   6.892   4.635
15469TIP3    H196875   1.878   6.826   4.601
15469TIP3    H296876   1.853   6.976   4.605
15470TIP3   OH296877   1.575   7.150   4.858
15470TIP3    H196878   1.507   7.201   4.903
15470TIP3    H296879   1.543   7.142   4.768
15471TIP3   OH296880   1.808   6.572   3.726
15471TIP3    H196881   1.780   6.607   3.642
15471TIP3    H296882   1.794   6.644   3.788
15472TIP3   OH296883   1.597   6.466   4.181
15472TIP3    H196884   1.597   6.374   4.153
15472TIP3    H296885   1.555   6.465   4.267
15473TIP3   OH296886   0.141   6.683   4.549
15473TIP3    H196887   0.155   6.644   4.462
15473TIP3    H296888   0.185   6.623   4.609
15474TIP3   OH296889   1.708   6.635   5.227
15474TIP3    H196890   1.758   6.554   5.213
15474TIP3    H296891   1.763   6.704   5.190
15475TIP3   OH296892   1.521   6.095   3.593
15475TIP3    H196893   1.613   6.078   3.572
15475TIP3    H296894   1.500   6.029   3.660
15476TIP3   OH296895   1.572   6.215   4.002
15476TIP3    H196896   1.606   6.126   4.011
15476TIP3    H296897   1.632   6.257   3.940
15477TIP3   OH296898   1.598   6.255   4.557
15477TIP3    H196899   1.691   6.266   4.536
15477TIP3    H296900   1.593   6.271   4.651
15478TIP3   OH296901   1.621   6.332   4.822
15478TIP3    H196902   1.544   6.362   4.869
15478TIP3    H296903   1.670   6.412   4.802
15479TIP3   OH296904   1.642   5.946   4.022
15479TIP3    H196905   1.666   5.907   4.106
15479TIP3    H296906   1.569   5.893   3.990
15480TIP3   OH296907   0.194   6.034   4.451
15480TIP3    H196908   0.215   5.942   4.469
15480TIP3    H296909   0.251   6.083   4.510
15481TIP3   OH296910   8.133   6.391   4.559
15481TIP3    H196911   0.063   6.363   4.506
15481TIP3    H296912   8.133   6.486   4.551
15482TIP3   OH296913   1.768   5.957   3.658
15482TIP3    H196914   1.823   5.917   3.591
15482TIP3    H296915   1.827   6.012   3.709
15483TIP3   OH296916   0.018   5.923   3.920
15483TIP3    H196917   8.109   5.926   3.999
15483TIP3    H296918   0.072   6.002   3.924
15484TIP3   OH296919   1.487   7.453   4.178
15484TIP3    H196920   1.569   7.452   4.128
15484TIP3    H296921   1.501   7.518   4.247
15485TIP3   OH296922   0.037   5.833   4.850
15485TIP3    H196923   8.135   5.749   4.843
15485TIP3    H296924   8.115   5.898   4.824
15486TIP3   OH296925   0.593   7.258   4.875
15486TIP3    H196926   0.565   7.347   4.852
15486TIP3    H296927   0.687   7.258   4.857
15487TIP3   OH296928   0.978   7.367   5.215
15487TIP3    H196929   0.992   7.335   5.304
15487TIP3    H296930   1.061   7.407   5.190
15488TIP3   OH296931   1.207   7.496   5.115
15488TIP3    H196932   1.272   7.449   5.062
15488TIP3    H296933   1.241   7.492   5.204
15489TIP3   OH296934   1.735   5.714   4.978
15489TIP3    H196935   1.731   5.717   5.073
15489TIP3    H296936   1.736   5.620   4.957
15490TIP3   OH296937   0.266   7.514   4.876
15490TIP3    H196938   0.191   7.556   4.834
15490TIP3    H296939   0.269   7.554   4.963
15491TIP3   OH296940   0.538   7.520   4.815
15491TIP3    H196941   0.445   7.527   4.834
15491TIP3    H296942   0.551   7.571   4.735
15492TIP3   OH296943   0.970   7.518   4.716
15492TIP3    H196944   0.924   7.561   4.644
15492TIP3    H296945   0.985   7.587   4.780
15493TIP3   OH296946   1.201   7.381   4.774
15493TIP3    H196947   1.122   7.428   4.747
15493TIP3    H296948   1.272   7.444   4.763
15494TIP3   OH296949   1.437   7.539   4.774
15494TIP3    H196950   1.474   7.626   4.782
15494TIP3    H296951   1.484   7.499   4.700
15495TIP3   OH296952   0.232   7.392   4.540
15495TIP3    H196953   0.215   7.359   4.629
15495TIP3    H296954   0.318   7.357   4.518
15496TIP3   OH296955   0.464   7.271   4.463
15496TIP3    H196956   0.456   7.182   4.495
15496TIP3    H296957   0.552   7.299   4.491
15497TIP3   OH296958   0.728   7.300   4.550
15497TIP3    H196959   0.741   7.212   4.514
15497TIP3    H296960   0.770   7.298   4.635
15498TIP3   OH296961   0.981   5.838   4.350
15498TIP3    H196962   0.926   5.784   4.406
15498TIP3    H296963   1.070   5.824   4.383
15499TIP3   OH296964   1.534   5.747   4.408
15499TIP3    H196965   1.604   5.786   4.357
15499TIP3    H296966   1.537   5.793   4.492
15500TIP3   OH296967   1.745   5.825   4.247
15500TIP3    H196968   1.806   5.754   4.228
15500TIP3    H296969   1.800   5.901   4.264
15501TIP3   OH296970   0.282   5.733   4.171
15501TIP3    H196971   0.191   5.715   4.147
15501TIP3    H296972   0.324   5.648   4.170
15502TIP3   OH296973   0.181   5.734   3.806
15502TIP3    H196974   0.236   5.801   3.765
15502TIP3    H296975   0.112   5.783   3.851
15503TIP3   OH296976   0.726   5.728   4.203
15503TIP3    H196977   0.809   5.756   4.165
15503TIP3    H296978   0.745   5.712   4.295
15504TIP3   OH296979   1.236   5.765   4.444
15504TIP3    H196980   1.328   5.767   4.417
15504TIP3    H296981   1.216   5.672   4.453
15505TIP3   OH296982   1.427   5.800   3.919
15505TIP3    H196983   1.350   5.853   3.935
15505TIP3    H296984   1.398   5.710   3.931
15506TIP3   OH296985   0.163   7.337   3.863
15506TIP3    H196986   0.151   7.312   3.772
15506TIP3    H296987   0.182   7.431   3.859
15507TIP3   OH296988   0.349   5.913   3.680
15507TIP3    H196989   0.372   5.839   3.623
15507TIP3    H296990   0.433   5.950   3.707
15508TIP3   OH296991   0.797   5.979   3.948
15508TIP3    H196992   0.851   5.905   3.977
15508TIP3    H296993   0.850   6.056   3.967
15509TIP3   OH296994   1.040   7.436   3.711
15509TIP3    H196995   1.131   7.447   3.681
15509TIP3    H296996   1.029   7.342   3.721
15510TIP3   OH296997   1.704   7.449   4.003
15510TIP3    H196998   1.684   7.359   3.976
15510TIP3    H296999   1.689   7.501   3.925
15511TIP3   OH297000   0.289   5.822   5.114
15511TIP3    H197001   0.227   5.792   5.180
15511TIP3    H297002   0.365   5.852   5.164
15512TIP3   OH297003   0.324   7.431   3.561
15512TIP3    H197004   0.288   7.516   3.535
15512TIP3    H297005   0.344   7.441   3.654
15513TIP3   OH297006   3.058   6.697   4.142
15513TIP3    H197007   3.055   6.791   4.125
15513TIP3    H297008   3.029   6.688   4.233
15514TIP3   OH297009   2.976   6.614   4.591
15514TIP3    H197010   3.013   6.575   4.670
15514TIP3    H297011   2.899   6.561   4.572
15515TIP3   OH297012   2.187   6.536   4.680
15515TIP3    H197013   2.191   6.459   4.737
15515TIP3    H297014   2.278   6.556   4.660
15516TIP3   OH297015   3.338   6.928   4.378
15516TIP3    H197016   3.313   6.850   4.428
15516TIP3    H297017   3.357   6.994   4.445
15517TIP3   OH297018   2.344   6.998   4.475
15517TIP3    H197019   2.307   6.912   4.456
15517TIP3    H297020   2.434   6.979   4.504
15518TIP3   OH297021   1.953   6.333   3.987
15518TIP3    H197022   1.945   6.414   4.036
15518TIP3    H297023   1.871   6.327   3.937
15519TIP3   OH297024   2.041   6.604   4.329
15519TIP3    H197025   2.065   6.515   4.353
15519TIP3    H297026   2.120   6.655   4.343
15520TIP3   OH297027   3.089   7.362   4.446
15520TIP3    H197028   3.121   7.310   4.372
15520TIP3    H297029   3.084   7.300   4.519
15521TIP3   OH297030   2.820   6.857   4.629
15521TIP3    H197031   2.853   6.771   4.602
15521TIP3    H297032   2.891   6.896   4.679
15522TIP3   OH297033   3.696   5.998   4.663
15522TIP3    H197034   3.710   6.053   4.740
15522TIP3    H297035   3.751   6.039   4.595
15523TIP3   OH297036   3.119   6.304   4.548
15523TIP3    H197037   3.120   6.210   4.567
15523TIP3    H297038   3.080   6.311   4.461
15524TIP3   OH297039   2.419   6.078   4.328
15524TIP3    H197040   2.439   6.162   4.287
15524TIP3    H297041   2.363   6.033   4.264
15525TIP3   OH297042   3.252   6.123   4.164
15525TIP3    H197043   3.286   6.085   4.245
15525TIP3    H297044   3.330   6.159   4.120
15526TIP3   OH297045   2.098   6.341   4.391
15526TIP3    H197046   2.159   6.301   4.454
15526TIP3    H297047   2.122   6.302   4.307
15527TIP3   OH297048   2.606   6.500   4.287
15527TIP3    H197049   2.646   6.484   4.372
15527TIP3    H297050   2.563   6.418   4.265
15528TIP3   OH297051   3.716   6.133   4.904
15528TIP3    H197052   3.668   6.212   4.876
15528TIP3    H297053   3.654   6.088   4.962
15529TIP3   OH297054   2.316   6.004   4.752
15529TIP3    H197055   2.299   6.072   4.687
15529TIP3    H297056   2.242   6.010   4.812
15530TIP3   OH297057   3.059   6.954   4.037
15530TIP3    H197058   3.046   6.951   3.943
15530TIP3    H297059   3.013   7.032   4.066
15531TIP3   OH297060   2.592   6.776   4.784
15531TIP3    H197061   2.543   6.852   4.816
15531TIP3    H297062   2.669   6.814   4.742
15532TIP3   OH297063   3.347   6.048   4.413
15532TIP3    H197064   3.268   6.042   4.466
15532TIP3    H297065   3.405   6.107   4.462
15533TIP3   OH297066   2.270   6.176   4.536
15533TIP3    H197067   2.323   6.238   4.586
15533TIP3    H297068   2.331   6.137   4.473
15534TIP3   OH297069   2.436   6.988   4.874
15534TIP3    H197070   2.442   7.080   4.849
15534TIP3    H297071   2.343   6.974   4.893
15535TIP3   OH297072   1.987   6.961   3.921
15535TIP3    H197073   1.983   7.006   3.837
15535TIP3    H297074   2.012   7.029   3.984
15536TIP3   OH297075   3.364   7.139   4.567
15536TIP3    H197076   3.272   7.140   4.594
15536TIP3    H297077   3.387   7.231   4.557
15537TIP3   OH297078   3.442   5.903   4.765
15537TIP3    H197079   3.375   5.962   4.731
15537TIP3    H297080   3.522   5.928   4.719
15538TIP3   OH297081   2.665   5.692   4.495
15538TIP3    H197082   2.647   5.598   4.507
15538TIP3    H297083   2.588   5.736   4.533
15539TIP3   OH297084   3.201   7.251   4.212
15539TIP3    H197085   3.250   7.172   4.192
15539TIP3    H297086   3.267   7.320   4.215
15540TIP3   OH297087   3.325   7.021   4.120
15540TIP3    H197088   3.242   6.980   4.093
15540TIP3    H297089   3.344   6.982   4.205
15541TIP3   OH297090   3.556   6.886   4.929
15541TIP3    H197091   3.526   6.829   4.859
15541TIP3    H297092   3.546   6.975   4.894
15542TIP3   OH297093   2.945   6.604   3.908
15542TIP3    H197094   2.884   6.674   3.887
15542TIP3    H297095   2.988   6.632   3.989
15543TIP3   OH297096   2.938   6.466   3.666
15543TIP3    H197097   2.942   6.516   3.747
15543TIP3    H297098   3.018   6.414   3.664
15544TIP3   OH297099   3.670   6.558   4.758
15544TIP3    H197100   3.594   6.616   4.753
15544TIP3    H297101   3.730   6.593   4.693
15545TIP3   OH297102   3.294   6.623   4.019
15545TIP3    H197103   3.218   6.644   4.072
15545TIP3    H297104   3.354   6.579   4.079
15546TIP3   OH297105   3.303   6.405   4.951
15546TIP3    H197106   3.319   6.476   5.014
15546TIP3    H297107   3.226   6.434   4.902
15547TIP3   OH297108   2.468   6.706   4.181
15547TIP3    H197109   2.439   6.666   4.099
15547TIP3    H297110   2.523   6.639   4.223
15548TIP3   OH297111   2.630   7.015   4.492
15548TIP3    H197112   2.653   6.997   4.401
15548TIP3    H297113   2.692   6.964   4.544
15549TIP3   OH297114   2.447   6.631   4.599
15549TIP3    H197115   2.516   6.569   4.576
15549TIP3    H297116   2.484   6.685   4.668
15550TIP3   OH297117   3.103   7.159   4.650
15550TIP3    H197118   3.092   7.229   4.714
15550TIP3    H297119   3.077   7.080   4.698
15551TIP3   OH297120   2.627   7.023   5.074
15551TIP3    H197121   2.573   7.055   5.147
15551TIP3    H297122   2.563   6.998   5.007
15552TIP3   OH297123   3.268   6.565   3.748
15552TIP3    H197124   3.251   6.577   3.842
15552TIP3    H297125   3.328   6.636   3.726
15553TIP3   OH297126   2.284   6.621   5.044
15553TIP3    H197127   2.275   6.644   5.137
15553TIP3    H297128   2.194   6.615   5.013
15554TIP3   OH297129   2.962   7.213   4.085
15554TIP3    H197130   3.038   7.221   4.142
15554TIP3    H297131   2.926   7.302   4.080
15555TIP3   OH297132   2.351   7.216   5.108
15555TIP3    H197133   2.398   7.231   5.026
15555TIP3    H297134   2.295   7.141   5.091
15556TIP3   OH297135   3.525   5.729   3.741
15556TIP3    H197136   3.448   5.749   3.794
15556TIP3    H297137   3.568   5.813   3.726
15557TIP3   OH297138   2.374   6.599   3.937
15557TIP3    H197139   2.309   6.665   3.911
15557TIP3    H297140   2.321   6.521   3.957
15558TIP3   OH297141   3.646   7.169   3.666
15558TIP3    H197142   3.675   7.260   3.663
15558TIP3    H297143   3.727   7.117   3.657
15559TIP3   OH297144   1.985   6.804   4.899
15559TIP3    H197145   1.940   6.811   4.815
15559TIP3    H297146   1.994   6.710   4.914
15560TIP3   OH297147   1.931   7.144   4.573
15560TIP3    H197148   2.006   7.152   4.632
15560TIP3    H297149   1.879   7.223   4.589
15561TIP3   OH297150   3.840   7.213   5.058
15561TIP3    H197151   3.893   7.136   5.079
15561TIP3    H297152   3.778   7.221   5.131
15562TIP3   OH297153   2.830   7.202   5.024
15562TIP3    H197154   2.827   7.264   5.098
15562TIP3    H297155   2.765   7.135   5.046
15563TIP3   OH297156   2.918   7.471   3.993
15563TIP3    H197157   2.908   7.479   3.899
15563TIP3    H297158   2.892   7.557   4.027
15564TIP3   OH297159   2.269   7.347   4.183
15564TIP3    H197160   2.291   7.317   4.272
15564TIP3    H297161   2.213   7.277   4.148
15565TIP3   OH297162   3.204   7.420   3.663
15565TIP3    H197163   3.266   7.352   3.636
15565TIP3    H297164   3.211   7.423   3.758
15566TIP3   OH297165   3.190   7.423   3.944
15566TIP3    H197166   3.099   7.426   3.973
15566TIP3    H297167   3.237   7.382   4.017
15567TIP3   OH297168   2.175   6.995   4.986
15567TIP3    H197169   2.198   6.958   5.071
15567TIP3    H297170   2.112   6.933   4.949
15568TIP3   OH297171   2.425   5.802   4.592
15568TIP3    H197172   2.349   5.800   4.535
15568TIP3    H297173   2.408   5.876   4.651
15569TIP3   OH297174   2.936   5.764   4.943
15569TIP3    H197175   2.985   5.714   5.007
15569TIP3    H297176   2.845   5.756   4.970
15570TIP3   OH297177   3.230   6.142   5.019
15570TIP3    H197178   3.184   6.155   5.102
15570TIP3    H297179   3.252   6.231   4.990
15571TIP3   OH297180   2.864   5.976   3.625
15571TIP3    H197181   2.810   5.965   3.704
15571TIP3    H297182   2.949   6.007   3.658
15572TIP3   OH297183   2.432   6.330   4.681
15572TIP3    H197184   2.436   6.350   4.774
15572TIP3    H297185   2.517   6.356   4.646
15573TIP3   OH297186   2.429   6.303   4.174
15573TIP3    H197187   2.334   6.300   4.170
15573TIP3    H297188   2.458   6.285   4.084
15574TIP3   OH297189   2.986   6.347   4.014
15574TIP3    H197190   2.960   6.433   3.981
15574TIP3    H297191   3.070   6.329   3.970
15575TIP3   OH297192   3.056   6.287   4.278
15575TIP3    H197193   3.023   6.324   4.196
15575TIP3    H297194   3.122   6.224   4.250
15576TIP3   OH297195   2.162   6.327   4.871
15576TIP3    H197196   2.251   6.334   4.904
15576TIP3    H297197   2.140   6.235   4.882
15577TIP3   OH297198   1.925   6.027   4.272
15577TIP3    H197199   1.954   6.027   4.363
15577TIP3    H297200   1.980   6.092   4.228
15578TIP3   OH297201   1.972   6.112   3.792
15578TIP3    H197202   2.046   6.122   3.732
15578TIP3    H297203   1.975   6.190   3.847
15579TIP3   OH297204   3.071   6.435   4.792
15579TIP3    H197205   3.085   6.383   4.713
15579TIP3    H297206   3.012   6.383   4.845
15580TIP3   OH297207   2.679   6.016   4.248
15580TIP3    H197208   2.594   6.025   4.290
15580TIP3    H297209   2.737   6.074   4.298
15581TIP3   OH297210   2.159   6.225   4.148
15581TIP3    H197211   2.095   6.251   4.081
15581TIP3    H297212   2.188   6.138   4.121
15582TIP3   OH297213   2.497   6.235   3.914
15582TIP3    H197214   2.589   6.233   3.938
15582TIP3    H297215   2.496   6.278   3.828
15583TIP3   OH297216   3.118   6.029   4.561
15583TIP3    H197217   3.100   6.006   4.652
15583TIP3    H297218   3.050   5.983   4.512
15584TIP3   OH297219   2.480   6.330   3.654
15584TIP3    H197220   2.423   6.325   3.576
15584TIP3    H297221   2.559   6.373   3.622
15585TIP3   OH297222   2.799   6.228   4.366
15585TIP3    H197223   2.891   6.250   4.350
15585TIP3    H297224   2.772   6.286   4.437
15586TIP3   OH297225   2.268   5.970   4.114
15586TIP3    H197226   2.228   5.886   4.139
15586TIP3    H297227   2.337   5.946   4.052
15587TIP3   OH297228   2.708   6.200   4.789
15587TIP3    H197229   2.715   6.262   4.716
15587TIP3    H297230   2.780   6.225   4.848
15588TIP3   OH297231   2.774   6.823   3.849
15588TIP3    H197232   2.707   6.767   3.810
15588TIP3    H297233   2.735   6.853   3.931
15589TIP3   OH297234   3.475   6.745   4.704
15589TIP3    H197235   3.534   6.802   4.655
15589TIP3    H297236   3.397   6.737   4.649
15590TIP3   OH297237   3.101   6.107   3.733
15590TIP3    H197238   3.123   6.133   3.644
15590TIP3    H297239   3.137   6.177   3.788
15591TIP3   OH297240   2.861   6.877   4.998
15591TIP3    H197241   2.865   6.797   5.050
15591TIP3    H297242   2.784   6.923   5.030
15592TIP3   OH297243   3.226   6.310   3.869
15592TIP3    H197244   3.304   6.283   3.918
15592TIP3    H297245   3.254   6.388   3.821
15593TIP3   OH297246   2.285   6.728   4.394
15593TIP3    H197247   2.347   6.727   4.321
15593TIP3    H297248   2.334   6.689   4.467
15594TIP3   OH297249   2.992   6.962   3.744
15594TIP3    H197250   2.956   7.049   3.757
15594TIP3    H297251   2.922   6.902   3.770
15595TIP3   OH297252   2.021   6.540   4.989
15595TIP3    H197253   2.035   6.501   5.075
15595TIP3    H297254   2.046   6.472   4.926
15596TIP3   OH297255   3.111   7.193   5.034
15596TIP3    H197256   3.018   7.176   5.018
15596TIP3    H297257   3.139   7.120   5.090
15597TIP3   OH297258   3.653   6.317   3.813
15597TIP3    H197259   3.630   6.277   3.729
15597TIP3    H297260   3.670   6.409   3.792
15598TIP3   OH297261   3.714   6.877   5.162
15598TIP3    H197262   3.643   6.885   5.226
15598TIP3    H297263   3.671   6.886   5.077
15599TIP3   OH297264   3.522   7.201   3.927
15599TIP3    H197265   3.475   7.130   3.971
15599TIP3    H297266   3.551   7.163   3.844
15600TIP3   OH297267   3.261   6.695   4.521
15600TIP3    H197268   3.170   6.681   4.547
15600TIP3    H297269   3.291   6.609   4.493
15601TIP3   OH297270   2.544   7.122   4.206
15601TIP3    H197271   2.550   7.211   4.170
15601TIP3    H297272   2.476   7.128   4.274
15602TIP3   OH297273   2.060   6.667   3.639
15602TIP3    H197274   2.108   6.700   3.715
15602TIP3    H297275   1.990   6.614   3.677
15603TIP3   OH297276   2.627   6.901   4.065
15603TIP3    H197277   2.606   6.982   4.111
15603TIP3    H297278   2.576   6.834   4.109
15604TIP3   OH297279   2.734   7.299   4.786
15604TIP3    H197280   2.788   7.374   4.764
15604TIP3    H297281   2.779   7.258   4.860
15605TIP3   OH297282   2.523   7.383   4.087
15605TIP3    H197283   2.431   7.378   4.111
15605TIP3    H297284   2.552   7.468   4.120
15606TIP3   OH297285   3.042   6.926   4.797
15606TIP3    H197286   2.979   6.913   4.867
15606TIP3    H297287   3.124   6.891   4.831
15607TIP3   OH297288   3.271   6.970   3.668
15607TIP3    H197289   3.322   6.915   3.728
15607TIP3    H297290   3.181   6.965   3.702
15608TIP3   OH297291   3.332   7.309   4.923
15608TIP3    H197292   3.253   7.269   4.961
15608TIP3    H297293   3.302   7.393   4.887
15609TIP3   OH297294   3.721   7.434   3.689
15609TIP3    H197295   3.781   7.508   3.681
15609TIP3    H297296   3.635   7.474   3.703
15610TIP3   OH297297   2.087   6.058   4.910
15610TIP3    H197298   1.993   6.078   4.910
15610TIP3    H297299   2.095   5.983   4.968
15611TIP3   OH297300   3.413   6.800   3.837
15611TIP3    H197301   3.369   6.756   3.909
15611TIP3    H297302   3.505   6.806   3.865
15612TIP3   OH297303   2.106   7.257   4.772
15612TIP3    H197304   2.112   7.190   4.840
15612TIP3    H297305   2.117   7.340   4.818
15613TIP3   OH297306   2.555   7.046   3.719
15613TIP3    H197307   2.604   6.983   3.772
15613TIP3    H297308   2.569   7.130   3.762
15614TIP3   OH297309   2.194   6.790   3.846
15614TIP3    H197310   2.127   6.838   3.895
15614TIP3    H297311   2.237   6.856   3.792
15615TIP3   OH297312   3.088   5.978   4.829
15615TIP3    H197313   3.131   6.026   4.899
15615TIP3    H297314   3.037   5.910   4.873
15616TIP3   OH297315   3.120   5.961   3.979
15616TIP3    H197316   3.105   6.014   3.900
15616TIP3    H297317   3.157   6.022   4.042
15617TIP3   OH297318   2.869   7.194   3.826
15617TIP3    H197319   2.777   7.218   3.833
15617TIP3    H297320   2.902   7.196   3.916
15618TIP3   OH297321   2.750   6.193   4.018
15618TIP3    H197322   2.829   6.246   4.026
15618TIP3    H297323   2.738   6.156   4.106
15619TIP3   OH297324   2.911   6.276   4.970
15619TIP3    H197325   2.892   6.332   5.046
15619TIP3    H297326   2.926   6.190   5.008
15620TIP3   OH297327   2.889   5.848   4.080
15620TIP3    H197328   2.876   5.877   4.170
15620TIP3    H297329   2.976   5.881   4.056
15621TIP3   OH297330   2.610   7.293   3.840
15621TIP3    H197331   2.616   7.378   3.797
15621TIP3    H297332   2.579   7.314   3.928
15622TIP3   OH297333   2.473   5.983   3.795
15622TIP3    H197334   2.466   6.070   3.835
15622TIP3    H297335   2.562   5.955   3.816
15623TIP3   OH297336   3.486   6.028   5.025
15623TIP3    H197337   3.397   6.063   5.034
15623TIP3    H297338   3.480   5.964   4.954
15624TIP3   OH297339   3.343   6.432   4.444
15624TIP3    H197340   3.259   6.398   4.476
15624TIP3    H297341   3.409   6.375   4.483
15625TIP3   OH297342   2.288   6.982   3.656
15625TIP3    H197343   2.374   7.006   3.690
15625TIP3    H297344   2.301   6.971   3.562
15626TIP3   OH297345   3.443   7.409   4.557
15626TIP3    H197346   3.436   7.481   4.493
15626TIP3    H297347   3.537   7.404   4.576
15627TIP3   OH297348   2.182   5.782   4.455
15627TIP3    H197349   2.184   5.771   4.360
15627TIP3    H297350   2.160   5.695   4.489
15628TIP3   OH297351   2.059   7.184   4.076
15628TIP3    H197352   2.016   7.215   4.155
15628TIP3    H297353   2.047   7.255   4.013
15629TIP3   OH297354   3.377   7.217   3.597
15629TIP3    H197355   3.337   7.136   3.627
15629TIP3    H297356   3.471   7.205   3.611
15630TIP3   OH297357   3.265   6.855   4.974
15630TIP3    H197358   3.358   6.879   4.972
15630TIP3    H297359   3.231   6.899   5.052
15631TIP3   OH297360   2.579   6.657   3.755
15631TIP3    H197361   2.513   6.630   3.819
15631TIP3    H297362   2.598   6.577   3.705
15632TIP3   OH297363   2.423   6.403   4.950
15632TIP3    H197364   2.376   6.477   4.989
15632TIP3    H297365   2.513   6.433   4.940
15633TIP3   OH297366   2.689   6.472   3.552
15633TIP3    H197367   2.708   6.462   3.459
15633TIP3    H297368   2.775   6.470   3.594
15634TIP3   OH297369   2.424   6.153   5.087
15634TIP3    H197370   2.484   6.092   5.044
15634TIP3    H297371   2.433   6.235   5.038
15635TIP3   OH297372   2.556   5.995   4.892
15635TIP3    H197373   2.615   6.060   4.854
15635TIP3    H297374   2.476   6.000   4.839
15636TIP3   OH297375   2.661   6.531   4.898
15636TIP3    H197376   2.701   6.494   4.820
15636TIP3    H297377   2.637   6.620   4.873
15637TIP3   OH297378   2.651   5.739   4.952
15637TIP3    H197379   2.624   5.830   4.941
15637TIP3    H297380   2.578   5.689   4.914
15638TIP3   OH297381   2.670   7.513   3.679
15638TIP3    H197382   2.763   7.501   3.698
15638TIP3    H297383   2.668   7.564   3.598
15639TIP3   OH297384   2.012   7.045   3.649
15639TIP3    H197385   2.106   7.035   3.664
15639TIP3    H297386   1.999   7.017   3.559
15640TIP3   OH297387   1.915   7.508   4.168
15640TIP3    H197388   1.846   7.483   4.107
15640TIP3    H297389   1.927   7.430   4.223
15641TIP3   OH297390   1.975   7.288   4.326
15641TIP3    H197391   1.939   7.214   4.376
15641TIP3    H297392   2.027   7.337   4.390
15642TIP3   OH297393   3.706   7.402   4.637
15642TIP3    H197394   3.688   7.374   4.727
15642TIP3    H297395   3.755   7.483   4.647
15643TIP3   OH297396   3.661   7.340   4.898
15643TIP3    H197397   3.595   7.271   4.885
15643TIP3    H297398   3.726   7.300   4.956
15644TIP3   OH297399   3.677   6.770   3.929
15644TIP3    H197400   3.745   6.837   3.940
15644TIP3    H297401   3.690   6.710   4.003
15645TIP3   OH297402   3.724   6.577   4.127
15645TIP3    H197403   3.641   6.551   4.167
15645TIP3    H297404   3.782   6.592   4.201
15646TIP3   OH297405   3.689   6.887   4.610
15646TIP3    H197406   3.759   6.825   4.590
15646TIP3    H297407   3.725   6.972   4.586
15647TIP3   OH297408   3.496   7.127   4.815
15647TIP3    H197409   3.431   7.183   4.857
15647TIP3    H297410   3.463   7.115   4.726
15648TIP3   OH297411   3.698   6.576   3.736
15648TIP3    H197412   3.654   6.610   3.658
15648TIP3    H297413   3.685   6.643   3.802
15649TIP3   OH297414   3.459   6.471   4.190
15649TIP3    H197415   3.463   6.380   4.159
15649TIP3    H297416   3.420   6.465   4.277
15650TIP3   OH297417   1.965   6.663   4.591
15650TIP3    H197418   1.976   6.650   4.497
15650TIP3    H297419   2.045   6.627   4.629
15651TIP3   OH297420   3.653   6.596   5.149
15651TIP3    H197421   3.560   6.594   5.130
15651TIP3    H297422   3.672   6.687   5.172
15652TIP3   OH297423   3.412   6.098   3.610
15652TIP3    H197424   3.500   6.061   3.602
15652TIP3    H297425   3.367   6.039   3.671
15653TIP3   OH297426   3.463   6.221   3.999
15653TIP3    H197427   3.488   6.129   4.006
15653TIP3    H297428   3.531   6.260   3.944
15654TIP3   OH297429   3.497   6.235   4.564
15654TIP3    H197430   3.591   6.243   4.544
15654TIP3    H297431   3.491   6.253   4.657
15655TIP3   OH297432   3.535   6.327   4.825
15655TIP3    H197433   3.455   6.351   4.871
15655TIP3    H297434   3.579   6.411   4.808
15656TIP3   OH297435   3.513   5.949   4.020
15656TIP3    H197436   3.539   5.915   4.106
15656TIP3    H297437   3.446   5.888   3.989
15657TIP3   OH297438   2.045   6.015   4.518
15657TIP3    H197439   2.091   5.932   4.510
15657TIP3    H297440   2.114   6.079   4.536
15658TIP3   OH297441   1.864   6.318   4.542
15658TIP3    H197442   1.942   6.324   4.487
15658TIP3    H297443   1.882   6.375   4.616
15659TIP3   OH297444   3.653   5.959   3.639
15659TIP3    H197445   3.696   5.949   3.554
15659TIP3    H297446   3.719   6.002   3.694
15660TIP3   OH297447   1.911   5.874   3.919
15660TIP3    H197448   1.826   5.887   3.962
15660TIP3    H297449   1.938   5.963   3.894
15661TIP3   OH297450   3.377   7.453   4.179
15661TIP3    H197451   3.459   7.457   4.129
15661TIP3    H297452   3.392   7.513   4.253
15662TIP3   OH297453   1.904   5.752   4.762
15662TIP3    H197454   1.848   5.745   4.839
15662TIP3    H297455   1.879   5.835   4.722
15663TIP3   OH297456   2.472   7.260   4.862
15663TIP3    H197457   2.441   7.348   4.842
15663TIP3    H297458   2.566   7.262   4.842
15664TIP3   OH297459   2.850   7.382   5.236
15664TIP3    H197460   2.872   7.342   5.320
15664TIP3    H297461   2.933   7.416   5.203
15665TIP3   OH297462   3.075   7.474   5.100
15665TIP3    H197463   3.092   7.393   5.052
15665TIP3    H297464   3.131   7.468   5.178
15666TIP3   OH297465   3.628   5.720   4.978
15666TIP3    H197466   3.552   5.723   5.036
15666TIP3    H297467   3.644   5.627   4.964
15667TIP3   OH297468   2.136   7.524   4.863
15667TIP3    H197469   2.063   7.563   4.816
15667TIP3    H297470   2.132   7.562   4.950
15668TIP3   OH297471   2.410   7.522   4.808
15668TIP3    H197472   2.316   7.525   4.829
15668TIP3    H297473   2.417   7.568   4.725
15669TIP3   OH297474   2.853   7.536   4.700
15669TIP3    H197475   2.791   7.571   4.636
15669TIP3    H297476   2.851   7.598   4.772
15670TIP3   OH297477   3.082   7.402   4.775
15670TIP3    H197478   3.005   7.450   4.743
15670TIP3    H297479   3.153   7.465   4.768
15671TIP3   OH297480   3.312   7.554   4.759
15671TIP3    H197481   3.360   7.636   4.763
15671TIP3    H297482   3.361   7.500   4.696
15672TIP3   OH297483   2.137   7.397   4.527
15672TIP3    H197484   2.117   7.357   4.612
15672TIP3    H297485   2.217   7.353   4.499
15673TIP3   OH297486   2.356   7.263   4.430
15673TIP3    H197487   2.340   7.172   4.453
15673TIP3    H297488   2.439   7.284   4.473
15674TIP3   OH297489   2.609   7.292   4.541
15674TIP3    H197490   2.623   7.201   4.516
15674TIP3    H297491   2.648   7.299   4.628
15675TIP3   OH297492   2.948   5.878   4.387
15675TIP3    H197493   2.880   5.820   4.422
15675TIP3    H297494   3.014   5.819   4.351
15676TIP3   OH297495   3.432   5.747   4.410
15676TIP3    H197496   3.505   5.789   4.365
15676TIP3    H297497   3.373   5.820   4.431
15677TIP3   OH297498   3.626   5.838   4.243
15677TIP3    H197499   3.684   5.764   4.225
15677TIP3    H297500   3.686   5.913   4.256
15678TIP3   OH297501   2.169   5.715   4.182
15678TIP3    H197502   2.074   5.703   4.175
15678TIP3    H297503   2.204   5.626   4.191
15679TIP3   OH297504   2.028   5.774   3.684
15679TIP3    H197505   2.105   5.831   3.676
15679TIP3    H297506   1.987   5.800   3.767
15680TIP3   OH297507   2.613   5.742   4.224
15680TIP3    H197508   2.644   5.832   4.211
15680TIP3    H297509   2.636   5.723   4.315
15681TIP3   OH297510   3.127   5.697   4.287
15681TIP3    H197511   3.210   5.673   4.246
15681TIP3    H297512   3.105   5.624   4.344
15682TIP3   OH297513   3.318   5.779   3.919
15682TIP3    H197514   3.245   5.837   3.940
15682TIP3    H297515   3.284   5.691   3.936
15683TIP3   OH297516   2.030   7.380   3.885
15683TIP3    H197517   1.958   7.368   3.824
15683TIP3    H297518   2.037   7.475   3.896
15684TIP3   OH297519   2.256   5.915   3.642
15684TIP3    H197520   2.289   5.949   3.559
15684TIP3    H297521   2.327   5.929   3.705
15685TIP3   OH297522   2.739   5.958   3.873
15685TIP3    H197523   2.780   5.901   3.938
15685TIP3    H297524   2.743   6.046   3.912
15686TIP3   OH297525   2.931   7.442   3.714
15686TIP3    H197526   3.021   7.449   3.680
15686TIP3    H297527   2.920   7.349   3.733
15687TIP3   OH297528   3.594   7.453   4.000
15687TIP3    H197529   3.573   7.362   3.978
15687TIP3    H297530   3.576   7.502   3.920
15688TIP3   OH297531   2.145   5.836   5.075
15688TIP3    H197532   2.097   5.793   5.146
15688TIP3    H297533   2.219   5.878   5.119
15689TIP3   OH297534   2.229   7.513   3.612
15689TIP3    H197535   2.172   7.468   3.674
15689TIP3    H297536   2.296   7.448   3.590
15690TIP3   OH297537   4.972   6.705   4.171
15690TIP3    H197538   4.957   6.798   4.155
15690TIP3    H297539   4.905   6.661   4.120
15691TIP3   OH297540   4.851   6.608   4.572
15691TIP3    H197541   4.876   6.564   4.654
15691TIP3    H297542   4.802   6.541   4.523
15692TIP3   OH297543   4.049   6.524   4.719
15692TIP3    H197544   4.051   6.440   4.765
15692TIP3    H297545   4.093   6.585   4.779
15693TIP3   OH297546   5.229   6.925   4.397
15693TIP3    H197547   5.196   6.848   4.443
15693TIP3    H297548   5.245   6.990   4.465
15694TIP3   OH297549   4.232   6.996   4.463
15694TIP3    H197550   4.190   6.910   4.455
15694TIP3    H297551   4.320   6.976   4.495
15695TIP3   OH297552   3.853   6.350   4.011
15695TIP3    H197553   3.826   6.430   4.055
15695TIP3    H297554   3.778   6.326   3.956
15696TIP3   OH297555   3.928   6.595   4.320
15696TIP3    H197556   3.953   6.507   4.348
15696TIP3    H297557   4.006   6.648   4.338
15697TIP3   OH297558   4.979   7.372   4.453
15697TIP3    H197559   5.009   7.324   4.376
15697TIP3    H297560   4.975   7.307   4.523
15698TIP3   OH297561   4.713   6.856   4.584
15698TIP3    H197562   4.751   6.771   4.559
15698TIP3    H297563   4.781   6.898   4.636
15699TIP3   OH297564   5.580   5.995   4.660
15699TIP3    H197565   5.593   6.063   4.726
15699TIP3    H297566   5.641   6.018   4.590
15700TIP3   OH297567   4.994   6.280   4.583
15700TIP3    H197568   5.006   6.187   4.599
15700TIP3    H297569   4.990   6.288   4.488
15701TIP3   OH297570   4.358   6.083   4.317
15701TIP3    H197571   4.360   6.167   4.272
15701TIP3    H297572   4.293   6.031   4.269
15702TIP3   OH297573   5.135   6.113   4.163
15702TIP3    H197574   5.172   6.081   4.245
15702TIP3    H297575   5.211   6.147   4.115
15703TIP3   OH297576   3.998   6.342   4.404
15703TIP3    H197577   4.063   6.302   4.462
15703TIP3    H297578   4.017   6.304   4.318
15704TIP3   OH297579   4.481   6.485   4.353
15704TIP3    H197580   4.563   6.447   4.386
15704TIP3    H297581   4.443   6.416   4.300
15705TIP3   OH297582   5.597   6.151   4.891
15705TIP3    H197583   5.545   6.226   4.862
15705TIP3    H297584   5.539   6.105   4.952
15706TIP3   OH297585   4.210   5.999   4.741
15706TIP3    H197586   4.188   6.063   4.674
15706TIP3    H297587   4.136   6.000   4.802
15707TIP3   OH297588   4.939   6.955   4.051
15707TIP3    H197589   4.923   6.947   3.957
15707TIP3    H297590   4.893   7.035   4.077
15708TIP3   OH297591   4.487   6.769   4.724
15708TIP3    H197592   4.436   6.839   4.765
15708TIP3    H297593   4.558   6.816   4.679
15709TIP3   OH297594   5.218   6.063   4.418
15709TIP3    H197595   5.151   6.037   4.482
15709TIP3    H297596   5.276   6.121   4.468
15710TIP3   OH297597   4.193   6.176   4.526
15710TIP3    H197598   4.243   6.235   4.583
15710TIP3    H297599   4.259   6.141   4.466
15711TIP3   OH297600   4.337   6.973   4.842
15711TIP3    H197601   4.345   7.068   4.829
15711TIP3    H297602   4.244   6.959   4.858
15712TIP3   OH297603   3.886   6.958   3.932
15712TIP3    H197604   3.876   7.001   3.847
15712TIP3    H297605   3.908   7.029   3.992
15713TIP3   OH297606   5.254   7.135   4.589
15713TIP3    H197607   5.161   7.145   4.611
15713TIP3    H297608   5.283   7.224   4.569
15714TIP3   OH297609   5.334   5.902   4.772
15714TIP3    H197610   5.264   5.947   4.725
15714TIP3    H297611   5.413   5.925   4.724
15715TIP3   OH297612   4.566   5.685   4.500
15715TIP3    H197613   4.543   5.592   4.505
15715TIP3    H297614   4.488   5.731   4.529
15716TIP3   OH297615   5.086   7.265   4.214
15716TIP3    H197616   5.131   7.183   4.195
15716TIP3    H297617   5.156   7.330   4.219
15717TIP3   OH297618   5.198   7.025   4.141
15717TIP3    H197619   5.117   6.982   4.112
15717TIP3    H297620   5.219   6.983   4.225
15718TIP3   OH297621   5.378   6.896   4.966
15718TIP3    H197622   5.364   6.839   4.890
15718TIP3    H297623   5.388   6.984   4.928
15719TIP3   OH297624   4.830   6.603   3.952
15719TIP3    H197625   4.764   6.668   3.927
15719TIP3    H297626   4.895   6.608   3.881
15720TIP3   OH297627   4.860   6.429   3.634
15720TIP3    H197628   4.922   6.475   3.690
15720TIP3    H297629   4.912   6.360   3.592
15721TIP3   OH297630   5.538   6.573   4.787
15721TIP3    H197631   5.465   6.634   4.780
15721TIP3    H297632   5.596   6.596   4.714
15722TIP3   OH297633   5.193   6.623   4.033
15722TIP3    H197634   5.127   6.651   4.097
15722TIP3    H297635   5.258   6.577   4.086
15723TIP3   OH297636   5.155   6.407   4.951
15723TIP3    H197637   5.165   6.471   5.022
15723TIP3    H297638   5.080   6.439   4.900
15724TIP3   OH297639   4.357   6.686   4.209
15724TIP3    H197640   4.328   6.644   4.128
15724TIP3    H297641   4.407   6.619   4.254
15725TIP3   OH297642   4.518   7.027   4.480
15725TIP3    H197643   4.524   7.029   4.385
15725TIP3    H297644   4.589   6.969   4.507
15726TIP3   OH297645   4.344   6.584   4.576
15726TIP3    H197646   4.402   6.556   4.506
15726TIP3    H297647   4.395   6.646   4.627
15727TIP3   OH297648   4.991   7.179   4.660
15727TIP3    H197649   4.978   7.239   4.733
15727TIP3    H297650   4.960   7.095   4.693
15728TIP3   OH297651   4.474   7.039   5.079
15728TIP3    H197652   4.404   7.093   5.117
15728TIP3    H297653   4.433   6.995   5.004
15729TIP3   OH297654   5.068   6.582   3.794
15729TIP3    H197655   5.105   6.593   3.882
15729TIP3    H297656   5.113   6.647   3.741
15730TIP3   OH297657   4.143   6.605   4.980
15730TIP3    H197658   4.150   6.679   5.040
15730TIP3    H297659   4.050   6.580   4.984
15731TIP3   OH297660   4.844   7.216   4.092
15731TIP3    H197661   4.921   7.229   4.148
15731TIP3    H297662   4.811   7.304   4.076
15732TIP3   OH297663   4.243   7.202   5.115
15732TIP3    H197664   4.268   7.222   5.025
15732TIP3    H297665   4.157   7.161   5.107
15733TIP3   OH297666   5.415   5.722   3.784
15733TIP3    H197667   5.329   5.741   3.821
15733TIP3    H297668   5.440   5.802   3.739
15734TIP3   OH297669   4.257   6.591   3.961
15734TIP3    H197670   4.200   6.662   3.930
15734TIP3    H297671   4.199   6.515   3.968
15735TIP3   OH297672   5.532   7.179   3.662
15735TIP3    H197673   5.559   7.270   3.657
15735TIP3    H297674   5.613   7.129   3.654
15736TIP3   OH297675   3.868   6.835   4.841
15736TIP3    H197676   3.780   6.851   4.810
15736TIP3    H297677   3.862   6.752   4.890
15737TIP3   OH297678   3.799   7.146   4.563
15737TIP3    H197679   3.868   7.149   4.629
15737TIP3    H297680   3.746   7.224   4.580
15738TIP3   OH297681   5.706   7.146   5.059
15738TIP3    H197682   5.674   7.065   5.020
15738TIP3    H297683   5.668   7.147   5.147
15739TIP3   OH297684   4.716   7.156   5.045
15739TIP3    H197685   4.717   7.232   5.104
15739TIP3    H297686   4.631   7.114   5.061
15740TIP3   OH297687   4.799   7.462   3.976
15740TIP3    H197688   4.792   7.463   3.881
15740TIP3    H297689   4.773   7.550   4.004
15741TIP3   OH297690   4.156   7.352   4.189
15741TIP3    H197691   4.176   7.323   4.278
15741TIP3    H297692   4.098   7.283   4.154
15742TIP3   OH297693   5.090   7.415   3.668
15742TIP3    H197694   5.149   7.343   3.645
15742TIP3    H297695   5.099   7.423   3.763
15743TIP3   OH297696   5.076   7.429   3.951
15743TIP3    H197697   4.982   7.429   3.969
15743TIP3    H297698   5.114   7.380   4.024
15744TIP3   OH297699   4.071   6.997   4.907
15744TIP3    H197700   4.046   6.996   5.000
15744TIP3    H297701   4.008   6.939   4.864
15745TIP3   OH297702   4.322   5.796   4.585
15745TIP3    H197703   4.246   5.785   4.528
15745TIP3    H297704   4.297   5.868   4.644
15746TIP3   OH297705   4.818   5.787   4.957
15746TIP3    H197706   4.856   5.727   5.021
15746TIP3    H297707   4.723   5.775   4.967
15747TIP3   OH297708   5.118   6.144   5.040
15747TIP3    H197709   5.059   6.152   5.115
15747TIP3    H297710   5.126   6.234   5.006
15748TIP3   OH297711   4.751   5.962   3.596
15748TIP3    H197712   4.701   5.977   3.676
15748TIP3    H297713   4.797   5.879   3.611
15749TIP3   OH297714   4.318   6.339   4.710
15749TIP3    H197715   4.253   6.335   4.780
15749TIP3    H297716   4.312   6.429   4.677
15750TIP3   OH297717   4.337   6.318   4.178
15750TIP3    H197718   4.242   6.313   4.178
15750TIP3    H297719   4.362   6.299   4.087
15751TIP3   OH297720   4.874   6.351   4.055
15751TIP3    H197721   4.850   6.439   4.026
15751TIP3    H297722   4.948   6.327   4.000
15752TIP3   OH297723   4.983   6.296   4.310
15752TIP3    H197724   4.931   6.336   4.240
15752TIP3    H297725   5.028   6.223   4.267
15753TIP3   OH297726   4.103   6.304   4.886
15753TIP3    H197727   4.094   6.336   4.976
15753TIP3    H297728   4.067   6.215   4.888
15754TIP3   OH297729   3.820   6.027   4.245
15754TIP3    H197730   3.858   6.040   4.332
15754TIP3    H297731   3.894   5.998   4.191
15755TIP3   OH297732   3.856   6.098   3.772
15755TIP3    H197733   3.938   6.091   3.723
15755TIP3    H297734   3.850   6.190   3.797
15756TIP3   OH297735   4.918   6.441   4.788
15756TIP3    H197736   4.953   6.387   4.717
15756TIP3    H297737   4.861   6.383   4.837
15757TIP3   OH297738   4.635   6.031   4.262
15757TIP3    H197739   4.547   6.040   4.298
15757TIP3    H297740   4.688   5.999   4.335
15758TIP3   OH297741   4.072   6.248   4.155
15758TIP3    H197742   3.996   6.271   4.101
15758TIP3    H297743   4.085   6.154   4.139
15759TIP3   OH297744   4.398   6.239   3.917
15759TIP3    H197745   4.491   6.233   3.939
15759TIP3    H297746   4.396   6.287   3.834
15760TIP3   OH297747   5.012   6.005   4.600
15760TIP3    H197748   4.983   6.001   4.692
15760TIP3    H297749   4.942   5.960   4.552
15761TIP3   OH297750   4.381   6.347   3.663
15761TIP3    H197751   4.326   6.331   3.586
15761TIP3    H297752   4.463   6.379   3.627
15762TIP3   OH297753   4.706   6.373   4.476
15762TIP3    H197754   4.778   6.317   4.449
15762TIP3    H297755   4.664   6.326   4.548
15763TIP3   OH297756   4.157   5.977   4.133
15763TIP3    H197757   4.116   5.894   4.157
15763TIP3    H297758   4.207   5.958   4.054
15764TIP3   OH297759   4.581   6.246   4.691
15764TIP3    H197760   4.496   6.288   4.708
15764TIP3    H297761   4.632   6.261   4.770
15765TIP3   OH297762   4.656   6.806   3.868
15765TIP3    H197763   4.589   6.752   3.826
15765TIP3    H297764   4.613   6.838   3.948
15766TIP3   OH297765   5.347   6.762   4.724
15766TIP3    H197766   5.410   6.818   4.678
15766TIP3    H297767   5.279   6.743   4.660
15767TIP3   OH297768   5.012   6.074   3.761
15767TIP3    H197769   4.959   6.090   3.683
15767TIP3    H297770   5.034   6.162   3.793
15768TIP3   OH297771   4.822   6.896   5.004
15768TIP3    H197772   4.771   6.833   5.056
15768TIP3    H297773   4.781   6.981   5.022
15769TIP3   OH297774   5.095   6.309   3.883
15769TIP3    H197775   5.180   6.286   3.920
15769TIP3    H297776   5.108   6.395   3.845
15770TIP3   OH297777   4.164   6.720   4.409
15770TIP3    H197778   4.229   6.717   4.338
15770TIP3    H297779   4.204   6.668   4.479
15771TIP3   OH297780   4.869   6.946   3.761
15771TIP3    H197781   4.834   7.034   3.772
15771TIP3    H297782   4.798   6.888   3.788
15772TIP3   OH297783   3.859   6.583   4.967
15772TIP3    H197784   3.803   6.580   5.044
15772TIP3    H297785   3.803   6.553   4.895
15773TIP3   OH297786   5.001   7.160   5.037
15773TIP3    H197787   4.906   7.155   5.031
15773TIP3    H297788   5.023   7.118   5.120
15774TIP3   OH297789   5.546   6.311   3.797
15774TIP3    H197790   5.504   6.278   3.717
15774TIP3    H297791   5.565   6.403   3.779
15775TIP3   OH297792   5.602   6.853   5.123
15775TIP3    H197793   5.516   6.876   5.090
15775TIP3    H297794   5.657   6.846   5.045
15776TIP3   OH297795   5.422   7.201   3.923
15776TIP3    H197796   5.369   7.128   3.956
15776TIP3    H297797   5.445   7.174   3.834
15777TIP3   OH297798   5.143   6.689   4.534
15777TIP3    H197799   5.048   6.678   4.535
15777TIP3    H297800   5.175   6.612   4.489
15778TIP3   OH297801   4.431   7.114   4.218
15778TIP3    H197802   4.438   7.199   4.176
15778TIP3    H297803   4.350   7.119   4.269
15779TIP3   OH297804   3.946   6.674   3.647
15779TIP3    H197805   4.000   6.696   3.723
15779TIP3    H297806   3.875   6.620   3.682
15780TIP3   OH297807   4.504   6.886   4.081
15780TIP3    H197808   4.485   6.968   4.126
15780TIP3    H297809   4.454   6.820   4.129
15781TIP3   OH297810   4.620   7.277   4.805
15781TIP3    H197811   4.676   7.350   4.781
15781TIP3    H297812   4.666   7.232   4.876
15782TIP3   OH297813   4.410   7.373   4.088
15782TIP3    H197814   4.318   7.371   4.113
15782TIP3    H297815   4.442   7.457   4.121
15783TIP3   OH297816   4.927   6.921   4.752
15783TIP3    H197817   4.891   6.913   4.840
15783TIP3    H297818   4.996   6.855   4.747
15784TIP3   OH297819   5.140   6.961   3.669
15784TIP3    H197820   5.193   6.910   3.729
15784TIP3    H297821   5.052   6.958   3.706
15785TIP3   OH297822   5.220   7.300   4.950
15785TIP3    H197823   5.140   7.256   4.978
15785TIP3    H297824   5.189   7.380   4.907
15786TIP3   OH297825   5.616   7.444   3.692
15786TIP3    H197826   5.679   7.512   3.714
15786TIP3    H297827   5.531   7.486   3.702
15787TIP3   OH297828   3.987   6.051   4.904
15787TIP3    H197829   3.894   6.075   4.905
15787TIP3    H297830   3.995   5.981   4.968
15788TIP3   OH297831   5.289   6.798   3.840
15788TIP3    H197832   5.254   6.751   3.916
15788TIP3    H297833   5.383   6.805   3.859
15789TIP3   OH297834   3.972   7.223   4.771
15789TIP3    H197835   4.022   7.149   4.806
15789TIP3    H297836   3.928   7.260   4.848
15790TIP3   OH297837   4.433   7.047   3.733
15790TIP3    H197838   4.482   6.987   3.789
15790TIP3    H297839   4.452   7.134   3.769
15791TIP3   OH297840   4.092   6.787   3.852
15791TIP3    H197841   4.025   6.835   3.901
15791TIP3    H297842   4.131   6.852   3.794
15792TIP3   OH297843   4.932   6.018   4.865
15792TIP3    H197844   5.000   6.041   4.929
15792TIP3    H297845   4.894   5.937   4.898
15793TIP3   OH297846   4.977   5.949   4.003
15793TIP3    H197847   4.982   5.991   3.918
15793TIP3    H297848   5.022   6.009   4.062
15794TIP3   OH297849   4.748   7.178   3.832
15794TIP3    H197850   4.661   7.219   3.831
15794TIP3    H297851   4.781   7.193   3.921
15795TIP3   OH297852   4.651   6.187   4.028
15795TIP3    H197853   4.726   6.246   4.037
15795TIP3    H297854   4.644   6.143   4.112
15796TIP3   OH297855   4.766   6.242   4.904
15796TIP3    H197856   4.742   6.233   4.996
15796TIP3    H297857   4.815   6.163   4.884
15797TIP3   OH297858   4.733   5.845   4.078
15797TIP3    H197859   4.702   5.912   4.140
15797TIP3    H297860   4.822   5.871   4.056
15798TIP3   OH297861   4.498   7.301   3.834
15798TIP3    H197862   4.499   7.386   3.788
15798TIP3    H297863   4.468   7.323   3.923
15799TIP3   OH297864   4.363   6.008   3.752
15799TIP3    H197865   4.354   6.086   3.806
15799TIP3    H297866   4.450   5.975   3.772
15800TIP3   OH297867   5.378   6.040   5.024
15800TIP3    H197868   5.290   6.072   5.043
15800TIP3    H297869   5.367   5.980   4.950
15801TIP3   OH297870   5.216   6.439   4.409
15801TIP3    H197871   5.133   6.397   4.387
15801TIP3    H297872   5.258   6.377   4.469
15802TIP3   OH297873   4.171   6.980   3.656
15802TIP3    H197874   4.256   7.006   3.691
15802TIP3    H297875   4.186   6.970   3.562
15803TIP3   OH297876   5.337   7.404   4.568
15803TIP3    H197877   5.329   7.475   4.506
15803TIP3    H297878   5.430   7.399   4.589
15804TIP3   OH297879   4.078   5.774   4.455
15804TIP3    H197880   4.066   5.762   4.360
15804TIP3    H297881   4.048   5.692   4.493
15805TIP3   OH297882   3.948   7.193   4.075
15805TIP3    H197883   3.901   7.222   4.153
15805TIP3    H297884   3.933   7.262   4.011
15806TIP3   OH297885   5.253   7.206   3.602
15806TIP3    H197886   5.216   7.120   3.622
15806TIP3    H297887   5.348   7.193   3.609
15807TIP3   OH297888   5.122   6.799   5.049
15807TIP3    H197889   5.198   6.854   5.030
15807TIP3    H297890   5.049   6.861   5.055
15808TIP3   OH297891   4.460   6.644   3.771
15808TIP3    H197892   4.394   6.619   3.835
15808TIP3    H297893   4.475   6.564   3.720
15809TIP3   OH297894   4.379   6.437   5.023
15809TIP3    H197895   4.297   6.485   5.007
15809TIP3    H297896   4.440   6.472   4.958
15810TIP3   OH297897   4.597   6.467   3.554
15810TIP3    H197898   4.607   6.459   3.459
15810TIP3    H297899   4.686   6.457   3.588
15811TIP3   OH297900   4.365   6.162   5.079
15811TIP3    H197901   4.406   6.118   5.004
15811TIP3    H297902   4.365   6.254   5.055
15812TIP3   OH297903   4.462   6.028   4.848
15812TIP3    H197904   4.507   6.080   4.781
15812TIP3    H297905   4.373   6.018   4.814
15813TIP3   OH297906   4.570   6.542   4.857
15813TIP3    H197907   4.666   6.546   4.849
15813TIP3    H297908   4.540   6.622   4.813
15814TIP3   OH297909   4.544   5.763   4.904
15814TIP3    H197910   4.514   5.853   4.895
15814TIP3    H297911   4.466   5.710   4.888
15815TIP3   OH297912   4.556   7.521   3.653
15815TIP3    H197913   4.647   7.504   3.677
15815TIP3    H297914   4.561   7.571   3.572
15816TIP3   OH297915   3.893   7.025   3.657
15816TIP3    H197916   3.989   7.029   3.662
15816TIP3    H297917   3.876   6.949   3.601
15817TIP3   OH297918   3.790   7.518   4.181
15817TIP3    H197919   3.725   7.492   4.116
15817TIP3    H297920   3.803   7.440   4.235
15818TIP3   OH297921   3.861   7.295   4.329
15818TIP3    H197922   3.821   7.221   4.374
15818TIP3    H297923   3.913   7.339   4.396
15819TIP3   OH297924   5.598   7.396   4.657
15819TIP3    H197925   5.587   7.371   4.749
15819TIP3    H297926   5.643   7.480   4.660
15820TIP3   OH297927   5.564   7.341   4.924
15820TIP3    H197928   5.495   7.277   4.906
15820TIP3    H297929   5.628   7.293   4.977
15821TIP3   OH297930   5.562   6.768   3.922
15821TIP3    H197931   5.627   6.837   3.932
15821TIP3    H297932   5.577   6.710   3.996
15822TIP3   OH297933   5.617   6.579   4.121
15822TIP3    H197934   5.533   6.546   4.154
15822TIP3    H297935   5.670   6.594   4.199
15823TIP3   OH297936   5.587   6.889   4.648
15823TIP3    H197937   5.638   6.823   4.601
15823TIP3    H297938   5.616   6.972   4.611
15824TIP3   OH297939   5.394   7.135   4.833
15824TIP3    H197940   5.328   7.189   4.877
15824TIP3    H297941   5.360   7.123   4.745
15825TIP3   OH297942   5.586   6.573   3.730
15825TIP3    H197943   5.538   6.603   3.653
15825TIP3    H297944   5.571   6.641   3.796
15826TIP3   OH297945   5.368   6.462   4.178
15826TIP3    H197946   5.363   6.373   4.144
15826TIP3    H297947   5.323   6.458   4.263
15827TIP3   OH297948   3.850   6.655   4.578
15827TIP3    H197949   3.868   6.641   4.486
15827TIP3    H297950   3.927   6.621   4.623
15828TIP3   OH297951   5.482   6.634   5.243
15828TIP3    H197952   5.510   6.547   5.212
15828TIP3    H297953   5.538   6.695   5.196
15829TIP3   OH297954   5.272   6.115   3.626
15829TIP3    H197955   5.350   6.059   3.625
15829TIP3    H297956   5.208   6.064   3.677
15830TIP3   OH297957   5.350   6.224   3.995
15830TIP3    H197958   5.373   6.131   4.004
15830TIP3    H297959   5.415   6.260   3.936
15831TIP3   OH297960   5.366   6.253   4.561
15831TIP3    H197961   5.459   6.262   4.539
15831TIP3    H297962   5.362   6.273   4.655
15832TIP3   OH297963   5.398   6.338   4.826
15832TIP3    H197964   5.314   6.359   4.868
15832TIP3    H297965   5.442   6.422   4.817
15833TIP3   OH297966   5.401   5.954   4.026
15833TIP3    H197967   5.425   5.917   4.111
15833TIP3    H297968   5.334   5.896   3.991
15834TIP3   OH297969   3.958   6.024   4.482
15834TIP3    H197970   3.993   5.936   4.490
15834TIP3    H297971   4.031   6.081   4.505
15835TIP3   OH297972   3.765   6.299   4.556
15835TIP3    H197973   3.840   6.307   4.498
15835TIP3    H297974   3.777   6.368   4.621
15836TIP3   OH297975   5.502   5.950   3.645
15836TIP3    H197976   5.532   5.918   3.560
15836TIP3    H297977   5.579   5.992   3.683
15837TIP3   OH297978   3.780   5.892   3.936
15837TIP3    H197979   3.694   5.912   3.975
15837TIP3    H297980   3.807   5.974   3.895
15838TIP3   OH297981   5.273   7.458   4.193
15838TIP3    H197982   5.350   7.461   4.136
15838TIP3    H297983   5.296   7.516   4.266
15839TIP3   OH297984   3.794   5.759   4.760
15839TIP3    H197985   3.739   5.752   4.837
15839TIP3    H297986   3.766   5.839   4.716
15840TIP3   OH297987   4.351   7.249   4.861
15840TIP3    H197988   4.319   7.336   4.835
15840TIP3    H297989   4.446   7.255   4.849
15841TIP3   OH297990   4.729   7.371   5.220
15841TIP3    H197991   4.748   7.330   5.305
15841TIP3    H297992   4.813   7.410   5.194
15842TIP3   OH297993   4.954   7.483   5.107
15842TIP3    H197994   4.980   7.431   5.032
15842TIP3    H297995   5.019   7.462   5.174
15843TIP3   OH297996   5.508   5.726   4.987
15843TIP3    H197997   5.415   5.732   4.966
15843TIP3    H297998   5.528   5.633   4.981
15844TIP3   OH297999   4.044   7.563   4.852
15844TIP3    H198000   3.963   7.588   4.808
15844TIP3    H298001   4.033   7.595   4.942
15845TIP3   OH298002   4.306   7.512   4.794
15845TIP3    H198003   4.215   7.526   4.822
15845TIP3    H298004   4.314   7.561   4.713
15846TIP3   OH298005   4.735   7.512   4.708
15846TIP3    H198006   4.699   7.532   4.622
15846TIP3    H298007   4.681   7.561   4.769
15847TIP3   OH298008   4.966   7.409   4.821
15847TIP3    H198009   4.890   7.451   4.781
15847TIP3    H298010   5.040   7.465   4.797
15848TIP3   OH298011   5.208   7.535   4.778
15848TIP3    H198012   5.248   7.621   4.775
15848TIP3    H298013   5.251   7.485   4.709
15849TIP3   OH298014   4.020   7.392   4.540
15849TIP3    H198015   3.996   7.355   4.626
15849TIP3    H298016   4.100   7.346   4.516
15850TIP3   OH298017   4.241   7.264   4.436
15850TIP3    H198018   4.226   7.171   4.454
15850TIP3    H298019   4.323   7.285   4.481
15851TIP3   OH298020   4.495   7.295   4.552
15851TIP3    H198021   4.509   7.205   4.522
15851TIP3    H298022   4.528   7.295   4.642
15852TIP3   OH298023   4.796   5.880   4.440
15852TIP3    H198024   4.735   5.811   4.467
15852TIP3    H298025   4.870   5.834   4.402
15853TIP3   OH298026   5.304   5.735   4.424
15853TIP3    H198027   5.366   5.792   4.379
15853TIP3    H298028   5.220   5.780   4.416
15854TIP3   OH298029   5.497   5.835   4.255
15854TIP3    H198030   5.558   5.764   4.236
15854TIP3    H298031   5.552   5.912   4.268
15855TIP3   OH298032   4.040   5.730   4.182
15855TIP3    H198033   3.948   5.707   4.171
15855TIP3    H298034   4.087   5.648   4.173
15856TIP3   OH298035   3.917   5.730   3.764
15856TIP3    H198036   3.983   5.794   3.737
15856TIP3    H298037   3.864   5.777   3.828
15857TIP3   OH298038   4.534   5.689   4.213
15857TIP3    H198039   4.603   5.741   4.173
15857TIP3    H298040   4.550   5.694   4.307
15858TIP3   OH298041   5.018   5.746   4.345
15858TIP3    H198042   5.051   5.725   4.258
15858TIP3    H298043   5.006   5.661   4.387
15859TIP3   OH298044   5.197   5.787   3.946
15859TIP3    H198045   5.118   5.840   3.959
15859TIP3    H298046   5.168   5.697   3.959
15860TIP3   OH298047   3.918   7.390   3.881
15860TIP3    H198048   3.845   7.378   3.820
15860TIP3    H298049   3.912   7.482   3.908
15861TIP3   OH298050   4.125   5.887   3.682
15861TIP3    H198051   4.153   5.822   3.617
15861TIP3    H298052   4.207   5.928   3.711
15862TIP3   OH298053   4.628   5.978   3.847
15862TIP3    H198054   4.651   5.908   3.909
15862TIP3    H298055   4.639   6.059   3.897
15863TIP3   OH298056   4.815   7.441   3.696
15863TIP3    H198057   4.909   7.450   3.679
15863TIP3    H298058   4.796   7.350   3.673
15864TIP3   OH298059   5.482   7.453   4.006
15864TIP3    H198060   5.464   7.362   3.981
15864TIP3    H298061   5.465   7.503   3.927
15865TIP3   OH298062   4.036   5.845   5.086
15865TIP3    H198063   3.983   5.807   5.156
15865TIP3    H298064   4.111   5.883   5.131
15866TIP3   OH298065   4.103   7.502   3.625
15866TIP3    H198066   4.057   7.459   3.697
15866TIP3    H298067   4.161   7.435   3.590
15867TIP3   OH298068   6.855   6.715   4.175
15867TIP3    H198069   6.841   6.807   4.154
15867TIP3    H298070   6.790   6.669   4.122
15868TIP3   OH298071   6.747   6.628   4.610
15868TIP3    H198072   6.777   6.567   4.678
15868TIP3    H298073   6.701   6.574   4.547
15869TIP3   OH298074   5.942   6.531   4.689
15869TIP3    H198075   5.952   6.462   4.754
15869TIP3    H298076   6.032   6.555   4.666
15870TIP3   OH298077   7.123   6.915   4.391
15870TIP3    H198078   7.094   6.836   4.437
15870TIP3    H298079   7.143   6.978   4.460
15871TIP3   OH298080   6.103   7.005   4.468
15871TIP3    H198081   6.064   6.919   4.454
15871TIP3    H298082   6.193   6.987   4.494
15872TIP3   OH298083   5.741   6.351   4.008
15872TIP3    H198084   5.708   6.432   4.048
15872TIP3    H298085   5.672   6.325   3.947
15873TIP3   OH298086   5.802   6.598   4.333
15873TIP3    H198087   5.831   6.509   4.353
15873TIP3    H298088   5.880   6.652   4.346
15874TIP3   OH298089   6.854   7.402   4.423
15874TIP3    H198090   6.895   7.343   4.359
15874TIP3    H298091   6.808   7.343   4.483
15875TIP3   OH298092   6.592   6.866   4.571
15875TIP3    H198093   6.634   6.780   4.565
15875TIP3    H298094   6.664   6.928   4.581
15876TIP3   OH298095   7.455   6.003   4.657
15876TIP3    H198096   7.473   6.062   4.730
15876TIP3    H298097   7.523   6.023   4.593
15877TIP3   OH298098   6.893   6.269   4.585
15877TIP3    H198099   6.922   6.179   4.601
15877TIP3    H298100   6.878   6.273   4.491
15878TIP3   OH298101   6.217   6.090   4.320
15878TIP3    H198102   6.228   6.172   4.273
15878TIP3    H298103   6.163   6.036   4.262
15879TIP3   OH298104   7.015   6.132   4.140
15879TIP3    H198105   7.064   6.104   4.217
15879TIP3    H298106   7.082   6.167   4.080
15880TIP3   OH298107   5.876   6.338   4.398
15880TIP3    H198108   5.936   6.291   4.456
15880TIP3    H298109   5.896   6.304   4.311
15881TIP3   OH298110   6.346   6.486   4.374
15881TIP3    H198111   6.435   6.461   4.397
15881TIP3    H298112   6.316   6.417   4.315
15882TIP3   OH298113   7.487   6.141   4.899
15882TIP3    H198114   7.441   6.225   4.890
15882TIP3    H298115   7.423   6.083   4.940
15883TIP3   OH298116   6.108   6.002   4.751
15883TIP3    H198117   6.080   6.058   4.679
15883TIP3    H298118   6.038   6.008   4.816
15884TIP3   OH298119   6.827   6.964   4.054
15884TIP3    H198120   6.815   6.957   3.959
15884TIP3    H298121   6.782   7.045   4.077
15885TIP3   OH298122   6.370   6.769   4.717
15885TIP3    H198123   6.316   6.837   4.759
15885TIP3    H298124   6.434   6.818   4.666
15886TIP3   OH298125   7.165   6.098   4.359
15886TIP3    H198126   7.178   6.004   4.371
15886TIP3    H298127   7.198   6.137   4.440
15887TIP3   OH298128   6.058   6.168   4.531
15887TIP3    H198129   6.112   6.226   4.584
15887TIP3    H298130   6.118   6.133   4.464
15888TIP3   OH298131   6.223   6.971   4.847
15888TIP3    H198132   6.228   7.065   4.834
15888TIP3    H298133   6.133   6.954   4.872
15889TIP3   OH298134   5.770   6.958   3.931
15889TIP3    H198135   5.760   7.005   3.848
15889TIP3    H298136   5.791   7.027   3.994
15890TIP3   OH298137   7.150   7.118   4.592
15890TIP3    H198138   7.057   7.110   4.610
15890TIP3    H298139   7.161   7.210   4.567
15891TIP3   OH298140   7.196   5.913   4.739
15891TIP3    H198141   7.123   5.943   4.686
15891TIP3    H298142   7.273   5.929   4.684
15892TIP3   OH298143   6.443   5.684   4.488
15892TIP3    H198144   6.425   5.591   4.501
15892TIP3    H298145   6.366   5.728   4.524
15893TIP3   OH298146   6.975   7.249   4.229
15893TIP3    H198147   7.022   7.170   4.203
15893TIP3    H298148   7.034   7.321   4.202
15894TIP3   OH298149   7.093   7.017   4.136
15894TIP3    H198150   7.008   6.980   4.108
15894TIP3    H298151   7.112   6.972   4.218
15895TIP3   OH298152   7.272   6.899   4.961
15895TIP3    H198153   7.276   6.851   4.879
15895TIP3    H298154   7.273   6.991   4.935
15896TIP3   OH298155   6.717   6.614   3.951
15896TIP3    H198156   6.650   6.678   3.926
15896TIP3    H298157   6.782   6.619   3.881
15897TIP3   OH298158   6.756   6.439   3.611
15897TIP3    H198159   6.806   6.483   3.680
15897TIP3    H298160   6.812   6.366   3.584
15898TIP3   OH298161   7.437   6.582   4.794
15898TIP3    H198162   7.361   6.638   4.776
15898TIP3    H298163   7.492   6.592   4.717
15899TIP3   OH298164   7.075   6.629   4.036
15899TIP3    H198165   7.009   6.658   4.099
15899TIP3    H298166   7.137   6.577   4.088
15900TIP3   OH298167   7.045   6.420   4.956
15900TIP3    H198168   7.017   6.467   5.035
15900TIP3    H298169   6.973   6.433   4.894
15901TIP3   OH298170   6.236   6.684   4.209
15901TIP3    H198171   6.208   6.645   4.127
15901TIP3    H298172   6.281   6.614   4.256
15902TIP3   OH298173   6.385   7.028   4.474
15902TIP3    H198174   6.381   7.036   4.379
15902TIP3    H298175   6.457   6.967   4.490
15903TIP3   OH298176   6.204   6.587   4.591
15903TIP3    H198177   6.257   6.554   4.518
15903TIP3    H298178   6.261   6.649   4.636
15904TIP3   OH298179   6.894   7.091   4.680
15904TIP3    H198180   6.855   7.169   4.720
15904TIP3    H298181   6.864   7.019   4.735
15905TIP3   OH298182   6.404   7.007   5.060
15905TIP3    H198183   6.340   7.061   5.108
15905TIP3    H298184   6.354   6.973   4.985
15906TIP3   OH298185   6.953   6.588   3.795
15906TIP3    H198186   6.990   6.598   3.882
15906TIP3    H298187   7.000   6.651   3.741
15907TIP3   OH298188   6.057   6.615   4.994
15907TIP3    H198189   6.032   6.636   5.084
15907TIP3    H298190   5.974   6.611   4.946
15908TIP3   OH298191   6.737   7.230   4.092
15908TIP3    H198192   6.816   7.235   4.145
15908TIP3    H298193   6.715   7.322   4.075
15909TIP3   OH298194   6.194   7.183   5.132
15909TIP3    H198195   6.197   7.212   5.041
15909TIP3    H298196   6.153   7.256   5.179
15910TIP3   OH298197   7.284   5.716   3.761
15910TIP3    H198198   7.204   5.741   3.809
15910TIP3    H298199   7.325   5.800   3.738
15911TIP3   OH298200   6.139   6.595   3.960
15911TIP3    H198201   6.084   6.665   3.926
15911TIP3    H298202   6.083   6.517   3.957
15912TIP3   OH298203   7.416   7.164   3.655
15912TIP3    H198204   7.443   7.255   3.655
15912TIP3    H298205   7.496   7.114   3.642
15913TIP3   OH298206   5.736   6.851   4.884
15913TIP3    H198207   5.680   6.862   4.807
15913TIP3    H298208   5.753   6.757   4.888
15914TIP3   OH298209   5.694   7.144   4.579
15914TIP3    H198210   5.770   7.153   4.636
15914TIP3    H298211   5.641   7.222   4.598
15915TIP3   OH298212   7.568   7.154   5.068
15915TIP3    H198213   7.583   7.061   5.053
15915TIP3    H298214   7.528   7.158   5.155
15916TIP3   OH298215   6.602   7.197   5.021
15916TIP3    H198216   6.590   7.262   5.091
15916TIP3    H298217   6.533   7.132   5.036
15917TIP3   OH298218   6.712   7.487   3.992
15917TIP3    H198219   6.703   7.495   3.897
15917TIP3    H298220   6.681   7.571   4.026
15918TIP3   OH298221   6.042   7.352   4.180
15918TIP3    H198222   6.058   7.326   4.271
15918TIP3    H298223   5.980   7.287   4.147
15919TIP3   OH298224   6.979   7.389   3.626
15919TIP3    H198225   7.038   7.317   3.603
15919TIP3    H298226   6.989   7.399   3.721
15920TIP3   OH298227   6.974   7.398   3.909
15920TIP3    H198228   6.889   7.428   3.943
15920TIP3    H298229   7.037   7.423   3.977
15921TIP3   OH298230   5.958   7.007   4.936
15921TIP3    H198231   5.941   7.026   5.028
15921TIP3    H298232   5.884   6.951   4.909
15922TIP3   OH298233   6.204   5.793   4.589
15922TIP3    H198234   6.125   5.790   4.534
15922TIP3    H298235   6.188   5.868   4.647
15923TIP3   OH298236   6.693   5.788   4.937
15923TIP3    H198237   6.731   5.737   5.008
15923TIP3    H298238   6.599   5.788   4.956
15924TIP3   OH298239   7.004   6.148   5.031
15924TIP3    H198240   6.951   6.163   5.109
15924TIP3    H298241   7.020   6.236   4.995
15925TIP3   OH298242   6.656   5.967   3.620
15925TIP3    H198243   6.600   5.983   3.695
15925TIP3    H298244   6.690   5.878   3.633
15926TIP3   OH298245   6.195   6.333   4.700
15926TIP3    H198246   6.135   6.328   4.775
15926TIP3    H298247   6.195   6.425   4.675
15927TIP3   OH298248   6.217   6.326   4.179
15927TIP3    H198249   6.121   6.317   4.175
15927TIP3    H298250   6.246   6.304   4.090
15928TIP3   OH298251   6.759   6.361   4.056
15928TIP3    H198252   6.737   6.449   4.026
15928TIP3    H298253   6.829   6.333   3.998
15929TIP3   OH298254   6.866   6.299   4.311
15929TIP3    H198255   6.816   6.338   4.240
15929TIP3    H298256   6.913   6.226   4.269
15930TIP3   OH298257   5.984   6.324   4.878
15930TIP3    H198258   5.966   6.360   4.965
15930TIP3    H298259   5.950   6.234   4.882
15931TIP3   OH298260   5.681   6.032   4.260
15931TIP3    H198261   5.729   6.039   4.342
15931TIP3    H298262   5.748   6.014   4.194
15932TIP3   OH298263   5.719   6.088   3.755
15932TIP3    H198264   5.797   6.098   3.700
15932TIP3    H298265   5.688   6.177   3.769
15933TIP3   OH298266   6.821   6.433   4.790
15933TIP3    H198267   6.849   6.376   4.719
15933TIP3    H298268   6.763   6.379   4.844
15934TIP3   OH298269   6.499   6.088   4.278
15934TIP3    H198270   6.412   6.077   4.315
15934TIP3    H298271   6.551   6.018   4.317
15935TIP3   OH298272   5.954   6.246   4.151
15935TIP3    H198273   5.881   6.271   4.095
15935TIP3    H298274   5.971   6.154   4.128
15936TIP3   OH298275   6.280   6.239   3.920
15936TIP3    H198276   6.373   6.235   3.943
15936TIP3    H298277   6.277   6.287   3.838
15937TIP3   OH298278   6.956   5.999   4.619
15937TIP3    H198279   6.898   5.995   4.695
15937TIP3    H298280   6.928   5.926   4.564
15938TIP3   OH298281   6.263   6.349   3.668
15938TIP3    H198282   6.209   6.331   3.591
15938TIP3    H298283   6.346   6.380   3.632
15939TIP3   OH298284   6.602   6.419   4.480
15939TIP3    H198285   6.661   6.356   4.438
15939TIP3    H298286   6.561   6.369   4.551
15940TIP3   OH298287   6.044   5.978   4.124
15940TIP3    H198288   6.001   5.896   4.147
15940TIP3    H298289   6.093   5.958   4.044
15941TIP3   OH298290   6.465   6.281   4.673
15941TIP3    H198291   6.371   6.299   4.680
15941TIP3    H298292   6.476   6.198   4.718
15942TIP3   OH298293   6.541   6.821   3.867
15942TIP3    H198294   6.478   6.760   3.828
15942TIP3    H298295   6.502   6.846   3.950
15943TIP3   OH298296   7.243   6.766   4.720
15943TIP3    H198297   7.302   6.819   4.667
15943TIP3    H298298   7.174   6.739   4.659
15944TIP3   OH298299   6.911   6.069   3.746
15944TIP3    H198300   6.839   6.068   3.683
15944TIP3    H298301   6.919   6.161   3.772
15945TIP3   OH298302   6.645   6.832   5.040
15945TIP3    H198303   6.610   6.749   5.011
15945TIP3    H298304   6.568   6.888   5.052
15946TIP3   OH298305   6.966   6.315   3.865
15946TIP3    H198306   7.053   6.293   3.899
15946TIP3    H298307   6.975   6.404   3.831
15947TIP3   OH298308   6.044   6.731   4.405
15947TIP3    H198309   6.106   6.725   4.332
15947TIP3    H298310   6.085   6.679   4.475
15948TIP3   OH298311   6.765   6.955   3.770
15948TIP3    H198312   6.735   7.046   3.772
15948TIP3    H298313   6.689   6.903   3.794
15949TIP3   OH298314   5.768   6.582   4.950
15949TIP3    H198315   5.788   6.510   5.009
15949TIP3    H298316   5.687   6.556   4.907
15950TIP3   OH298317   6.859   7.099   5.039
15950TIP3    H198318   6.773   7.140   5.025
15950TIP3    H298319   6.922   7.169   5.024
15951TIP3   OH298320   7.411   6.328   3.763
15951TIP3    H198321   7.398   6.306   3.670
15951TIP3    H298322   7.444   6.418   3.761
15952TIP3   OH298323   7.498   6.862   5.134
15952TIP3    H198324   7.408   6.882   5.110
15952TIP3    H298325   7.540   6.836   5.052
15953TIP3   OH298326   7.319   7.200   3.921
15953TIP3    H198327   7.257   7.137   3.957
15953TIP3    H298328   7.336   7.169   3.832
15954TIP3   OH298329   7.046   6.681   4.536
15954TIP3    H198330   6.951   6.673   4.544
15954TIP3    H298331   7.074   6.602   4.490
15955TIP3   OH298332   6.306   7.107   4.217
15955TIP3    H198333   6.321   7.189   4.171
15955TIP3    H298334   6.215   7.110   4.244
15956TIP3   OH298335   5.830   6.682   3.641
15956TIP3    H198336   5.883   6.705   3.717
15956TIP3    H298337   5.760   6.626   3.675
15957TIP3   OH298338   6.401   6.879   4.093
15957TIP3    H198339   6.374   6.962   4.133
15957TIP3    H298340   6.346   6.813   4.135
15958TIP3   OH298341   6.504   7.293   4.782
15958TIP3    H198342   6.551   7.374   4.762
15958TIP3    H298343   6.549   7.257   4.859
15959TIP3   OH298344   6.300   7.358   4.088
15959TIP3    H198345   6.207   7.366   4.110
15959TIP3    H298346   6.341   7.435   4.127
15960TIP3   OH298347   6.811   6.842   4.796
15960TIP3    H198348   6.740   6.833   4.859
15960TIP3    H298349   6.796   6.772   4.733
15961TIP3   OH298350   7.030   6.948   3.660
15961TIP3    H198351   7.083   6.900   3.723
15961TIP3    H298352   6.943   6.954   3.701
15962TIP3   OH298353   7.016   7.318   4.951
15962TIP3    H198354   6.953   7.326   4.879
15962TIP3    H298355   7.079   7.389   4.935
15963TIP3   OH298356   7.488   7.431   3.697
15963TIP3    H198357   7.548   7.498   3.730
15963TIP3    H298358   7.402   7.473   3.699
15964TIP3   OH298359   5.873   6.067   4.904
15964TIP3    H198360   5.780   6.091   4.899
15964TIP3    H298361   5.874   5.990   4.962
15965TIP3   OH298362   7.182   6.788   3.836
15965TIP3    H198363   7.144   6.747   3.914
15965TIP3    H298364   7.273   6.805   3.860
15966TIP3   OH298365   5.886   7.243   4.768
15966TIP3    H198366   5.914   7.170   4.824
15966TIP3    H298367   5.889   7.319   4.826
15967TIP3   OH298368   6.325   7.043   3.729
15967TIP3    H198369   6.378   6.981   3.780
15967TIP3    H298370   6.345   7.129   3.767
15968TIP3   OH298371   5.977   6.791   3.848
15968TIP3    H198372   5.910   6.839   3.896
15968TIP3    H298373   6.016   6.856   3.789
15969TIP3   OH298374   6.814   6.022   4.858
15969TIP3    H198375   6.884   6.039   4.921
15969TIP3    H298376   6.775   5.940   4.887
15970TIP3   OH298377   6.864   5.956   3.991
15970TIP3    H198378   6.877   5.995   3.905
15970TIP3    H298379   6.907   6.016   4.052
15971TIP3   OH298380   6.654   7.200   3.829
15971TIP3    H198381   6.561   7.223   3.832
15971TIP3    H298382   6.684   7.208   3.920
15972TIP3   OH298383   6.534   6.200   4.029
15972TIP3    H198384   6.611   6.257   4.038
15972TIP3    H298385   6.520   6.163   4.116
15973TIP3   OH298386   6.674   6.253   4.931
15973TIP3    H198387   6.598   6.221   4.980
15973TIP3    H298388   6.715   6.173   4.897
15974TIP3   OH298389   6.637   5.838   4.086
15974TIP3    H198390   6.640   5.853   4.180
15974TIP3    H298391   6.716   5.878   4.052
15975TIP3   OH298392   6.393   7.291   3.837
15975TIP3    H198393   6.395   7.374   3.791
15975TIP3    H298394   6.359   7.313   3.924
15976TIP3   OH298395   6.254   6.007   3.749
15976TIP3    H198396   6.241   6.085   3.802
15976TIP3    H298397   6.341   5.975   3.776
15977TIP3   OH298398   7.255   6.027   4.987
15977TIP3    H198399   7.170   6.057   5.017
15977TIP3    H298400   7.235   5.968   4.914
15978TIP3   OH298401   7.103   6.433   4.413
15978TIP3    H198402   7.021   6.389   4.391
15978TIP3    H298403   7.148   6.373   4.472
15979TIP3   OH298404   6.060   6.982   3.653
15979TIP3    H198405   6.146   7.007   3.687
15979TIP3    H298406   6.073   6.976   3.558
15980TIP3   OH298407   7.208   7.397   4.577
15980TIP3    H198408   7.196   7.461   4.508
15980TIP3    H298409   7.303   7.391   4.589
15981TIP3   OH298410   5.957   5.780   4.456
15981TIP3    H198411   5.952   5.771   4.360
15981TIP3    H298412   5.929   5.695   4.489
15982TIP3   OH298413   5.835   7.184   4.088
15982TIP3    H198414   5.785   7.215   4.164
15982TIP3    H298415   5.817   7.250   4.020
15983TIP3   OH298416   7.149   7.178   3.555
15983TIP3    H198417   7.108   7.100   3.592
15983TIP3    H298418   7.240   7.172   3.583
15984TIP3   OH298419   7.017   6.802   4.995
15984TIP3    H198420   7.106   6.836   4.983
15984TIP3    H298421   6.980   6.802   4.907
15985TIP3   OH298422   6.356   6.641   3.784
15985TIP3    H198423   6.285   6.618   3.843
15985TIP3    H298424   6.366   6.564   3.727
15986TIP3   OH298425   6.308   6.497   5.037
15986TIP3    H198426   6.221   6.532   5.015
15986TIP3    H298427   6.369   6.547   4.984
15987TIP3   OH298428   6.484   6.460   3.559
15987TIP3    H198429   6.486   6.448   3.464
15987TIP3    H298430   6.575   6.456   3.586
15988TIP3   OH298431   6.208   6.196   5.137
15988TIP3    H198432   6.256   6.113   5.142
15988TIP3    H298433   6.247   6.242   5.062
15989TIP3   OH298434   6.386   6.046   4.807
15989TIP3    H198435   6.412   5.963   4.846
15989TIP3    H298436   6.291   6.037   4.794
15990TIP3   OH298437   6.526   6.624   4.896
15990TIP3    H198438   6.557   6.541   4.861
15990TIP3    H298439   6.474   6.662   4.826
15991TIP3   OH298440   6.410   5.789   4.926
15991TIP3    H198441   6.389   5.826   5.012
15991TIP3    H298442   6.339   5.728   4.908
15992TIP3   OH298443   6.448   7.512   3.670
15992TIP3    H198444   6.542   7.500   3.685
15992TIP3    H298445   6.443   7.574   3.598
15993TIP3   OH298446   5.781   7.034   3.659
15993TIP3    H198447   5.877   7.037   3.663
15993TIP3    H298448   5.762   6.965   3.596
15994TIP3   OH298449   5.684   7.519   4.179
15994TIP3    H198450   5.620   7.496   4.112
15994TIP3    H298451   5.694   7.440   4.232
15995TIP3   OH298452   5.741   7.293   4.333
15995TIP3    H198453   5.703   7.220   4.382
15995TIP3    H298454   5.790   7.342   4.398
15996TIP3   OH298455   7.472   7.390   4.660
15996TIP3    H198456   7.459   7.369   4.752
15996TIP3    H298457   7.515   7.476   4.661
15997TIP3   OH298458   7.424   7.341   4.928
15997TIP3    H198459   7.355   7.277   4.908
15997TIP3    H298460   7.488   7.292   4.979
15998TIP3   OH298461   7.453   6.774   3.925
15998TIP3    H198462   7.517   6.843   3.939
15998TIP3    H298463   7.461   6.717   4.001
15999TIP3   OH298464   7.488   6.591   4.129
15999TIP3    H198465   7.405   6.554   4.158
15999TIP3    H298466   7.539   6.603   4.209
16000TIP3   OH298467   7.470   6.895   4.626
16000TIP3    H198468   7.527   6.831   4.584
16000TIP3    H298469   7.499   6.979   4.591
16001TIP3   OH298470   7.233   7.152   4.856
16001TIP3    H198471   7.152   7.193   4.887
16001TIP3    H298472   7.218   7.135   4.763
16002TIP3   OH298473   7.453   6.611   3.706
16002TIP3    H198474   7.359   6.609   3.690
16002TIP3    H298475   7.463   6.666   3.784
16003TIP3   OH298476   7.246   6.459   4.176
16003TIP3    H198477   7.236   6.373   4.135
16003TIP3    H298478   7.204   6.449   4.262
16004TIP3   OH298479   5.717   6.646   4.591
16004TIP3    H198480   5.728   6.634   4.496
16004TIP3    H298481   5.798   6.613   4.629
16005TIP3   OH298482   7.364   6.590   5.222
16005TIP3    H198483   7.369   6.496   5.207
16005TIP3    H298484   7.436   6.627   5.171
16006TIP3   OH298485   7.171   6.116   3.621
16006TIP3    H198486   7.248   6.060   3.625
16006TIP3    H298487   7.104   6.070   3.672
16007TIP3   OH298488   7.222   6.241   3.965
16007TIP3    H198489   7.245   6.149   3.977
16007TIP3    H298490   7.281   6.272   3.897
16008TIP3   OH298491   7.256   6.261   4.573
16008TIP3    H198492   7.349   6.279   4.567
16008TIP3    H298493   7.244   6.224   4.661
16009TIP3   OH298494   7.313   6.360   4.901
16009TIP3    H198495   7.219   6.375   4.908
16009TIP3    H298496   7.345   6.436   4.852
16010TIP3   OH298497   7.271   5.977   4.006
16010TIP3    H198498   7.321   5.941   4.079
16010TIP3    H298499   7.207   5.909   3.985
16011TIP3   OH298500   5.822   6.018   4.497
16011TIP3    H198501   5.861   5.931   4.494
16011TIP3    H298502   5.894   6.077   4.519
16012TIP3   OH298503   5.638   6.312   4.549
16012TIP3    H198504   5.709   6.308   4.485
16012TIP3    H298505   5.665   6.379   4.611
16013TIP3   OH298506   7.404   5.950   3.662
16013TIP3    H198507   7.470   5.891   3.625
16013TIP3    H298508   7.452   6.008   3.720
16014TIP3   OH298509   5.676   5.905   3.954
16014TIP3    H198510   5.584   5.917   3.980
16014TIP3    H298511   5.693   5.977   3.893
16015TIP3   OH298512   7.135   7.459   4.161
16015TIP3    H198513   7.216   7.464   4.110
16015TIP3    H298514   7.155   7.506   4.242
16016TIP3   OH298515   5.674   5.759   4.762
16016TIP3    H198516   5.621   5.756   4.842
16016TIP3    H298517   5.646   5.840   4.718
16017TIP3   OH298518   6.246   7.248   4.864
16017TIP3    H198519   6.205   7.332   4.841
16017TIP3    H298520   6.337   7.257   4.836
16018TIP3   OH298521   6.613   7.378   5.231
16018TIP3    H198522   6.636   7.332   5.312
16018TIP3    H298523   6.696   7.415   5.200
16019TIP3   OH298524   6.851   7.474   5.128
16019TIP3    H198525   6.907   7.427   5.066
16019TIP3    H298526   6.903   7.476   5.209
16020TIP3   OH298527   7.420   5.696   4.993
16020TIP3    H198528   7.340   5.695   5.046
16020TIP3    H298529   7.427   5.606   4.959
16021TIP3   OH298530   5.918   7.522   4.866
16021TIP3    H198531   5.845   7.560   4.817
16021TIP3    H298532   5.919   7.570   4.949
16022TIP3   OH298533   6.188   7.511   4.802
16022TIP3    H198534   6.095   7.517   4.826
16022TIP3    H298535   6.194   7.559   4.720
16023TIP3   OH298536   6.632   7.522   4.699
16023TIP3    H198537   6.575   7.551   4.628
16023TIP3    H298538   6.627   7.592   4.764
16024TIP3   OH298539   6.856   7.371   4.739
16024TIP3    H198540   6.775   7.421   4.728
16024TIP3    H298541   6.923   7.423   4.696
16025TIP3   OH298542   7.140   7.527   4.814
16025TIP3    H198543   7.150   7.620   4.794
16025TIP3    H298544   7.166   7.482   4.733
16026TIP3   OH298545   5.900   7.404   4.534
16026TIP3    H198546   5.881   7.361   4.618
16026TIP3    H298547   5.979   7.360   4.503
16027TIP3   OH298548   6.116   7.273   4.432
16027TIP3    H198549   6.101   7.181   4.452
16027TIP3    H298550   6.202   7.292   4.471
16028TIP3   OH298551   6.376   7.298   4.537
16028TIP3    H198552   6.383   7.207   4.509
16028TIP3    H298553   6.412   7.299   4.626
16029TIP3   OH298554   6.635   5.855   4.362
16029TIP3    H198555   6.581   5.798   4.417
16029TIP3    H298556   6.725   5.838   4.391
16030TIP3   OH298557   7.456   5.862   4.194
16030TIP3    H198558   7.493   5.774   4.192
16030TIP3    H298559   7.382   5.855   4.255
16031TIP3   OH298560   5.929   5.734   4.183
16031TIP3    H198561   5.836   5.713   4.173
16031TIP3    H298562   5.974   5.650   4.173
16032TIP3   OH298563   5.799   5.736   3.773
16032TIP3    H198564   5.867   5.797   3.745
16032TIP3    H298565   5.751   5.783   3.841
16033TIP3   OH298566   6.411   5.688   4.199
16033TIP3    H198567   6.478   5.746   4.163
16033TIP3    H298568   6.424   5.693   4.294
16034TIP3   OH298569   6.893   5.781   4.444
16034TIP3    H198570   6.984   5.789   4.414
16034TIP3    H298571   6.879   5.687   4.453
16035TIP3   OH298572   7.077   5.790   3.924
16035TIP3    H198573   7.003   5.845   3.952
16035TIP3    H298574   7.045   5.700   3.932
16036TIP3   OH298575   5.798   7.368   3.891
16036TIP3    H198576   5.726   7.353   3.831
16036TIP3    H298577   5.816   7.462   3.885
16037TIP3   OH298578   6.015   5.881   3.680
16037TIP3    H198579   6.042   5.797   3.644
16037TIP3    H298580   6.097   5.923   3.707
16038TIP3   OH298581   6.517   5.978   3.864
16038TIP3    H198582   6.541   5.912   3.929
16038TIP3    H298583   6.524   6.062   3.911
16039TIP3   OH298584   6.713   7.449   3.711
16039TIP3    H198585   6.799   7.454   3.669
16039TIP3    H298586   6.702   7.356   3.732
16040TIP3   OH298587   7.354   7.462   3.991
16040TIP3    H198588   7.347   7.370   3.966
16040TIP3    H298589   7.331   7.511   3.912
16041TIP3   OH298590   5.901   5.840   5.071
16041TIP3    H198591   5.839   5.794   5.128
16041TIP3    H298592   5.976   5.859   5.128
16042TIP3   OH298593   6.020   7.514   3.598
16042TIP3    H198594   5.933   7.505   3.559
16042TIP3    H298595   6.029   7.436   3.653
16043TIP3   OH298596   7.857   6.569   4.717
16043TIP3    H198597   7.855   6.478   4.747
16043TIP3    H298598   7.880   6.619   4.795
16044TIP3   OH298599   8.005   7.013   4.547
16044TIP3    H198600   7.965   6.940   4.501
16044TIP3    H298601   8.003   6.987   4.639
16045TIP3   OH298602   7.627   6.378   4.016
16045TIP3    H198603   7.590   6.461   4.045
16045TIP3    H298604   7.555   6.315   4.024
16046TIP3   OH298605   7.677   6.602   4.336
16046TIP3    H198606   7.710   6.514   4.350
16046TIP3    H298607   7.755   6.658   4.343
16047TIP3   OH298608   8.014   6.088   4.346
16047TIP3    H198609   8.089   6.136   4.311
16047TIP3    H298610   8.006   6.010   4.291
16048TIP3   OH298611   7.761   6.346   4.394
16048TIP3    H198612   7.813   6.300   4.459
16048TIP3    H298613   7.787   6.307   4.310
16049TIP3   OH298614   7.985   6.001   4.754
16049TIP3    H198615   7.970   6.078   4.699
16049TIP3    H298616   7.908   5.998   4.812
16050TIP3   OH298617   7.928   6.203   4.570
16050TIP3    H198618   7.993   6.273   4.579
16050TIP3    H298619   7.957   6.153   4.494
16051TIP3   OH298620   8.036   6.968   4.816
16051TIP3    H198621   8.062   7.057   4.840
16051TIP3    H298622   7.957   6.951   4.868
16052TIP3   OH298623   7.660   6.961   3.938
16052TIP3    H198624   7.646   7.007   3.855
16052TIP3    H298625   7.684   7.030   4.000
16053TIP3   OH298626   8.051   6.652   4.250
16053TIP3    H198627   8.042   6.643   4.155
16053TIP3    H298628   8.142   6.628   4.268
16054TIP3   OH298629   7.875   6.653   4.991
16054TIP3    H198630   7.933   6.595   5.041
16054TIP3    H298631   7.787   6.621   5.009
16055TIP3   OH298632   8.063   7.168   5.145
16055TIP3    H198633   8.080   7.179   5.051
16055TIP3    H298634   8.016   7.247   5.171
16056TIP3   OH298635   8.021   6.599   3.968
16056TIP3    H198636   7.961   6.664   3.931
16056TIP3    H298637   7.966   6.521   3.982
16057TIP3   OH298638   7.576   6.828   4.871
16057TIP3    H198639   7.536   6.864   4.793
16057TIP3    H298640   7.563   6.734   4.864
16058TIP3   OH298641   7.577   7.149   4.571
16058TIP3    H198642   7.653   7.159   4.628
16058TIP3    H298643   7.522   7.224   4.590
16059TIP3   OH298644   7.927   7.359   4.202
16059TIP3    H198645   7.946   7.325   4.290
16059TIP3    H298646   7.877   7.289   4.160
16060TIP3   OH298647   7.814   6.919   4.965
16060TIP3    H198648   7.848   6.833   4.987
16060TIP3    H298649   7.728   6.902   4.926
16061TIP3   OH298650   8.056   5.798   4.565
16061TIP3    H198651   7.973   5.796   4.519
16061TIP3    H298652   8.050   5.873   4.623
16062TIP3   OH298653   8.110   6.386   4.835
16062TIP3    H198654   8.023   6.349   4.850
16062TIP3    H298655   8.124   6.375   4.741
16063TIP3   OH298656   8.115   6.282   4.121
16063TIP3    H198657   8.021   6.269   4.127
16063TIP3    H298658   0.008   6.194   4.124
16064TIP3   OH298659   7.841   6.322   4.873
16064TIP3    H198660   7.820   6.344   4.963
16064TIP3    H298661   7.818   6.229   4.865
16065TIP3   OH298662   7.649   6.065   4.240
16065TIP3    H198663   7.659   6.061   4.335
16065TIP3    H298664   7.579   6.003   4.220
16066TIP3   OH298665   7.578   6.115   3.813
16066TIP3    H198666   7.666   6.152   3.808
16066TIP3    H298667   7.520   6.191   3.805
16067TIP3   OH298668   7.835   6.243   4.136
16067TIP3    H198669   7.772   6.295   4.086
16067TIP3    H298670   7.785   6.167   4.164
16068TIP3   OH298671   0.010   6.308   3.690
16068TIP3    H198672   8.107   6.327   3.609
16068TIP3    H298673   0.041   6.392   3.721
16069TIP3   OH298674   8.028   5.883   4.159
16069TIP3    H198675   7.937   5.855   4.159
16069TIP3    H298676   8.078   5.802   4.171
16070TIP3   OH298677   7.907   6.753   4.461
16070TIP3    H198678   7.962   6.722   4.389
16070TIP3    H298679   7.922   6.691   4.532
16071TIP3   OH298680   7.613   6.555   5.017
16071TIP3    H198681   7.637   6.471   5.055
16071TIP3    H298682   7.549   6.534   4.949
16072TIP3   OH298683   7.710   6.725   3.628
16072TIP3    H198684   7.760   6.726   3.710
16072TIP3    H298685   7.635   6.668   3.646
16073TIP3   OH298686   7.757   6.057   4.917
16073TIP3    H198687   7.663   6.074   4.911
16073TIP3    H298688   7.764   5.988   4.983
16074TIP3   OH298689   7.757   7.253   4.765
16074TIP3    H198690   7.760   7.191   4.839
16074TIP3    H298691   7.770   7.339   4.805
16075TIP3   OH298692   7.859   6.790   3.852
16075TIP3    H198693   7.792   6.836   3.901
16075TIP3    H298694   7.908   6.859   3.807
16076TIP3   OH298695   8.059   6.019   3.682
16076TIP3    H198696   8.083   6.111   3.692
16076TIP3    H298697   8.092   5.977   3.763
16077TIP3   OH298698   7.975   7.006   3.716
16077TIP3    H198699   7.971   7.093   3.754
16077TIP3    H298700   8.066   6.996   3.687
16078TIP3   OH298701   7.803   5.783   4.459
16078TIP3    H198702   7.801   5.769   4.365
16078TIP3    H298703   7.786   5.697   4.497
16079TIP3   OH298704   7.734   7.184   4.090
16079TIP3    H198705   7.679   7.216   4.161
16079TIP3    H298706   7.716   7.243   4.016
16080TIP3   OH298707   7.667   7.008   3.655
16080TIP3    H198708   7.759   7.032   3.646
16080TIP3    H298709   7.664   6.914   3.636
16081TIP3   OH298710   7.565   7.519   4.162
16081TIP3    H198711   7.499   7.501   4.095
16081TIP3    H298712   7.571   7.437   4.211
16082TIP3   OH298713   7.612   7.291   4.318
16082TIP3    H198714   7.576   7.219   4.369
16082TIP3    H298715   7.659   7.345   4.381
16083TIP3   OH298716   7.617   6.650   4.601
16083TIP3    H198717   7.623   6.632   4.507
16083TIP3    H298718   7.705   6.631   4.635
16084TIP3   OH298719   7.696   6.034   4.514
16084TIP3    H198720   7.729   5.944   4.505
16084TIP3    H298721   7.769   6.082   4.553
16085TIP3   OH298722   7.527   6.321   4.567
16085TIP3    H198723   7.583   6.315   4.490
16085TIP3    H298724   7.585   6.353   4.637
16086TIP3   OH298725   7.586   5.868   3.938
16086TIP3    H198726   7.541   5.866   4.023
16086TIP3    H298727   7.581   5.959   3.910
16087TIP3   OH298728   7.556   5.769   4.766
16087TIP3    H198729   7.505   5.754   4.845
16087TIP3    H298730   7.513   5.843   4.723
16088TIP3   OH298731   8.105   7.226   4.871
16088TIP3    H198732   8.062   7.298   4.825
16088TIP3    H298733   0.054   7.238   4.852
16089TIP3   OH298734   7.800   7.514   4.850
16089TIP3    H198735   7.728   7.564   4.812
16089TIP3    H298736   7.815   7.553   4.936
16090TIP3   OH298737   8.030   7.440   4.710
16090TIP3    H198738   7.946   7.468   4.747
16090TIP3    H298739   8.091   7.510   4.731
16091TIP3   OH298740   7.763   7.411   4.518
16091TIP3    H198741   7.737   7.373   4.602
16091TIP3    H298742   7.847   7.370   4.498
16092TIP3   OH298743   8.004   7.281   4.474
16092TIP3    H198744   7.997   7.189   4.500
16092TIP3    H298745   8.026   7.328   4.554
16093TIP3   OH298746   7.812   5.714   4.192
16093TIP3    H198747   7.722   5.697   4.164
16093TIP3    H298748   7.853   5.627   4.193
16094TIP3   OH298749   7.620   5.763   3.689
16094TIP3    H198750   7.701   5.805   3.661
16094TIP3    H298751   7.610   5.790   3.781
16095TIP3   OH298752   7.689   7.341   3.874
16095TIP3    H198753   7.614   7.328   3.816
16095TIP3    H298754   7.698   7.436   3.880
16096TIP3   OH298755   7.856   5.852   3.591
16096TIP3    H198756   7.894   5.765   3.605
16096TIP3    H298757   7.923   5.913   3.622
16097TIP3   OH298758   7.803   5.852   5.123
16097TIP3    H198759   7.735   5.844   5.190
16097TIP3    H298760   7.862   5.778   5.139
16098TIP3   OH298761   7.861   7.413   3.530
16098TIP3    H198762   7.805   7.488   3.511
16098TIP3    H298763   7.882   7.422   3.623
16099TIP3   OH298764   1.810   7.866   4.648
16099TIP3    H198765   1.823   7.927   4.720
16099TIP3    H298766   1.881   7.886   4.587
16100TIP3   OH298767   0.581   8.018   4.320
16100TIP3    H198768   0.606   8.094   4.268
16100TIP3    H298769   0.549   7.955   4.255
16101TIP3   OH298770   1.340   7.996   4.163
16101TIP3    H198771   1.375   7.954   4.241
16101TIP3    H298772   1.417   8.027   4.116
16102TIP3   OH298773   1.873   8.005   4.880
16102TIP3    H198774   1.894   8.097   4.866
16102TIP3    H298775   1.787   8.006   4.923
16103TIP3   OH298776   0.445   7.884   4.753
16103TIP3    H198777   0.419   7.939   4.679
16103TIP3    H298778   0.372   7.890   4.814
16104TIP3   OH298779   1.449   7.910   4.405
16104TIP3    H198780   1.393   7.906   4.482
16104TIP3    H298781   1.493   7.995   4.411
16105TIP3   OH298782   0.396   8.027   4.525
16105TIP3    H198783   0.361   8.113   4.501
16105TIP3    H298784   0.466   8.012   4.462
16106TIP3   OH298785   1.542   7.809   4.762
16106TIP3    H198786   1.471   7.850   4.713
16106TIP3    H298787   1.622   7.833   4.714
16107TIP3   OH298788   0.785   7.575   4.483
16107TIP3    H198789   0.771   7.481   4.495
16107TIP3    H298790   0.708   7.616   4.522
16108TIP3   OH298791   1.642   7.607   3.780
16108TIP3    H198792   1.558   7.632   3.818
16108TIP3    H298793   1.677   7.689   3.744
16109TIP3   OH298794   0.552   7.683   4.590
16109TIP3    H198795   0.477   7.669   4.532
16109TIP3    H298796   0.527   7.758   4.644
16110TIP3   OH298797   1.041   7.667   4.946
16110TIP3    H198798   1.099   7.617   5.002
16110TIP3    H298799   0.953   7.647   4.979
16111TIP3   OH298800   1.289   8.052   4.983
16111TIP3    H198801   1.276   8.036   5.077
16111TIP3    H298802   1.384   8.046   4.971
16112TIP3   OH298803   0.989   7.860   3.599
16112TIP3    H198804   0.934   7.867   3.677
16112TIP3    H298805   1.064   7.807   3.626
16113TIP3   OH298806   0.116   7.839   4.188
16113TIP3    H198807   0.126   7.872   4.277
16113TIP3    H298808   0.173   7.762   4.185
16114TIP3   OH298809   0.163   7.990   3.801
16114TIP3    H198810   0.237   7.940   3.765
16114TIP3    H298811   0.185   8.081   3.783
16115TIP3   OH298812   0.852   7.955   4.252
16115TIP3    H198813   0.775   7.971   4.307
16115TIP3    H298814   0.901   7.888   4.299
16116TIP3   OH298815   0.311   8.029   4.114
16116TIP3    H198816   0.234   7.974   4.126
16116TIP3    H298817   0.384   7.968   4.109
16117TIP3   OH298818   0.644   8.131   3.867
16117TIP3    H198819   0.722   8.117   3.919
16117TIP3    H298820   0.608   0.070   3.900
16118TIP3   OH298821   1.285   7.859   4.619
16118TIP3    H198822   1.217   7.892   4.678
16118TIP3    H298823   1.246   7.783   4.576
16119TIP3   OH298824   0.489   7.809   4.153
16119TIP3    H198825   0.419   7.744   4.154
16119TIP3    H298826   0.570   7.757   4.155
16120TIP3   OH298827   0.863   8.045   4.713
16120TIP3    H198828   0.847   8.119   4.771
16120TIP3    H298829   0.947   8.009   4.743
16121TIP3   OH298830   1.231   7.977   3.729
16121TIP3    H198831   1.155   8.007   3.678
16121TIP3    H298832   1.266   8.057   3.768
16122TIP3   OH298833   0.235   7.902   4.931
16122TIP3    H198834   0.164   7.962   4.955
16122TIP3    H298835   0.225   7.829   4.992
16123TIP3   OH298836   1.090   7.922   4.839
16123TIP3    H198837   1.166   7.962   4.883
16123TIP3    H298838   1.086   7.833   4.874
16124TIP3   OH298839   1.203   7.847   3.974
16124TIP3    H198840   1.210   7.895   3.892
16124TIP3    H298841   1.240   7.906   4.039
16125TIP3   OH298842   0.878   8.090   4.015
16125TIP3    H198843   0.926   0.025   4.039
16125TIP3    H298844   0.870   8.040   4.096
16126TIP3   OH298845   0.954   8.039   5.081
16126TIP3    H198846   0.973   7.993   5.163
16126TIP3    H298847   0.994   7.984   5.014
16127TIP3   OH298848   0.978   7.722   4.070
16127TIP3    H198849   0.985   7.733   4.165
16127TIP3    H298850   1.056   7.765   4.035
16128TIP3   OH298851   0.618   7.910   3.702
16128TIP3    H198852   0.611   7.993   3.748
16128TIP3    H298853   0.693   7.866   3.742
16129TIP3   OH298854   1.603   7.993   4.991
16129TIP3    H198855   1.640   7.945   5.065
16129TIP3    H298856   1.584   7.925   4.926
16130TIP3   OH298857   0.322   7.643   4.451
16130TIP3    H198858   0.300   7.640   4.357
16130TIP3    H298859   0.270   7.572   4.489
16131TIP3   OH298860   0.680   8.059   5.059
16131TIP3    H198861   0.666   7.979   5.009
16131TIP3    H298862   0.769   8.051   5.094
16132TIP3   OH298863   0.696   7.867   4.857
16132TIP3    H198864   0.749   7.916   4.794
16132TIP3    H298865   0.607   7.871   4.822
16133TIP3   OH298866   0.759   7.628   4.978
16133TIP3    H198867   0.740   7.715   4.943
16133TIP3    H298868   0.695   7.570   4.935
16134TIP3   OH298869   1.502   7.848   3.550
16134TIP3    H198870   1.592   7.854   3.583
16134TIP3    H298871   1.448   7.877   3.623
16135TIP3   OH298872   1.545   8.084   4.002
16135TIP3    H198873   1.595   8.003   4.005
16135TIP3    H298874   1.596   8.142   3.946
16136TIP3   OH298875   1.599   8.119   4.672
16136TIP3    H198876   1.588   8.125   4.577
16136TIP3    H298877   1.588   0.064   4.704
16137TIP3   OH298878   1.655   7.830   4.015
16137TIP3    H198879   1.679   7.791   4.099
16137TIP3    H298880   1.580   7.777   3.985
16138TIP3   OH298881   0.139   7.931   4.443
16138TIP3    H198882   0.094   7.860   4.490
16138TIP3    H298883   0.222   7.941   4.489
16139TIP3   OH298884   1.764   7.826   3.653
16139TIP3    H198885   1.814   7.759   3.607
16139TIP3    H298886   1.826   7.896   3.671
16140TIP3   OH298887   0.034   7.781   3.914
16140TIP3    H198888   0.027   7.786   4.009
16140TIP3    H298889   0.083   7.859   3.889
16141TIP3   OH298890   0.023   7.652   4.845
16141TIP3    H198891   0.055   7.687   4.928
16141TIP3    H298892   8.103   7.717   4.815
16142TIP3   OH298893   1.747   7.595   4.988
16142TIP3    H198894   1.675   7.596   5.051
16142TIP3    H298895   1.757   7.503   4.963
16143TIP3   OH298896   0.979   7.725   4.348
16143TIP3    H198897   0.923   7.671   4.404
16143TIP3    H298898   1.069   7.701   4.373
16144TIP3   OH298899   1.531   7.646   4.377
16144TIP3    H198900   1.617   7.662   4.339
16144TIP3    H298901   1.498   7.733   4.400
16145TIP3   OH298902   1.758   7.721   4.246
16145TIP3    H198903   1.823   7.654   4.226
16145TIP3    H298904   1.809   7.800   4.264
16146TIP3   OH298905   0.279   7.612   4.174
16146TIP3    H198906   0.193   7.583   4.146
16146TIP3    H298907   0.332   7.532   4.177
16147TIP3   OH298908   0.216   7.603   3.803
16147TIP3    H198909   0.270   7.673   3.766
16147TIP3    H298910   0.142   7.648   3.844
16148TIP3   OH298911   0.719   7.636   4.189
16148TIP3    H198912   0.797   7.672   4.146
16148TIP3    H298913   0.745   7.626   4.280
16149TIP3   OH298914   1.229   7.631   4.425
16149TIP3    H198915   1.320   7.633   4.394
16149TIP3    H298916   1.210   7.538   4.436
16150TIP3   OH298917   1.427   7.688   3.930
16150TIP3    H198918   1.350   7.744   3.944
16150TIP3    H298919   1.393   7.599   3.939
16151TIP3   OH298920   0.350   7.822   3.681
16151TIP3    H198921   0.338   7.786   3.594
16151TIP3    H298922   0.443   7.844   3.687
16152TIP3   OH298923   0.863   7.865   3.848
16152TIP3    H198924   0.887   7.800   3.914
16152TIP3    H298925   0.869   7.949   3.893
16153TIP3   OH298926   0.233   7.675   5.101
16153TIP3    H198927   0.176   7.651   5.174
16153TIP3    H298928   0.306   7.722   5.142
16154TIP3   OH298929   3.705   7.872   4.634
16154TIP3    H198930   3.714   7.934   4.707
16154TIP3    H298931   3.780   7.891   4.578
16155TIP3   OH298932   2.446   8.021   4.309
16155TIP3    H198933   2.478   8.095   4.258
16155TIP3    H298934   2.416   7.957   4.244
16156TIP3   OH298935   3.214   8.007   4.166
16156TIP3    H198936   3.252   7.963   4.242
16156TIP3    H298937   3.290   8.041   4.118
16157TIP3   OH298938   3.755   8.005   4.878
16157TIP3    H198939   3.778   8.098   4.881
16157TIP3    H298940   3.667   8.001   4.915
16158TIP3   OH298941   2.329   7.881   4.740
16158TIP3    H198942   2.301   7.948   4.678
16158TIP3    H298943   2.257   7.873   4.802
16159TIP3   OH298944   3.336   7.924   4.399
16159TIP3    H198945   3.280   7.915   4.476
16159TIP3    H298946   3.377   8.010   4.409
16160TIP3   OH298947   2.290   8.061   4.531
16160TIP3    H198948   2.340   8.133   4.569
16160TIP3    H298949   2.342   8.033   4.455
16161TIP3   OH298950   3.440   7.812   4.730
16161TIP3    H198951   3.372   7.863   4.686
16161TIP3    H298952   3.521   7.836   4.686
16162TIP3   OH298953   2.657   7.570   4.473
16162TIP3    H198954   2.647   7.475   4.487
16162TIP3    H298955   2.578   7.608   4.513
16163TIP3   OH298956   3.521   7.609   3.769
16163TIP3    H198957   3.439   7.628   3.814
16163TIP3    H298958   3.557   7.695   3.746
16164TIP3   OH298959   2.424   7.679   4.579
16164TIP3    H198960   2.344   7.671   4.526
16164TIP3    H298961   2.407   7.753   4.637
16165TIP3   OH298962   2.929   7.670   4.948
16165TIP3    H198963   2.982   7.608   4.998
16165TIP3    H298964   2.839   7.645   4.967
16166TIP3   OH298965   3.206   8.016   5.032
16166TIP3    H198966   3.197   7.980   5.120
16166TIP3    H298967   3.193   8.110   5.042
16167TIP3   OH298968   2.894   7.866   3.613
16167TIP3    H198969   2.832   7.876   3.686
16167TIP3    H298970   2.940   7.784   3.632
16168TIP3   OH298971   1.913   7.947   4.273
16168TIP3    H198972   1.954   7.939   4.360
16168TIP3    H298973   1.986   7.967   4.214
16169TIP3   OH298974   1.985   7.992   3.699
16169TIP3    H198975   2.072   7.952   3.696
16169TIP3    H298976   2.001   8.084   3.721
16170TIP3   OH298977   2.728   7.958   4.261
16170TIP3    H198978   2.649   7.972   4.313
16170TIP3    H298979   2.775   7.889   4.307
16171TIP3   OH298980   2.129   7.984   4.097
16171TIP3    H198981   2.074   7.931   4.039
16171TIP3    H298982   2.210   7.935   4.106
16172TIP3   OH298983   2.525   8.122   3.865
16172TIP3    H198984   2.601   8.110   3.923
16172TIP3    H298985   2.492   0.065   3.887
16173TIP3   OH298986   3.169   7.871   4.607
16173TIP3    H198987   3.118   7.891   4.685
16173TIP3    H298988   3.134   7.787   4.576
16174TIP3   OH298989   2.357   7.808   4.149
16174TIP3    H198990   2.289   7.741   4.160
16174TIP3    H298991   2.439   7.759   4.150
16175TIP3   OH298992   2.743   8.066   4.712
16175TIP3    H198993   2.719   8.141   4.767
16175TIP3    H298994   2.829   8.038   4.746
16176TIP3   OH298995   3.154   7.972   3.721
16176TIP3    H198996   3.067   7.979   3.682
16176TIP3    H298997   3.171   8.060   3.756
16177TIP3   OH298998   2.117   7.866   4.912
16177TIP3    H198999   2.031   7.907   4.906
16177TIP3    H299000   2.106   7.799   4.980
16178TIP3   OH299001   3.019   7.911   4.848
16178TIP3    H199002   3.092   7.938   4.904
16178TIP3    H299003   2.995   7.824   4.879
16179TIP3   OH299004   3.097   7.848   3.972
16179TIP3    H199005   3.116   7.893   3.890
16179TIP3    H299006   3.128   7.908   4.040
16180TIP3   OH299007   2.757   8.083   4.019
16180TIP3    H199008   2.809   0.016   4.041
16180TIP3    H299009   2.747   8.036   4.102
16181TIP3   OH299010   2.868   8.038   5.078
16181TIP3    H199011   2.879   7.994   5.163
16181TIP3    H299012   2.912   7.980   5.016
16182TIP3   OH299013   2.865   7.730   4.072
16182TIP3    H199014   2.869   7.740   4.167
16182TIP3    H299015   2.945   7.772   4.040
16183TIP3   OH299016   2.486   7.897   3.708
16183TIP3    H199017   2.482   7.981   3.754
16183TIP3    H299018   2.563   7.853   3.743
16184TIP3   OH299019   3.479   7.991   4.952
16184TIP3    H199020   3.393   7.989   4.994
16184TIP3    H299021   3.472   7.926   4.882
16185TIP3   OH299022   2.176   7.661   4.456
16185TIP3    H199023   2.175   7.649   4.361
16185TIP3    H299024   2.151   7.576   4.492
16186TIP3   OH299025   2.594   8.081   5.054
16186TIP3    H199026   2.573   8.003   5.002
16186TIP3    H299027   2.685   8.069   5.079
16187TIP3   OH299028   2.577   7.884   4.855
16187TIP3    H199029   2.628   7.936   4.793
16187TIP3    H299030   2.488   7.883   4.819
16188TIP3   OH299031   2.653   7.628   4.926
16188TIP3    H199032   2.626   7.718   4.910
16188TIP3    H299033   2.578   7.575   4.900
16189TIP3   OH299034   3.423   7.971   3.561
16189TIP3    H199035   3.496   7.917   3.590
16189TIP3    H299036   3.352   7.951   3.622
16190TIP3   OH299037   3.424   8.074   4.006
16190TIP3    H199038   3.470   7.990   4.009
16190TIP3    H299039   3.482   8.131   3.955
16191TIP3   OH299040   3.510   8.125   4.644
16191TIP3    H199041   3.485   0.000   4.554
16191TIP3    H299042   3.491   0.061   4.692
16192TIP3   OH299043   3.523   7.818   4.023
16192TIP3    H199044   3.545   7.786   4.110
16192TIP3    H299045   3.450   7.763   3.995
16193TIP3   OH299046   2.054   7.906   4.505
16193TIP3    H199047   2.093   7.819   4.500
16193TIP3    H299048   2.127   7.964   4.524
16194TIP3   OH299049   3.654   7.831   3.656
16194TIP3    H199050   3.718   7.761   3.645
16194TIP3    H299051   3.706   7.907   3.684
16195TIP3   OH299052   1.927   7.858   3.943
16195TIP3    H199053   1.837   7.851   3.973
16195TIP3    H299054   1.924   7.919   3.870
16196TIP3   OH299055   1.904   7.634   4.761
16196TIP3    H199056   1.851   7.629   4.841
16196TIP3    H299057   1.874   7.713   4.717
16197TIP3   OH299058   3.630   7.605   4.971
16197TIP3    H199059   3.548   7.615   5.019
16197TIP3    H299060   3.636   7.511   4.954
16198TIP3   OH299061   2.857   7.726   4.350
16198TIP3    H199062   2.800   7.669   4.403
16198TIP3    H299063   2.946   7.701   4.376
16199TIP3   OH299064   3.413   7.638   4.389
16199TIP3    H199065   3.494   7.669   4.349
16199TIP3    H299066   3.376   7.716   4.430
16200TIP3   OH299067   3.632   7.731   4.259
16200TIP3    H199068   3.694   7.660   4.242
16200TIP3    H299069   3.688   7.807   4.278
16201TIP3   OH299070   2.172   7.605   4.184
16201TIP3    H199071   2.079   7.587   4.169
16201TIP3    H299072   2.214   7.519   4.177
16202TIP3   OH299073   2.002   7.650   3.775
16202TIP3    H199074   2.078   7.695   3.740
16202TIP3    H299075   1.970   7.708   3.844
16203TIP3   OH299076   2.595   7.636   4.192
16203TIP3    H199077   2.676   7.673   4.156
16203TIP3    H299078   2.615   7.618   4.284
16204TIP3   OH299079   3.111   7.634   4.414
16204TIP3    H199080   3.197   7.632   4.373
16204TIP3    H299081   3.093   7.543   4.437
16205TIP3   OH299082   3.308   7.670   3.931
16205TIP3    H199083   3.232   7.727   3.946
16205TIP3    H299084   3.274   7.582   3.942
16206TIP3   OH299085   2.226   7.785   3.679
16206TIP3    H199086   2.246   7.697   3.647
16206TIP3    H299087   2.311   7.824   3.698
16207TIP3   OH299088   2.746   7.862   3.848
16207TIP3    H199089   2.771   7.799   3.915
16207TIP3    H299090   2.746   7.946   3.894
16208TIP3   OH299091   2.129   7.654   5.115
16208TIP3    H199092   2.065   7.657   5.186
16208TIP3    H299093   2.191   7.586   5.142
16209TIP3   OH299094   5.585   7.864   4.636
16209TIP3    H199095   5.587   7.935   4.700
16209TIP3    H299096   5.656   7.886   4.574
16210TIP3   OH299097   4.336   8.018   4.307
16210TIP3    H199098   4.367   8.093   4.258
16210TIP3    H299099   4.303   7.957   4.241
16211TIP3   OH299100   5.098   8.009   4.162
16211TIP3    H199101   5.138   7.963   4.235
16211TIP3    H299102   5.173   8.040   4.110
16212TIP3   OH299103   5.638   8.009   4.877
16212TIP3    H199104   5.658   8.102   4.873
16212TIP3    H299105   5.547   8.005   4.908
16213TIP3   OH299106   4.215   7.879   4.738
16213TIP3    H199107   4.183   7.945   4.676
16213TIP3    H299108   4.145   7.870   4.802
16214TIP3   OH299109   5.219   7.916   4.392
16214TIP3    H199110   5.170   7.903   4.474
16214TIP3    H299111   5.262   8.001   4.404
16215TIP3   OH299112   4.175   8.057   4.524
16215TIP3    H199113   4.225   8.127   4.566
16215TIP3    H299114   4.229   8.029   4.451
16216TIP3   OH299115   5.327   7.793   4.746
16216TIP3    H199116   5.254   7.824   4.692
16216TIP3    H299117   5.405   7.813   4.694
16217TIP3   OH299118   4.552   7.563   4.475
16217TIP3    H199119   4.534   7.470   4.490
16217TIP3    H299120   4.477   7.609   4.514
16218TIP3   OH299121   5.414   7.608   3.783
16218TIP3    H199122   5.330   7.629   3.824
16218TIP3    H299123   5.443   7.691   3.745
16219TIP3   OH299124   4.321   7.682   4.575
16219TIP3    H199125   4.240   7.669   4.525
16219TIP3    H299126   4.301   7.754   4.635
16220TIP3   OH299127   4.819   7.692   4.973
16220TIP3    H199128   4.863   7.625   5.025
16220TIP3    H299129   4.729   7.660   4.964
16221TIP3   OH299130   5.094   8.030   5.021
16221TIP3    H199131   5.067   8.001   5.108
16221TIP3    H299132   5.065   8.122   5.017
16222TIP3   OH299133   4.770   7.878   3.594
16222TIP3    H199134   4.715   7.883   3.672
16222TIP3    H299135   4.817   7.795   3.604
16223TIP3   OH299136   3.857   7.908   4.231
16223TIP3    H199137   3.886   7.907   4.322
16223TIP3    H299138   3.885   7.824   4.196
16224TIP3   OH299139   3.877   7.993   3.726
16224TIP3    H199140   3.965   7.958   3.743
16224TIP3    H299141   3.887   8.088   3.735
16225TIP3   OH299142   4.617   7.959   4.259
16225TIP3    H199143   4.535   7.970   4.308
16225TIP3    H299144   4.662   7.887   4.303
16226TIP3   OH299145   4.058   8.034   4.086
16226TIP3    H199146   3.983   7.996   4.131
16226TIP3    H299147   4.125   7.965   4.088
16227TIP3   OH299148   4.409   8.120   3.870
16227TIP3    H199149   4.489   8.109   3.922
16227TIP3    H299150   4.366   0.053   3.909
16228TIP3   OH299151   5.078   7.841   4.611
16228TIP3    H199152   5.019   7.864   4.683
16228TIP3    H299153   5.034   7.769   4.566
16229TIP3   OH299154   4.237   7.812   4.143
16229TIP3    H199155   4.169   7.746   4.156
16229TIP3    H299156   4.318   7.762   4.141
16230TIP3   OH299157   4.622   8.068   4.706
16230TIP3    H199158   4.596   8.141   4.763
16230TIP3    H299159   4.706   8.040   4.741
16231TIP3   OH299160   5.030   7.974   3.717
16231TIP3    H199161   4.944   7.982   3.675
16231TIP3    H299162   5.044   8.057   3.761
16232TIP3   OH299163   4.007   7.874   4.916
16232TIP3    H199164   3.918   7.910   4.911
16232TIP3    H299165   4.004   7.813   4.989
16233TIP3   OH299166   4.923   7.903   4.837
16233TIP3    H199167   4.992   7.934   4.896
16233TIP3    H299168   4.893   7.821   4.877
16234TIP3   OH299169   4.980   7.847   3.969
16234TIP3    H199170   4.996   7.890   3.885
16234TIP3    H299171   5.010   7.910   4.034
16235TIP3   OH299172   4.644   8.081   4.015
16235TIP3    H199173   4.694   0.016   4.034
16235TIP3    H299174   4.637   8.036   4.100
16236TIP3   OH299175   4.758   8.029   5.041
16236TIP3    H199176   4.757   7.977   5.121
16236TIP3    H299177   4.799   7.972   4.976
16237TIP3   OH299178   4.752   7.721   4.067
16237TIP3    H199179   4.756   7.732   4.162
16237TIP3    H299180   4.831   7.763   4.034
16238TIP3   OH299181   4.380   7.893   3.715
16238TIP3    H199182   4.372   7.978   3.759
16238TIP3    H299183   4.461   7.855   3.751
16239TIP3   OH299184   5.361   7.994   4.947
16239TIP3    H199185   5.273   8.000   4.983
16239TIP3    H299186   5.356   7.923   4.883
16240TIP3   OH299187   4.072   7.651   4.460
16240TIP3    H199188   4.067   7.633   4.366
16240TIP3    H299189   4.044   7.569   4.501
16241TIP3   OH299190   4.482   8.077   5.054
16241TIP3    H199191   4.450   7.998   5.010
16241TIP3    H299192   4.576   8.061   5.066
16242TIP3   OH299193   4.463   7.881   4.851
16242TIP3    H199194   4.509   7.937   4.789
16242TIP3    H299195   4.372   7.879   4.819
16243TIP3   OH299196   4.554   7.623   4.881
16243TIP3    H199197   4.524   7.714   4.882
16243TIP3    H299198   4.474   7.572   4.873
16244TIP3   OH299199   5.303   8.020   3.603
16244TIP3    H199200   5.367   7.952   3.622
16244TIP3    H299201   5.220   7.985   3.637
16245TIP3   OH299202   5.308   8.079   4.004
16245TIP3    H199203   5.358   7.997   4.007
16245TIP3    H299204   5.363   8.138   3.952
16246TIP3   OH299205   5.432   8.138   4.652
16246TIP3    H199206   5.396   8.136   4.563
16246TIP3    H299207   5.399   0.076   4.690
16247TIP3   OH299208   5.420   7.826   4.022
16247TIP3    H199209   5.442   7.791   4.108
16247TIP3    H299210   5.348   7.771   3.991
16248TIP3   OH299211   3.948   7.895   4.488
16248TIP3    H199212   3.987   7.809   4.497
16248TIP3    H299213   4.018   7.956   4.512
16249TIP3   OH299214   5.509   7.836   3.652
16249TIP3    H199215   5.527   7.775   3.581
16249TIP3    H299216   5.592   7.882   3.666
16250TIP3   OH299217   3.791   7.808   3.948
16250TIP3    H199218   3.700   7.812   3.977
16250TIP3    H299219   3.811   7.897   3.920
16251TIP3   OH299220   3.795   7.640   4.753
16251TIP3    H199221   3.742   7.633   4.832
16251TIP3    H299222   3.764   7.719   4.709
16252TIP3   OH299223   5.520   7.612   4.974
16252TIP3    H199224   5.425   7.623   4.972
16252TIP3    H299225   5.534   7.517   4.973
16253TIP3   OH299226   4.742   7.725   4.347
16253TIP3    H199227   4.686   7.670   4.401
16253TIP3    H299228   4.831   7.704   4.376
16254TIP3   OH299229   5.316   7.636   4.405
16254TIP3    H199230   5.396   7.667   4.363
16254TIP3    H299231   5.267   7.715   4.426
16255TIP3   OH299232   5.524   7.731   4.259
16255TIP3    H199233   5.591   7.666   4.237
16255TIP3    H299234   5.572   7.812   4.271
16256TIP3   OH299235   4.050   7.607   4.186
16256TIP3    H199236   3.958   7.584   4.175
16256TIP3    H299237   4.096   7.524   4.178
16257TIP3   OH299238   3.870   7.662   3.736
16257TIP3    H199239   3.955   7.702   3.715
16257TIP3    H299240   3.843   7.705   3.816
16258TIP3   OH299241   4.487   7.624   4.190
16258TIP3    H199242   4.567   7.660   4.153
16258TIP3    H299243   4.507   7.609   4.282
16259TIP3   OH299244   4.997   7.643   4.417
16259TIP3    H199245   5.068   7.641   4.352
16259TIP3    H299246   4.985   7.551   4.442
16260TIP3   OH299247   5.198   7.675   3.940
16260TIP3    H199248   5.121   7.732   3.949
16260TIP3    H299249   5.165   7.586   3.951
16261TIP3   OH299250   4.120   7.777   3.685
16261TIP3    H199251   4.140   7.687   3.661
16261TIP3    H299252   4.205   7.816   3.702
16262TIP3   OH299253   4.637   7.861   3.843
16262TIP3    H199254   4.662   7.796   3.909
16262TIP3    H299255   4.639   7.945   3.890
16263TIP3   OH299256   4.026   7.664   5.119
16263TIP3    H199257   3.957   7.656   5.185
16263TIP3    H299258   4.092   7.599   5.144
16264TIP3   OH299259   7.461   7.865   4.651
16264TIP3    H199260   7.479   7.935   4.713
16264TIP3    H299261   7.513   7.888   4.573
16265TIP3   OH299262   6.240   8.007   4.305
16265TIP3    H199263   6.274   8.081   4.254
16265TIP3    H299264   6.194   7.953   4.241
16266TIP3   OH299265   7.006   8.031   4.184
16266TIP3    H199266   7.038   7.974   4.254
16266TIP3    H299267   7.082   8.041   4.126
16267TIP3   OH299268   7.527   8.032   4.871
16267TIP3    H199269   7.549   8.124   4.855
16267TIP3    H299270   7.436   8.034   4.899
16268TIP3   OH299271   6.103   7.880   4.734
16268TIP3    H199272   6.078   7.944   4.667
16268TIP3    H299273   6.028   7.877   4.793
16269TIP3   OH299274   7.115   7.913   4.409
16269TIP3    H199275   7.060   7.901   4.487
16269TIP3    H299276   7.156   7.999   4.422
16270TIP3   OH299277   6.074   8.056   4.520
16270TIP3    H199278   6.123   8.129   4.558
16270TIP3    H299279   6.129   8.025   4.447
16271TIP3   OH299280   7.205   7.795   4.755
16271TIP3    H199281   7.132   7.824   4.700
16271TIP3    H299282   7.283   7.815   4.703
16272TIP3   OH299283   6.446   7.569   4.489
16272TIP3    H199284   6.423   7.476   4.491
16272TIP3    H299285   6.368   7.615   4.518
16273TIP3   OH299286   7.277   7.604   3.753
16273TIP3    H199287   7.192   7.638   3.782
16273TIP3    H299288   7.324   7.681   3.722
16274TIP3   OH299289   6.205   7.676   4.578
16274TIP3    H199290   6.127   7.666   4.522
16274TIP3    H299291   6.184   7.750   4.635
16275TIP3   OH299292   6.703   7.662   4.956
16275TIP3    H199293   6.745   7.600   5.016
16275TIP3    H299294   6.610   7.641   4.962
16276TIP3   OH299295   6.979   8.034   5.024
16276TIP3    H199296   6.944   8.012   5.110
16276TIP3    H299297   6.951   8.124   5.009
16277TIP3   OH299298   6.674   7.831   3.609
16277TIP3    H199299   6.608   7.841   3.677
16277TIP3    H299300   6.719   7.749   3.631
16278TIP3   OH299301   5.672   7.966   4.275
16278TIP3    H199302   5.721   7.951   4.356
16278TIP3    H299303   5.739   7.980   4.209
16279TIP3   OH299304   5.749   7.967   3.721
16279TIP3    H199305   5.833   7.936   3.687
16279TIP3    H299306   5.761   8.061   3.735
16280TIP3   OH299307   6.510   7.919   4.262
16280TIP3    H199308   6.426   7.944   4.301
16280TIP3    H299309   6.561   7.886   4.336
16281TIP3   OH299310   5.887   8.001   4.098
16281TIP3    H199311   5.832   7.948   4.040
16281TIP3    H299312   5.968   7.951   4.106
16282TIP3   OH299313   6.322   8.110   3.880
16282TIP3    H199314   6.405   8.093   3.924
16282TIP3    H299315   6.282   0.036   3.931
16283TIP3   OH299316   6.949   7.851   4.621
16283TIP3    H199317   6.891   7.879   4.692
16283TIP3    H299318   6.891   7.807   4.559
16284TIP3   OH299319   6.108   7.829   4.134
16284TIP3    H199320   6.048   7.758   4.157
16284TIP3    H299321   6.180   7.785   4.089
16285TIP3   OH299322   6.503   8.071   4.709
16285TIP3    H199323   6.477   8.141   4.770
16285TIP3    H299324   6.590   8.046   4.738
16286TIP3   OH299325   6.939   7.949   3.609
16286TIP3    H199326   6.845   7.929   3.612
16286TIP3    H299327   6.976   7.904   3.684
16287TIP3   OH299328   5.887   7.884   4.899
16287TIP3    H199329   5.799   7.921   4.893
16287TIP3    H299330   5.880   7.816   4.966
16288TIP3   OH299331   6.790   7.905   4.857
16288TIP3    H199332   6.867   7.929   4.909
16288TIP3    H299333   6.768   7.816   4.887
16289TIP3   OH299334   6.815   7.920   4.016
16289TIP3    H199335   6.875   7.878   3.955
16289TIP3    H299336   6.871   7.962   4.081
16290TIP3   OH299337   6.557   8.034   4.009
16290TIP3    H199338   6.651   8.018   4.003
16290TIP3    H299339   6.535   8.017   4.101
16291TIP3   OH299340   6.626   8.041   5.048
16291TIP3    H199341   6.630   7.989   5.128
16291TIP3    H299342   6.672   7.988   4.983
16292TIP3   OH299343   6.618   7.738   4.082
16292TIP3    H199344   6.575   7.797   4.144
16292TIP3    H299345   6.696   7.785   4.054
16293TIP3   OH299346   6.253   7.897   3.706
16293TIP3    H199347   6.254   7.981   3.753
16293TIP3    H299348   6.331   7.852   3.738
16294TIP3   OH299349   7.249   8.010   4.953
16294TIP3    H199350   7.160   8.012   4.987
16294TIP3    H299351   7.247   7.942   4.885
16295TIP3   OH299352   5.957   7.662   4.454
16295TIP3    H199353   5.953   7.648   4.359
16295TIP3    H299354   5.924   7.580   4.492
16296TIP3   OH299355   6.346   8.057   5.062
16296TIP3    H199356   6.330   7.986   4.999
16296TIP3    H299357   6.441   8.060   5.072
16297TIP3   OH299358   6.349   7.879   4.849
16297TIP3    H199359   6.397   7.933   4.786
16297TIP3    H299360   6.260   7.876   4.814
16298TIP3   OH299361   6.431   7.622   4.912
16298TIP3    H199362   6.403   7.712   4.899
16298TIP3    H299363   6.355   7.569   4.890
16299TIP3   OH299364   7.212   8.003   3.542
16299TIP3    H199365   7.255   7.929   3.586
16299TIP3    H299366   7.119   7.993   3.564
16300TIP3   OH299367   7.228   8.072   4.022
16300TIP3    H199368   7.253   7.980   4.019
16300TIP3    H299369   7.290   8.115   3.962
16301TIP3   OH299370   7.306   0.004   4.667
16301TIP3    H199371   7.271   0.002   4.578
16301TIP3    H299372   7.271   0.084   4.705
16302TIP3   OH299373   7.314   7.810   4.015
16302TIP3    H199374   7.309   7.761   4.096
16302TIP3    H299375   7.233   7.788   3.968
16303TIP3   OH299376   5.832   7.907   4.491
16303TIP3    H199377   5.869   7.819   4.487
16303TIP3    H299378   5.908   7.963   4.510
16304TIP3   OH299379   7.410   7.812   3.626
16304TIP3    H199380   7.455   7.806   3.542
16304TIP3    H299381   7.458   7.880   3.674
16305TIP3   OH299382   5.695   7.850   3.961
16305TIP3    H199383   5.601   7.845   3.981
16305TIP3    H299384   5.699   7.897   3.878
16306TIP3   OH299385   5.690   7.639   4.758
16306TIP3    H199386   5.636   7.637   4.838
16306TIP3    H299387   5.660   7.717   4.711
16307TIP3   OH299388   7.395   7.618   4.979
16307TIP3    H199389   7.309   7.636   4.943
16307TIP3    H299390   7.404   7.523   4.975
16308TIP3   OH299391   6.651   7.767   4.442
16308TIP3    H199392   6.596   7.691   4.458
16308TIP3    H299393   6.732   7.731   4.405
16309TIP3   OH299394   7.182   7.607   4.396
16309TIP3    H199395   7.261   7.650   4.363
16309TIP3    H299396   7.120   7.679   4.407
16310TIP3   OH299397   7.397   7.713   4.268
16310TIP3    H199398   7.465   7.652   4.238
16310TIP3    H299399   7.444   7.796   4.279
16311TIP3   OH299400   5.945   7.611   4.182
16311TIP3    H199401   5.851   7.596   4.169
16311TIP3    H299402   5.985   7.525   4.171
16312TIP3   OH299403   5.791   7.636   3.808
16312TIP3    H199404   5.860   7.687   3.765
16312TIP3    H299405   5.754   7.695   3.873
16313TIP3   OH299406   6.410   7.582   4.201
16313TIP3    H199407   6.486   7.626   4.162
16313TIP3    H299408   6.426   7.587   4.295
16314TIP3   OH299409   6.886   7.662   4.347
16314TIP3    H199410   6.924   7.659   4.260
16314TIP3    H299411   6.880   7.571   4.375
16315TIP3   OH299412   5.994   7.780   3.679
16315TIP3    H199413   6.017   7.695   3.642
16315TIP3    H299414   6.078   7.824   3.693
16316TIP3   OH299415   6.500   7.830   3.829
16316TIP3    H199416   6.519   7.762   3.894
16316TIP3    H299417   6.511   7.912   3.876
16317TIP3   OH299418   5.919   7.682   5.096
16317TIP3    H199419   5.869   7.652   5.172
16317TIP3    H299420   5.993   7.730   5.133
16318TIP3   OH299421   8.054   8.057   4.355
16318TIP3    H199422   8.139   8.022   4.379
16318TIP3    H299423   8.018   7.993   4.293
16319TIP3   OH299424   7.976   7.832   4.761
16319TIP3    H199425   7.972   7.920   4.723
16319TIP3    H299426   7.897   7.826   4.815
16320TIP3   OH299427   7.941   8.066   4.607
16320TIP3    H199428   7.997   8.115   4.667
16320TIP3    H299429   7.992   8.058   4.527
16321TIP3   OH299430   8.096   7.748   4.529
16321TIP3    H199431   8.018   7.713   4.487
16321TIP3    H299432   8.068   7.771   4.618
16322TIP3   OH299433   7.561   7.935   4.286
16322TIP3    H199434   7.616   7.935   4.365
16322TIP3    H299435   7.621   7.962   4.216
16323TIP3   OH299436   7.531   8.024   3.757
16323TIP3    H199437   7.605   8.083   3.761
16323TIP3    H299438   7.454   8.080   3.770
16324TIP3   OH299439   7.763   8.009   4.102
16324TIP3    H199440   7.713   7.954   4.041
16324TIP3    H299441   7.842   7.959   4.120
16325TIP3   OH299442   7.979   7.850   4.175
16325TIP3    H199443   7.932   7.767   4.171
16325TIP3    H299444   8.071   7.824   4.183
16326TIP3   OH299445   7.744   7.858   4.901
16326TIP3    H199446   7.670   7.918   4.888
16326TIP3    H299447   7.745   7.843   4.996
16327TIP3   OH299448   8.037   7.877   3.698
16327TIP3    H199449   8.054   7.969   3.721
16327TIP3    H299450   8.074   7.827   3.770
16328TIP3   OH299451   7.840   7.671   4.449
16328TIP3    H199452   7.833   7.659   4.354
16328TIP3    H299453   7.804   7.590   4.486
16329TIP3   OH299454   7.724   7.918   4.505
16329TIP3    H199455   7.765   7.832   4.496
16329TIP3    H299456   7.787   7.970   4.555
16330TIP3   OH299457   7.584   7.846   3.958
16330TIP3    H199458   7.496   7.827   3.991
16330TIP3    H299459   7.569   7.905   3.884
16331TIP3   OH299460   7.566   7.631   4.758
16331TIP3    H199461   7.519   7.637   4.841
16331TIP3    H299462   7.544   7.713   4.712
16332TIP3   OH299463   7.828   7.615   4.179
16332TIP3    H199464   7.735   7.603   4.158
16332TIP3    H299465   7.863   7.526   4.180
16333TIP3   OH299466   7.661   7.610   3.828
16333TIP3    H199467   7.724   7.647   3.766
16333TIP3    H299468   7.636   7.684   3.884
16334TIP3   OH299469   7.832   7.703   3.641
16334TIP3    H199470   7.813   7.709   3.547
16334TIP3    H299471   7.899   7.770   3.656
16335TIP3   OH299472   7.829   7.629   5.109
16335TIP3    H199473   7.771   7.630   5.185
16335TIP3    H299474   7.879   7.711   5.116
16336TIP3   OH299475   1.208   1.044   6.124
16336TIP3    H199476   1.198   1.139   6.123
16336TIP3    H299477   1.138   1.011   6.069
16337TIP3   OH299478   1.044   0.957   6.555
16337TIP3    H199479   1.080   0.933   6.640
16337TIP3    H299480   1.033   0.874   6.509
16338TIP3   OH299481   0.263   0.864   6.697
16338TIP3    H199482   0.269   0.778   6.740
16338TIP3    H299483   0.300   0.925   6.760
16339TIP3   OH299484   1.468   1.279   6.344
16339TIP3    H199485   1.445   1.197   6.389
16339TIP3    H299486   1.488   1.340   6.415
16340TIP3   OH299487   0.419   1.339   6.497
16340TIP3    H199488   0.394   1.254   6.460
16340TIP3    H299489   0.475   1.317   6.572
16341TIP3   OH299490   0.135   0.739   5.994
16341TIP3    H199491   0.163   0.816   6.042
16341TIP3    H299492   0.048   0.719   6.028
16342TIP3   OH299493   0.180   0.937   6.228
16342TIP3    H199494   0.200   0.852   6.268
16342TIP3    H299495   0.240   0.998   6.270
16343TIP3   OH299496   1.207   1.738   6.422
16343TIP3    H199497   1.230   1.666   6.364
16343TIP3    H299498   1.207   1.699   6.510
16344TIP3   OH299499   0.937   1.210   6.576
16344TIP3    H199500   0.969   1.124   6.551
16344TIP3    H299501   1.003   1.244   6.635
16345TIP3   OH299502   1.800   0.371   6.633
16345TIP3    H199503   1.805   0.414   6.718
16345TIP3    H299504   1.878   0.400   6.586
16346TIP3   OH299505   1.224   0.594   6.605
16346TIP3    H199506   1.215   0.532   6.678
16346TIP3    H299507   1.259   0.542   6.533
16347TIP3   OH299508   0.565   0.474   6.331
16347TIP3    H199509   0.575   0.550   6.274
16347TIP3    H299510   0.526   0.407   6.274
16348TIP3   OH299511   1.361   0.452   6.117
16348TIP3    H199512   1.399   0.435   6.203
16348TIP3    H299513   1.431   0.494   6.068
16349TIP3   OH299514   0.242   0.691   6.326
16349TIP3    H199515   0.284   0.653   6.403
16349TIP3    H299516   0.273   0.638   6.253
16350TIP3   OH299517   0.748   0.785   6.355
16350TIP3    H199518   0.834   0.805   6.319
16350TIP3    H299519   0.698   0.752   6.281
16351TIP3   OH299520   1.797   0.483   6.886
16351TIP3    H199521   1.741   0.559   6.874
16351TIP3    H299522   1.837   0.495   6.972
16352TIP3   OH299523   0.420   0.365   6.723
16352TIP3    H199524   0.386   0.439   6.674
16352TIP3    H299525   0.358   0.353   6.795
16353TIP3   OH299526   1.182   1.306   6.015
16353TIP3    H199527   1.152   1.292   5.925
16353TIP3    H299528   1.136   1.385   6.043
16354TIP3   OH299529   0.709   1.116   6.704
16354TIP3    H199530   0.658   1.187   6.744
16354TIP3    H299531   0.787   1.160   6.669
16355TIP3   OH299532   1.467   0.451   6.366
16355TIP3    H199533   1.417   0.390   6.420
16355TIP3    H299534   1.521   0.499   6.428
16356TIP3   OH299535   0.380   0.551   6.520
16356TIP3    H199536   0.430   0.612   6.573
16356TIP3    H299537   0.445   0.511   6.462
16357TIP3   OH299538   0.550   1.331   6.791
16357TIP3    H199539   0.560   1.426   6.798
16357TIP3    H299540   0.461   1.314   6.824
16358TIP3   OH299541   0.177   1.312   5.912
16358TIP3    H199542   0.159   1.363   5.833
16358TIP3    H299543   0.188   1.377   5.981
16359TIP3   OH299544   1.494   1.472   6.546
16359TIP3    H199545   1.402   1.466   6.570
16359TIP3    H299546   1.510   1.566   6.535
16360TIP3   OH299547   1.540   0.269   6.623
16360TIP3    H199548   1.520   0.285   6.715
16360TIP3    H299549   1.626   0.310   6.610
16361TIP3   OH299550   0.771   0.066   6.442
16361TIP3    H199551   0.807   0.019   6.518
16361TIP3    H299552   0.690   0.105   6.474
16362TIP3   OH299553   1.310   1.594   6.199
16362TIP3    H199554   1.362   1.515   6.182
16362TIP3    H299555   1.375   1.664   6.203
16363TIP3   OH299556   1.444   1.371   6.090
16363TIP3    H199557   1.360   1.333   6.065
16363TIP3    H299558   1.465   1.331   6.174
16364TIP3   OH299559   1.603   1.246   6.923
16364TIP3    H199560   1.605   1.181   6.854
16364TIP3    H299561   1.630   1.328   6.880
16365TIP3   OH299562   1.059   0.950   5.907
16365TIP3    H199563   0.992   1.015   5.886
16365TIP3    H299564   1.123   0.957   5.837
16366TIP3   OH299565   1.115   0.796   5.545
16366TIP3    H199566   1.157   0.847   5.614
16366TIP3    H299567   1.178   0.726   5.525
16367TIP3   OH299568   1.767   0.891   6.717
16367TIP3    H199569   1.698   0.958   6.720
16367TIP3    H299570   1.839   0.934   6.672
16368TIP3   OH299571   1.419   0.954   5.978
16368TIP3    H199572   1.352   0.984   6.040
16368TIP3    H299573   1.482   0.906   6.032
16369TIP3   OH299574   1.386   0.781   6.951
16369TIP3    H199575   1.395   0.836   7.028
16369TIP3    H299576   1.318   0.823   6.898
16370TIP3   OH299577   0.559   1.009   6.177
16370TIP3    H199578   0.533   0.983   6.088
16370TIP3    H299579   0.589   0.928   6.218
16371TIP3   OH299580   0.766   1.391   6.445
16371TIP3    H199581   0.775   1.364   6.354
16371TIP3    H299582   0.825   1.333   6.493
16372TIP3   OH299583   0.585   0.951   6.524
16372TIP3    H199584   0.659   0.921   6.471
16372TIP3    H299585   0.624   1.009   6.589
16373TIP3   OH299586   1.235   1.461   6.626
16373TIP3    H199587   1.217   1.540   6.678
16373TIP3    H299588   1.198   1.389   6.678
16374TIP3   OH299589   0.701   1.359   7.051
16374TIP3    H199590   0.636   1.413   7.096
16374TIP3    H299591   0.654   1.323   6.976
16375TIP3   OH299592   1.289   0.923   5.736
16375TIP3    H199593   1.337   0.945   5.816
16375TIP3    H299594   1.350   0.943   5.665
16376TIP3   OH299595   0.369   0.966   6.946
16376TIP3    H199596   0.390   1.039   7.005
16376TIP3    H299597   0.280   0.940   6.971
16377TIP3   OH299598   1.075   1.563   6.063
16377TIP3    H199599   1.149   1.572   6.123
16377TIP3    H299600   1.038   1.651   6.057
16378TIP3   OH299601   0.494   1.531   7.125
16378TIP3    H199602   0.487   1.565   7.035
16378TIP3    H299603   0.403   1.526   7.155
16379TIP3   OH299604   1.663   0.093   5.790
16379TIP3    H199605   1.571   0.084   5.765
16379TIP3    H299606   1.699   0.158   5.730
16380TIP3   OH299607   0.483   0.929   5.918
16380TIP3    H199608   0.423   0.992   5.880
16380TIP3    H299609   0.438   0.845   5.909
16381TIP3   OH299610   1.765   1.420   5.691
16381TIP3    H199611   1.757   1.515   5.680
16381TIP3    H299612   1.858   1.402   5.681
16382TIP3   OH299613   0.104   1.153   6.819
16382TIP3    H199614   0.015   1.186   6.807
16382TIP3    H299615   0.094   1.075   6.874
16383TIP3   OH299616   0.084   1.488   6.531
16383TIP3    H199617   0.104   1.395   6.530
16383TIP3    H299618   0.128   1.522   6.609
16384TIP3   OH299619   1.885   1.561   7.155
16384TIP3    H199620   1.875   1.468   7.136
16384TIP3    H299621   1.797   1.591   7.178
16385TIP3   OH299622   0.935   1.493   6.991
16385TIP3    H199623   0.940   1.568   7.050
16385TIP3    H299624   0.857   1.446   7.018
16386TIP3   OH299625   1.037   1.814   5.935
16386TIP3    H199626   1.019   1.826   5.841
16386TIP3    H299627   1.012   1.897   5.974
16387TIP3   OH299628   0.388   1.719   6.171
16387TIP3    H199629   0.411   1.683   6.257
16387TIP3    H299630   0.333   1.652   6.131
16388TIP3   OH299631   1.309   1.763   5.640
16388TIP3    H199632   1.382   1.712   5.603
16388TIP3    H299633   1.323   1.761   5.734
16389TIP3   OH299634   1.312   1.766   5.921
16389TIP3    H199635   1.217   1.770   5.936
16389TIP3    H299636   1.347   1.727   6.001
16390TIP3   OH299637   1.569   0.585   7.229
16390TIP3    H199638   1.479   0.613   7.249
16390TIP3    H299639   1.585   0.513   7.290
16391TIP3   OH299640   0.295   1.331   6.894
16391TIP3    H199641   0.322   1.298   6.980
16391TIP3    H299642   0.229   1.269   6.864
16392TIP3   OH299643   0.550   0.161   6.584
16392TIP3    H199644   0.495   0.236   6.607
16392TIP3    H299645   0.594   0.138   6.666
16393TIP3   OH299646   1.024   0.204   6.885
16393TIP3    H199647   1.018   0.254   6.966
16393TIP3    H299648   1.010   0.113   6.911
16394TIP3   OH299649   1.341   0.500   6.979
16394TIP3    H199650   1.326   0.482   7.072
16394TIP3    H299651   1.360   0.594   6.976
16395TIP3   OH299652   1.469   0.946   5.524
16395TIP3    H199653   1.446   0.956   5.432
16395TIP3    H299654   1.523   0.867   5.528
16396TIP3   OH299655   1.012   0.344   5.626
16396TIP3    H199656   0.951   0.357   5.699
16396TIP3    H299657   1.029   0.250   5.625
16397TIP3   OH299658   0.587   0.697   6.626
16397TIP3    H199659   0.577   0.701   6.721
16397TIP3    H299660   0.568   0.785   6.596
16398TIP3   OH299661   0.582   0.694   6.156
16398TIP3    H199662   0.489   0.673   6.151
16398TIP3    H299663   0.617   0.669   6.070
16399TIP3   OH299664   1.098   0.697   6.010
16399TIP3    H199665   1.079   0.787   5.983
16399TIP3    H299666   1.172   0.670   5.957
16400TIP3   OH299667   1.053   0.744   7.188
16400TIP3    H199668   1.000   0.674   7.225
16400TIP3    H299669   1.140   0.732   7.227
16401TIP3   OH299670   1.190   0.633   6.265
16401TIP3    H199671   1.163   0.665   6.179
16401TIP3    H299672   1.243   0.556   6.246
16402TIP3   OH299673   0.292   0.630   6.846
16402TIP3    H199674   0.340   0.666   6.921
16402TIP3    H299675   0.269   0.541   6.872
16403TIP3   OH299676   0.585   0.387   5.489
16403TIP3    H199677   0.599   0.382   5.584
16403TIP3    H299678   0.598   0.479   5.468
16404TIP3   OH299679   0.066   0.437   6.203
16404TIP3    H199680   0.093   0.435   6.295
16404TIP3    H299681   0.118   0.368   6.161
16405TIP3   OH299682   0.147   0.507   5.838
16405TIP3    H199683   0.186   0.536   5.756
16405TIP3    H299684   0.130   0.588   5.887
16406TIP3   OH299685   1.150   0.805   6.765
16406TIP3    H199686   1.198   0.744   6.710
16406TIP3    H299687   1.110   0.751   6.833
16407TIP3   OH299688   0.842   0.467   6.337
16407TIP3    H199689   0.755   0.428   6.329
16407TIP3    H299690   0.902   0.392   6.337
16408TIP3   OH299691   0.348   0.558   6.110
16408TIP3    H199692   0.283   0.569   6.041
16408TIP3    H299693   0.385   0.471   6.096
16409TIP3   OH299694   0.636   0.601   5.904
16409TIP3    H199695   0.729   0.589   5.922
16409TIP3    H299696   0.633   0.637   5.815
16410TIP3   OH299697   1.248   0.334   6.496
16410TIP3    H199698   1.240   0.332   6.592
16410TIP3    H299699   1.245   0.242   6.469
16411TIP3   OH299700   0.615   0.691   5.646
16411TIP3    H199701   0.561   0.673   5.569
16411TIP3    H299702   0.697   0.726   5.610
16412TIP3   OH299703   1.622   1.933   7.201
16412TIP3    H199704   1.651   1.924   7.110
16412TIP3    H299705   1.703   1.936   7.252
16413TIP3   OH299706   0.369   1.198   7.124
16413TIP3    H199707   0.420   1.207   7.205
16413TIP3    H299708   0.281   1.176   7.154
16414TIP3   OH299709   1.013   0.692   6.465
16414TIP3    H199710   1.062   0.673   6.385
16414TIP3    H299711   1.072   0.666   6.536
16415TIP3   OH299712   0.474   0.305   6.135
16415TIP3    H199713   0.403   0.241   6.137
16415TIP3    H299714   0.554   0.252   6.138
16416TIP3   OH299715   0.845   0.610   6.747
16416TIP3    H199716   0.823   0.698   6.777
16416TIP3    H299717   0.917   0.582   6.804
16417TIP3   OH299718   0.866   1.140   5.850
16417TIP3    H199719   0.799   1.097   5.797
16417TIP3    H299720   0.818   1.172   5.927
16418TIP3   OH299721   1.592   1.103   6.685
16418TIP3    H199722   1.658   1.158   6.643
16418TIP3    H299723   1.525   1.090   6.617
16419TIP3   OH299724   1.275   0.425   5.696
16419TIP3    H199725   1.183   0.414   5.669
16419TIP3    H299726   1.275   0.506   5.747
16420TIP3   OH299727   0.988   1.182   6.993
16420TIP3    H199728   1.016   1.121   7.062
16420TIP3    H299729   0.974   1.265   7.039
16421TIP3   OH299730   1.316   0.652   5.844
16421TIP3    H199731   1.399   0.630   5.885
16421TIP3    H299732   1.327   0.742   5.813
16422TIP3   OH299733   0.375   1.072   6.384
16422TIP3    H199734   0.438   1.071   6.312
16422TIP3    H299735   0.418   1.023   6.454
16423TIP3   OH299736   1.070   1.294   5.754
16423TIP3    H199737   1.036   1.384   5.762
16423TIP3    H299738   0.997   1.239   5.783
16424TIP3   OH299739   0.084   0.920   6.984
16424TIP3    H199740   0.117   0.891   7.069
16424TIP3    H299741   8.134   0.929   6.996
16425TIP3   OH299742   0.841   0.928   7.173
16425TIP3    H199743   0.777   0.865   7.206
16425TIP3    H299744   0.925   0.883   7.180
16426TIP3   OH299745   1.217   1.471   6.968
16426TIP3    H199746   1.123   1.470   6.953
16426TIP3    H299747   1.226   1.484   7.062
16427TIP3   OH299748   1.729   0.685   5.763
16427TIP3    H199749   1.688   0.683   5.677
16427TIP3    H299750   1.781   0.766   5.764
16428TIP3   OH299751   1.838   1.304   7.080
16428TIP3    H199752   1.748   1.271   7.070
16428TIP3    H299753   1.888   1.259   7.012
16429TIP3   OH299754   1.610   1.524   5.928
16429TIP3    H199755   1.554   1.475   5.988
16429TIP3    H299756   1.670   1.458   5.892
16430TIP3   OH299757   1.398   1.046   6.485
16430TIP3    H199758   1.307   1.043   6.514
16430TIP3    H299759   1.414   0.960   6.447
16431TIP3   OH299760   0.639   1.462   6.170
16431TIP3    H199761   0.653   1.546   6.126
16431TIP3    H299762   0.588   1.483   6.247
16432TIP3   OH299763   0.142   0.969   5.619
16432TIP3    H199764   0.205   1.010   5.678
16432TIP3    H299765   0.082   0.921   5.676
16433TIP3   OH299766   0.699   1.223   6.049
16433TIP3    H199767   0.681   1.306   6.093
16433TIP3    H299768   0.653   1.158   6.103
16434TIP3   OH299769   0.826   1.628   6.774
16434TIP3    H199770   0.885   1.701   6.753
16434TIP3    H299771   0.874   1.576   6.838
16435TIP3   OH299772   0.636   1.723   6.052
16435TIP3    H199773   0.546   1.730   6.085
16435TIP3    H299774   0.682   1.796   6.094
16436TIP3   OH299775   1.136   1.237   6.769
16436TIP3    H199776   1.074   1.218   6.839
16436TIP3    H299777   1.221   1.211   6.805
16437TIP3   OH299778   1.412   1.353   5.635
16437TIP3    H199779   1.380   1.374   5.722
16437TIP3    H299780   1.334   1.325   5.587
16438TIP3   OH299781   1.439   1.634   6.934
16438TIP3    H199782   1.361   1.578   6.939
16438TIP3    H299783   1.410   1.712   6.887
16439TIP3   OH299784   1.827   1.747   5.668
16439TIP3    H199785   1.887   1.811   5.630
16439TIP3    H299786   1.747   1.796   5.686
16440TIP3   OH299787   0.225   0.372   6.924
16440TIP3    H199788   0.159   0.416   6.976
16440TIP3    H299789   0.252   0.297   6.978
16441TIP3   OH299790   1.568   1.141   5.839
16441TIP3    H199791   1.508   1.087   5.890
16441TIP3    H299792   1.653   1.131   5.884
16442TIP3   OH299793   0.236   1.570   6.764
16442TIP3    H199794   0.255   1.484   6.802
16442TIP3    H299795   0.298   1.630   6.805
16443TIP3   OH299796   0.807   1.412   5.517
16443TIP3    H199797   0.757   1.355   5.459
16443TIP3    H299798   0.759   1.411   5.600
16444TIP3   OH299799   0.649   1.409   5.752
16444TIP3    H199800   0.669   1.363   5.833
16444TIP3    H299801   0.672   1.500   5.770
16445TIP3   OH299802   0.314   1.110   5.787
16445TIP3    H199803   0.263   1.164   5.848
16445TIP3    H299804   0.362   1.173   5.733
16446TIP3   OH299805   1.201   0.378   6.770
16446TIP3    H199806   1.250   0.410   6.846
16446TIP3    H299807   1.139   0.314   6.806
16447TIP3   OH299808   1.239   0.278   5.941
16447TIP3    H199809   1.260   0.327   5.861
16447TIP3    H299810   1.278   0.329   6.011
16448TIP3   OH299811   0.979   1.543   5.797
16448TIP3    H199812   0.895   1.590   5.793
16448TIP3    H299813   1.013   1.563   5.884
16449TIP3   OH299814   0.875   0.542   6.045
16449TIP3    H199815   0.955   0.594   6.034
16449TIP3    H299816   0.872   0.521   6.138
16450TIP3   OH299817   1.040   0.621   6.942
16450TIP3    H199818   1.041   0.675   7.021
16450TIP3    H299819   1.057   0.532   6.974
16451TIP3   OH299820   1.000   0.181   6.050
16451TIP3    H199821   1.006   0.198   6.144
16451TIP3    H299822   1.087   0.204   6.016
16452TIP3   OH299823   0.730   1.668   5.798
16452TIP3    H199824   0.724   1.746   5.743
16452TIP3    H299825   0.697   1.697   5.883
16453TIP3   OH299826   0.600   0.355   5.766
16453TIP3    H199827   0.582   0.431   5.823
16453TIP3    H299828   0.687   0.326   5.792
16454TIP3   OH299829   1.547   0.335   6.890
16454TIP3    H199830   1.475   0.387   6.928
16454TIP3    H299831   1.625   0.387   6.909
16455TIP3   OH299832   1.427   0.783   6.384
16455TIP3    H199833   1.347   0.732   6.369
16455TIP3    H299834   1.478   0.731   6.446
16456TIP3   OH299835   0.422   1.318   5.617
16456TIP3    H199836   0.486   1.367   5.669
16456TIP3    H299837   0.475   1.256   5.566
16457TIP3   OH299838   0.195   0.655   5.613
16457TIP3    H199839   0.231   0.736   5.576
16457TIP3    H299840   0.101   0.672   5.620
16458TIP3   OH299841   1.572   1.740   6.540
16458TIP3    H199842   1.570   1.808   6.472
16458TIP3    H299843   1.664   1.735   6.565
16459TIP3   OH299844   0.231   0.156   6.414
16459TIP3    H199845   0.246   0.143   6.320
16459TIP3    H299846   0.284   0.087   6.455
16460TIP3   OH299847   0.194   1.548   6.062
16460TIP3    H199848   0.145   1.581   6.138
16460TIP3    H299849   0.163   1.602   5.989
16461TIP3   OH299850   0.108   1.783   7.230
16461TIP3    H199851   0.167   1.711   7.254
16461TIP3    H299852   0.040   1.741   7.178
16462TIP3   OH299853   0.579   1.678   7.348
16462TIP3    H199854   0.645   1.629   7.396
16462TIP3    H299855   0.554   1.620   7.275
16463TIP3   OH299856   1.003   1.608   5.486
16463TIP3    H199857   0.928   1.549   5.493
16463TIP3    H299858   1.072   1.564   5.536
16464TIP3   OH299859   1.238   1.520   7.230
16464TIP3    H199860   1.196   1.452   7.282
16464TIP3    H299861   1.311   1.550   7.285
16465TIP3   OH299862   1.491   1.593   5.509
16465TIP3    H199863   1.467   1.511   5.554
16465TIP3    H299864   1.576   1.575   5.470
16466TIP3   OH299865   0.122   1.126   7.212
16466TIP3    H199866   0.147   1.036   7.234
16466TIP3    H299867   0.065   1.154   7.284
16467TIP3   OH299868   0.593   1.142   5.498
16467TIP3    H199869   0.623   1.098   5.578
16467TIP3    H299870   0.625   1.087   5.427
16468TIP3   OH299871   0.747   1.183   7.266
16468TIP3    H199872   0.741   1.231   7.184
16468TIP3    H299873   0.787   1.099   7.242
16469TIP3   OH299874   1.178   1.281   5.505
16469TIP3    H199875   1.135   1.287   5.590
16469TIP3    H299876   1.127   1.217   5.457
16470TIP3   OH299877   1.337   1.208   6.971
16470TIP3    H199878   1.432   1.219   6.964
16470TIP3    H299879   1.303   1.297   6.982
16471TIP3   OH299880   0.209   0.858   7.225
16471TIP3    H199881   0.270   0.785   7.212
16471TIP3    H299882   0.205   0.869   7.320
16472TIP3   OH299883   0.675   0.994   5.716
16472TIP3    H199884   0.619   0.958   5.784
16472TIP3    H299885   0.718   0.918   5.676
16473TIP3   OH299886   0.567   0.769   6.895
16473TIP3    H199887   0.503   0.834   6.923
16473TIP3    H299888   0.649   0.818   6.888
16474TIP3   OH299889   0.831   0.821   5.542
16474TIP3    H199890   0.815   0.825   5.448
16474TIP3    H299891   0.925   0.809   5.550
16475TIP3   OH299892   1.172   1.033   7.369
16475TIP3    H199893   1.243   0.995   7.318
16475TIP3    H299894   1.187   1.000   7.458
16476TIP3   OH299895   1.761   1.135   5.500
16476TIP3    H199896   1.735   1.082   5.424
16476TIP3    H299897   1.840   1.180   5.472
16477TIP3   OH299898   0.656   0.575   7.080
16477TIP3    H199899   0.661   0.493   7.030
16477TIP3    H299900   0.624   0.639   7.017
16478TIP3   OH299901   0.663   0.396   6.863
16478TIP3    H199902   0.721   0.455   6.815
16478TIP3    H299903   0.583   0.392   6.810
16479TIP3   OH299904   0.808   0.880   6.819
16479TIP3    H199905   0.876   0.903   6.882
16479TIP3    H299906   0.780   0.963   6.782
16480TIP3   OH299907   1.297   0.665   7.316
16480TIP3    H199908   1.269   0.591   7.370
16480TIP3    H299909   1.335   0.727   7.378
16481TIP3   OH299910   1.384   0.984   7.150
16481TIP3    H199911   1.367   1.062   7.097
16481TIP3    H299912   1.454   1.010   7.210
16482TIP3   OH299913   0.380   0.640   7.145
16482TIP3    H199914   0.338   0.566   7.188
16482TIP3    H299915   0.474   0.627   7.160
16483TIP3   OH299916   0.659   0.114   6.827
16483TIP3    H199917   0.671   0.199   6.870
16483TIP3    H299918   0.622   0.058   6.896
16484TIP3   OH299919   0.874   0.549   7.255
16484TIP3    H199920   0.852   0.486   7.324
16484TIP3    H299921   0.793   0.559   7.205
16485TIP3   OH299922   1.053   0.387   7.095
16485TIP3    H199923   0.990   0.419   7.159
16485TIP3    H299924   1.125   0.351   7.147
16486TIP3   OH299925   1.258   0.299   7.253
16486TIP3    H199926   1.292   0.213   7.276
16486TIP3    H299927   1.258   0.347   7.336
16487TIP3   OH299928   0.267   0.406   7.247
16487TIP3    H199929   0.274   0.319   7.207
16487TIP3    H299930   0.293   0.392   7.338
16488TIP3   OH299931   0.810   0.108   7.120
16488TIP3    H199932   0.842   0.035   7.174
16488TIP3    H299933   0.808   0.073   7.031
16489TIP3   OH299934   0.841   0.276   7.342
16489TIP3    H199935   0.821   0.224   7.265
16489TIP3    H299936   0.757   0.310   7.372
16490TIP3   OH299937   0.763   1.876   5.604
16490TIP3    H199938   0.858   1.879   5.621
16490TIP3    H299939   0.755   1.891   5.510
16491TIP3   OH299940   0.159   1.416   5.653
16491TIP3    H199941   0.252   1.395   5.638
16491TIP3    H299942   0.112   1.351   5.601
16492TIP3   OH299943   0.019   1.843   6.136
16492TIP3    H199944   8.072   1.818   6.120
16492TIP3    H299945   0.049   1.780   6.202
16493TIP3   OH299946   0.114   1.655   6.311
16493TIP3    H199947   0.092   1.578   6.363
16493TIP3    H299948   0.164   1.711   6.370
16494TIP3   OH299949   1.830   1.740   6.638
16494TIP3    H199950   1.830   1.701   6.726
16494TIP3    H299951   1.874   1.824   6.650
16495TIP3   OH299952   1.817   1.657   6.900
16495TIP3    H199953   1.761   1.584   6.874
16495TIP3    H299954   1.856   1.629   6.982
16496TIP3   OH299955   1.684   1.328   7.420
16496TIP3    H199956   1.596   1.328   7.458
16496TIP3    H299957   1.735   1.385   7.477
16497TIP3   OH299958   1.827   1.104   5.916
16497TIP3    H199959   1.895   1.170   5.927
16497TIP3    H299960   1.838   1.045   5.989
16498TIP3   OH299961   1.845   0.913   6.111
16498TIP3    H199962   1.760   0.889   6.148
16498TIP3    H299963   1.900   0.932   6.188
16499TIP3   OH299964   1.820   1.232   6.607
16499TIP3    H199965   1.883   1.168   6.576
16499TIP3    H299966   1.855   1.316   6.578
16500TIP3   OH299967   1.629   1.489   6.793
16500TIP3    H199968   1.558   1.533   6.840
16500TIP3    H299969   1.592   1.470   6.707
16501TIP3   OH299970   1.839   0.939   5.696
16501TIP3    H199971   1.798   0.996   5.632
16501TIP3    H299972   1.837   0.989   5.778
16502TIP3   OH299973   1.594   0.690   5.499
16502TIP3    H199974   1.626   0.683   5.409
16502TIP3    H299975   1.588   0.599   5.529
16503TIP3   OH299976   1.579   0.808   6.152
16503TIP3    H199977   1.582   0.715   6.127
16503TIP3    H299978   1.534   0.809   6.236
16504TIP3   OH299979   0.052   0.944   6.534
16504TIP3    H199980   0.111   0.995   6.479
16504TIP3    H299981   0.106   0.916   6.608
16505TIP3   OH299982   1.727   0.973   7.113
16505TIP3    H199983   1.736   0.883   7.146
16505TIP3    H299984   1.678   1.019   7.181
16506TIP3   OH299985   1.805   0.727   7.216
16506TIP3    H199986   1.727   0.673   7.208
16506TIP3    H299987   1.817   0.738   7.310
16507TIP3   OH299988   1.549   0.438   5.587
16507TIP3    H199989   1.624   0.379   5.599
16507TIP3    H299990   1.479   0.397   5.636
16508TIP3   OH299991   1.561   0.566   5.953
16508TIP3    H199992   1.594   0.477   5.960
16508TIP3    H299993   1.625   0.611   5.897
16509TIP3   OH299994   1.588   0.624   6.544
16509TIP3    H199995   1.680   0.638   6.522
16509TIP3    H299996   1.585   0.626   6.640
16510TIP3   OH299997   1.619   0.682   6.821
16510TIP3    H199998   1.545   0.716   6.872
16510TIP3    H299999   1.670   0.760   6.798
16511TIP3   OH2    0   0.055   0.509   7.094
16511TIP3    H1    1   0.119   0.486   7.161
16511TIP3    H2    2   8.130   0.556   7.141
16512TIP3   OH2    3   1.910   0.079   7.325
16512TIP3    H1    4   1.960   0.016   7.377
16512TIP3    H2    5   1.890   0.150   7.385
16513TIP3   OH2    6   1.642   0.305   5.978
16513TIP3    H1    7   1.660   0.271   6.065
16513TIP3    H2    8   1.649   0.228   5.920
16514TIP3   OH2    9   0.148   0.412   6.458
16514TIP3    H1   10   0.178   0.321   6.459
16514TIP3    H2   11   0.219   0.461   6.501
16515TIP3   OH2   12   8.121   0.711   6.394
16515TIP3    H1   13   0.069   0.693   6.373
16515TIP3    H2   14   8.124   0.787   6.453
16516TIP3   OH2   15   1.764   0.276   7.179
16516TIP3    H1   16   1.705   0.315   7.244
16516TIP3    H2   17   1.816   0.213   7.229
16517TIP3   OH2   18   1.779   0.284   5.634
16517TIP3    H1   19   1.844   0.227   5.592
16517TIP3    H2   20   1.832   0.351   5.679
16518TIP3   OH2   21   0.089   0.267   5.961
16518TIP3    H1   22   8.142   0.280   5.989
16518TIP3    H2   23   0.114   0.351   5.922
16519TIP3   OH2   24   1.489   1.795   6.169
16519TIP3    H1   25   1.568   1.796   6.115
16519TIP3    H2   26   1.508   1.856   6.240
16520TIP3   OH2   27   8.086   0.063   6.741
16520TIP3    H1   28   0.002   0.040   6.812
16520TIP3    H2   29   8.063   0.155   6.757
16521TIP3   OH2   30   0.246   1.530   7.273
16521TIP3    H1   31   0.182   1.460   7.262
16521TIP3    H2   32   0.295   1.506   7.351
16522TIP3   OH2   33   0.559   1.608   6.846
16522TIP3    H1   34   0.539   1.700   6.826
16522TIP3    H2   35   0.654   1.601   6.836
16523TIP3   OH2   36   0.951   1.726   7.142
16523TIP3    H1   37   0.953   1.691   7.232
16523TIP3    H2   38   1.038   1.763   7.129
16524TIP3   OH2   39   1.200   1.832   7.083
16524TIP3    H1   40   1.240   1.747   7.097
16524TIP3    H2   41   1.245   1.891   7.144
16525TIP3   OH2   42   1.724   0.129   6.944
16525TIP3    H1   43   1.648   0.183   6.920
16525TIP3    H2   44   1.753   0.165   7.028
16526TIP3   OH2   45   0.284   1.941   6.883
16526TIP3    H1   46   0.199   1.975   6.856
16526TIP3    H2   47   0.287   1.956   6.977
16527TIP3   OH2   48   0.527   1.872   6.779
16527TIP3    H1   49   0.442   1.900   6.814
16527TIP3    H2   50   0.533   1.917   6.694
16528TIP3   OH2   51   0.970   1.849   6.684
16528TIP3    H1   52   0.919   1.895   6.618
16528TIP3    H2   53   0.986   1.914   6.753
16529TIP3   OH2   54   1.214   1.722   6.711
16529TIP3    H1   55   1.129   1.767   6.708
16529TIP3    H2   56   1.276   1.791   6.736
16530TIP3   OH2   57   1.457   1.867   6.755
16530TIP3    H1   58   1.476   1.954   6.723
16530TIP3    H2   59   1.490   1.808   6.687
16531TIP3   OH2   60   0.268   1.760   6.516
16531TIP3    H1   61   0.241   1.729   6.603
16531TIP3    H2   62   0.340   1.702   6.491
16532TIP3   OH2   63   0.465   1.595   6.409
16532TIP3    H1   64   0.445   1.506   6.438
16532TIP3    H2   65   0.548   1.617   6.452
16533TIP3   OH2   66   0.713   1.648   6.522
16533TIP3    H1   67   0.740   1.563   6.488
16533TIP3    H2   68   0.743   1.648   6.613
16534TIP3   OH2   69   0.977   0.219   6.323
16534TIP3    H1   70   0.919   0.165   6.377
16534TIP3    H2   71   1.065   0.190   6.346
16535TIP3   OH2   72   1.481   0.116   6.293
16535TIP3    H1   73   1.555   0.163   6.256
16535TIP3    H2   74   1.516   0.073   6.371
16536TIP3   OH2   75   1.743   0.194   6.208
16536TIP3    H1   76   1.771   0.122   6.265
16536TIP3    H2   77   1.803   0.265   6.229
16537TIP3   OH2   78   0.259   0.134   6.135
16537TIP3    H1   79   0.198   0.166   6.069
16537TIP3    H2   80   0.280   0.045   6.108
16538TIP3   OH2   81   0.140   0.109   5.738
16538TIP3    H1   82   0.220   0.147   5.703
16538TIP3    H2   83   0.130   0.148   5.825
16539TIP3   OH2   84   0.708   0.161   6.175
16539TIP3    H1   85   0.794   0.162   6.133
16539TIP3    H2   86   0.723   0.124   6.261
16540TIP3   OH2   87   1.218   0.085   6.368
16540TIP3    H1   88   1.304   0.099   6.328
16540TIP3    H2   89   1.221   8.139   6.400
16541TIP3   OH2   90   1.375   0.061   5.828
16541TIP3    H1   91   1.327   0.129   5.875
16541TIP3    H2   92   1.423   0.014   5.896
16542TIP3   OH2   93   0.133   1.681   5.829
16542TIP3    H1   94   0.146   1.630   5.749
16542TIP3    H2   95   0.145   1.772   5.801
16543TIP3   OH2   96   0.362   0.248   5.657
16543TIP3    H1   97   0.379   0.277   5.567
16543TIP3    H2   98   0.440   0.275   5.706
16544TIP3   OH2   99   0.864   0.334   5.863
16544TIP3    H1  100   0.904   0.264   5.914
16544TIP3    H2  101   0.865   0.410   5.921
16545TIP3   OH2  102   1.041   1.840   5.641
16545TIP3    H1  103   1.136   1.835   5.644
16545TIP3    H2  104   1.013   1.764   5.590
16546TIP3   OH2  105   1.698   1.779   5.985
16546TIP3    H1  106   1.672   1.690   5.963
16546TIP3    H2  107   1.688   1.828   5.903
16547TIP3   OH2  108   0.281   0.162   7.097
16547TIP3    H1  109   0.219   0.089   7.101
16547TIP3    H2  110   0.358   0.131   7.143
16548TIP3   OH2  111   0.465   0.025   7.252
16548TIP3    H1  112   0.495   0.057   7.337
16548TIP3    H2  113   0.433   8.081   7.268
16549TIP3   OH2  114   0.291   1.823   5.521
16549TIP3    H1  115   0.238   1.855   5.594
16549TIP3    H2  116   0.377   1.805   5.560
16550TIP3   OH2  117   1.357   0.038   7.324
16550TIP3    H1  118   1.337   8.102   7.372
16550TIP3    H2  119   1.450   0.054   7.341
16551TIP3   OH2  120   1.623   1.650   7.156
16551TIP3    H1  121   1.557   1.631   7.089
16551TIP3    H2  122   1.594   1.732   7.197
16552TIP3   OH2  123   3.083   1.034   6.111
16552TIP3    H1  124   3.073   1.129   6.098
16552TIP3    H2  125   3.044   1.018   6.196
16553TIP3   OH2  126   2.969   0.958   6.532
16553TIP3    H1  127   2.990   0.927   6.619
16553TIP3    H2  128   2.918   0.887   6.492
16554TIP3   OH2  129   2.151   0.864   6.728
16554TIP3    H1  130   2.140   0.783   6.777
16554TIP3    H2  131   2.204   0.920   6.785
16555TIP3   OH2  132   3.355   1.265   6.352
16555TIP3    H1  133   3.321   1.188   6.398
16555TIP3    H2  134   3.375   1.327   6.422
16556TIP3   OH2  135   2.363   1.324   6.468
16556TIP3    H1  136   2.318   1.245   6.438
16556TIP3    H2  137   2.365   1.315   6.564
16557TIP3   OH2  138   1.954   0.662   6.032
16557TIP3    H1  139   1.925   0.752   6.046
16557TIP3    H2  140   1.908   0.611   6.099
16558TIP3   OH2  141   2.038   0.949   6.309
16558TIP3    H1  142   2.064   0.859   6.327
16558TIP3    H2  143   2.119   0.999   6.319
16559TIP3   OH2  144   3.084   1.726   6.405
16559TIP3    H1  145   3.118   1.665   6.340
16559TIP3    H2  146   3.072   1.672   6.484
16560TIP3   OH2  147   2.824   1.205   6.569
16560TIP3    H1  148   2.859   1.121   6.538
16560TIP3    H2  149   2.889   1.237   6.631
16561TIP3   OH2  150   3.697   0.356   6.645
16561TIP3    H1  151   3.687   0.409   6.724
16561TIP3    H2  152   3.754   0.409   6.588
16562TIP3   OH2  153   3.116   0.621   6.562
16562TIP3    H1  154   3.111   0.546   6.620
16562TIP3    H2  155   3.087   0.589   6.476
16563TIP3   OH2  156   2.460   0.464   6.326
16563TIP3    H1  157   2.471   0.544   6.276
16563TIP3    H2  158   2.419   0.402   6.264
16564TIP3   OH2  159   3.250   0.465   6.147
16564TIP3    H1  160   3.291   0.435   6.229
16564TIP3    H2  161   3.323   0.502   6.097
16565TIP3   OH2  162   2.105   0.690   6.362
16565TIP3    H1  163   2.162   0.654   6.430
16565TIP3    H2  164   2.135   0.649   6.281
16566TIP3   OH2  165   2.611   0.847   6.318
16566TIP3    H1  166   2.689   0.806   6.356
16566TIP3    H2  167   2.567   0.777   6.271
16567TIP3   OH2  168   3.654   0.490   6.883
16567TIP3    H1  169   3.600   0.567   6.868
16567TIP3    H2  170   3.708   0.513   6.959
16568TIP3   OH2  171   2.321   0.356   6.715
16568TIP3    H1  172   2.293   0.429   6.660
16568TIP3    H2  173   2.254   0.350   6.783
16569TIP3   OH2  174   3.072   1.299   6.032
16569TIP3    H1  175   3.053   1.292   5.938
16569TIP3    H2  176   3.022   1.376   6.061
16570TIP3   OH2  177   2.593   1.120   6.703
16570TIP3    H1  178   2.535   1.190   6.732
16570TIP3    H2  179   2.670   1.165   6.669
16571TIP3   OH2  180   3.367   0.409   6.382
16571TIP3    H1  181   3.288   0.379   6.427
16571TIP3    H2  182   3.412   0.464   6.445
16572TIP3   OH2  183   2.282   0.545   6.518
16572TIP3    H1  184   2.333   0.604   6.573
16572TIP3    H2  185   2.346   0.507   6.457
16573TIP3   OH2  186   2.399   1.324   6.740
16573TIP3    H1  187   2.429   1.412   6.759
16573TIP3    H2  188   2.322   1.312   6.796
16574TIP3   OH2  189   2.027   1.294   5.906
16574TIP3    H1  190   2.029   1.339   5.822
16574TIP3    H2  191   2.047   1.361   5.971
16575TIP3   OH2  192   3.383   1.465   6.549
16575TIP3    H1  193   3.289   1.463   6.567
16575TIP3    H2  194   3.402   1.556   6.526
16576TIP3   OH2  195   3.449   0.222   6.618
16576TIP3    H1  196   3.412   0.246   6.703
16576TIP3    H2  197   3.529   0.275   6.611
16577TIP3   OH2  198   2.659   0.073   6.440
16577TIP3    H1  199   2.697   0.020   6.510
16577TIP3    H2  200   2.577   0.105   6.476
16578TIP3   OH2  201   3.203   1.607   6.170
16578TIP3    H1  202   3.255   1.527   6.159
16578TIP3    H2  203   3.268   1.676   6.184
16579TIP3   OH2  204   3.336   1.373   6.100
16579TIP3    H1  205   3.253   1.332   6.074
16579TIP3    H2  206   3.358   1.332   6.183
16580TIP3   OH2  207   3.483   1.255   6.914
16580TIP3    H1  208   3.477   1.195   6.840
16580TIP3    H2  209   3.496   1.341   6.874
16581TIP3   OH2  210   2.936   0.893   5.823
16581TIP3    H1  211   2.892   0.975   5.845
16581TIP3    H2  212   3.029   0.915   5.825
16582TIP3   OH2  213   2.944   0.802   5.556
16582TIP3    H1  214   2.944   0.825   5.648
16582TIP3    H2  215   3.025   0.752   5.543
16583TIP3   OH2  216   3.649   0.895   6.712
16583TIP3    H1  217   3.578   0.961   6.713
16583TIP3    H2  218   3.721   0.939   6.667
16584TIP3   OH2  219   3.322   0.977   5.991
16584TIP3    H1  220   3.241   0.996   6.039
16584TIP3    H2  221   3.377   0.930   6.054
16585TIP3   OH2  222   3.256   0.774   6.945
16585TIP3    H1  223   3.255   0.830   7.022
16585TIP3    H2  224   3.185   0.807   6.890
16586TIP3   OH2  225   2.479   1.035   6.161
16586TIP3    H1  226   2.458   0.984   6.083
16586TIP3    H2  227   2.532   0.977   6.215
16587TIP3   OH2  228   2.635   1.388   6.424
16587TIP3    H1  229   2.551   1.347   6.444
16587TIP3    H2  230   2.700   1.329   6.465
16588TIP3   OH2  231   2.463   0.943   6.536
16588TIP3    H1  232   2.529   0.917   6.471
16588TIP3    H2  233   2.510   1.000   6.597
16589TIP3   OH2  234   3.122   1.463   6.621
16589TIP3    H1  235   3.096   1.539   6.673
16589TIP3    H2  236   3.085   1.388   6.667
16590TIP3   OH2  237   2.619   1.377   7.020
16590TIP3    H1  238   2.532   1.412   7.042
16590TIP3    H2  239   2.628   1.298   7.073
16591TIP3   OH2  240   3.212   0.863   5.769
16591TIP3    H1  241   3.261   0.908   5.837
16591TIP3    H2  242   3.255   0.887   5.687
16592TIP3   OH2  243   2.253   0.981   6.961
16592TIP3    H1  244   2.275   1.061   7.008
16592TIP3    H2  245   2.165   0.959   6.990
16593TIP3   OH2  246   2.957   1.551   6.067
16593TIP3    H1  247   3.039   1.575   6.109
16593TIP3    H2  248   2.892   1.611   6.104
16594TIP3   OH2  249   2.373   1.480   7.069
16594TIP3    H1  250   2.352   1.541   6.999
16594TIP3    H2  251   2.304   1.495   7.134
16595TIP3   OH2  252   3.504   0.043   5.757
16595TIP3    H1  253   3.421   0.080   5.788
16595TIP3    H2  254   3.556   0.120   5.733
16596TIP3   OH2  255   2.394   0.930   5.903
16596TIP3    H1  256   2.319   0.985   5.877
16596TIP3    H2  257   2.355   0.845   5.923
16597TIP3   OH2  258   3.657   1.509   5.591
16597TIP3    H1  259   3.676   1.599   5.618
16597TIP3    H2  260   3.737   1.460   5.612
16598TIP3   OH2  261   1.953   1.176   6.862
16598TIP3    H1  262   1.898   1.180   6.783
16598TIP3    H2  263   1.960   1.083   6.882
16599TIP3   OH2  264   1.927   1.489   6.548
16599TIP3    H1  265   2.002   1.494   6.607
16599TIP3    H2  266   1.873   1.565   6.571
16600TIP3   OH2  267   3.726   1.510   7.133
16600TIP3    H1  268   3.713   1.415   7.139
16600TIP3    H2  269   3.648   1.548   7.172
16601TIP3   OH2  270   2.841   1.519   6.975
16601TIP3    H1  271   2.841   1.593   7.035
16601TIP3    H2  272   2.757   1.476   6.990
16602TIP3   OH2  273   2.921   1.824   5.919
16602TIP3    H1  274   2.900   1.836   5.826
16602TIP3    H2  275   2.893   1.906   5.960
16603TIP3   OH2  276   2.273   1.691   6.165
16603TIP3    H1  277   2.303   1.657   6.249
16603TIP3    H2  278   2.223   1.619   6.127
16604TIP3   OH2  279   3.192   1.744   5.634
16604TIP3    H1  280   3.253   1.676   5.608
16604TIP3    H2  281   3.198   1.747   5.729
16605TIP3   OH2  282   3.186   1.755   5.914
16605TIP3    H1  283   3.092   1.770   5.925
16605TIP3    H2  284   3.211   1.703   5.990
16606TIP3   OH2  285   3.437   0.620   7.194
16606TIP3    H1  286   3.349   0.647   7.220
16606TIP3    H2  287   3.450   0.535   7.237
16607TIP3   OH2  288   2.164   1.350   6.889
16607TIP3    H1  289   2.202   1.327   6.973
16607TIP3    H2  290   2.089   1.292   6.879
16608TIP3   OH2  291   2.430   0.144   6.579
16608TIP3    H1  292   2.381   0.223   6.600
16608TIP3    H2  293   2.477   0.122   6.659
16609TIP3   OH2  294   2.961   0.216   6.897
16609TIP3    H1  295   2.966   0.260   6.982
16609TIP3    H2  296   2.922   0.131   6.917
16610TIP3   OH2  297   3.218   0.493   6.956
16610TIP3    H1  298   3.157   0.470   7.026
16610TIP3    H2  299   3.237   0.586   6.970
16611TIP3   OH2  300   3.325   0.900   5.516
16611TIP3    H1  301   3.297   0.928   5.430
16611TIP3    H2  302   3.411   0.940   5.528
16612TIP3   OH2  303   2.929   0.318   5.621
16612TIP3    H1  304   2.866   0.335   5.691
16612TIP3    H2  305   2.945   0.224   5.625
16613TIP3   OH2  306   2.446   0.699   6.668
16613TIP3    H1  307   2.433   0.714   6.761
16613TIP3    H2  308   2.444   0.786   6.629
16614TIP3   OH2  309   2.456   0.681   6.155
16614TIP3    H1  310   2.361   0.664   6.156
16614TIP3    H2  311   2.483   0.653   6.067
16615TIP3   OH2  312   2.985   0.694   6.024
16615TIP3    H1  313   2.961   0.773   5.975
16615TIP3    H2  314   3.062   0.659   5.977
16616TIP3   OH2  315   2.930   0.708   7.164
16616TIP3    H1  316   2.878   0.640   7.207
16616TIP3    H2  317   3.016   0.702   7.204
16617TIP3   OH2  318   3.039   0.601   6.288
16617TIP3    H1  319   3.010   0.647   6.209
16617TIP3    H2  320   3.108   0.542   6.258
16618TIP3   OH2  321   2.148   0.649   6.911
16618TIP3    H1  322   2.229   0.657   6.961
16618TIP3    H2  323   2.137   0.554   6.898
16619TIP3   OH2  324   2.447   0.410   5.493
16619TIP3    H1  325   2.480   0.372   5.575
16619TIP3    H2  326   2.460   0.504   5.503
16620TIP3   OH2  327   1.947   0.377   6.232
16620TIP3    H1  328   1.954   0.412   6.321
16620TIP3    H2  329   2.024   0.321   6.223
16621TIP3   OH2  330   1.932   0.475   5.767
16621TIP3    H1  331   2.003   0.521   5.723
16621TIP3    H2  332   1.875   0.545   5.801
16622TIP3   OH2  333   3.045   0.807   6.754
16622TIP3    H1  334   3.078   0.745   6.689
16622TIP3    H2  335   2.984   0.755   6.807
16623TIP3   OH2  336   2.727   0.423   6.245
16623TIP3    H1  337   2.649   0.430   6.300
16623TIP3    H2  338   2.787   0.367   6.295
16624TIP3   OH2  339   2.204   0.578   6.126
16624TIP3    H1  340   2.125   0.596   6.074
16624TIP3    H2  341   2.230   0.490   6.099
16625TIP3   OH2  342   2.506   0.593   5.896
16625TIP3    H1  343   2.600   0.586   5.917
16625TIP3    H2  344   2.504   0.623   5.805
16626TIP3   OH2  345   3.119   0.334   6.470
16626TIP3    H1  346   3.109   0.341   6.565
16626TIP3    H2  347   3.033   0.304   6.439
16627TIP3   OH2  348   2.479   0.663   5.628
16627TIP3    H1  349   2.406   0.691   5.573
16627TIP3    H2  350   2.552   0.718   5.600
16628TIP3   OH2  351   3.472   1.923   7.293
16628TIP3    H1  352   3.448   2.012   7.269
16628TIP3    H2  353   3.565   1.929   7.315
16629TIP3   OH2  354   2.246   1.206   7.119
16629TIP3    H1  355   2.295   1.272   7.169
16629TIP3    H2  356   2.172   1.184   7.176
16630TIP3   OH2  357   2.829   0.726   6.440
16630TIP3    H1  358   2.896   0.670   6.400
16630TIP3    H2  359   2.801   0.678   6.518
16631TIP3   OH2  360   2.357   0.302   6.128
16631TIP3    H1  361   2.280   0.245   6.123
16631TIP3    H2  362   2.431   0.242   6.138
16632TIP3   OH2  363   2.728   0.609   6.674
16632TIP3    H1  364   2.646   0.655   6.688
16632TIP3    H2  365   2.778   0.623   6.754
16633TIP3   OH2  366   2.777   1.134   5.833
16633TIP3    H1  367   2.708   1.100   5.777
16633TIP3    H2  368   2.731   1.172   5.908
16634TIP3   OH2  369   3.467   1.104   6.683
16634TIP3    H1  370   3.530   1.160   6.637
16634TIP3    H2  371   3.397   1.090   6.620
16635TIP3   OH2  372   3.187   0.438   5.636
16635TIP3    H1  373   3.101   0.397   5.628
16635TIP3    H2  374   3.185   0.483   5.720
16636TIP3   OH2  375   2.890   1.238   6.991
16636TIP3    H1  376   2.832   1.197   7.055
16636TIP3    H2  377   2.863   1.330   6.991
16637TIP3   OH2  378   3.196   0.602   5.858
16637TIP3    H1  379   3.280   0.589   5.901
16637TIP3    H2  380   3.200   0.691   5.824
16638TIP3   OH2  381   2.284   1.067   6.366
16638TIP3    H1  382   2.346   1.068   6.294
16638TIP3    H2  383   2.330   1.019   6.436
16639TIP3   OH2  384   2.988   1.295   5.764
16639TIP3    H1  385   2.948   1.382   5.775
16639TIP3    H2  386   2.918   1.234   5.789
16640TIP3   OH2  387   1.993   0.939   7.053
16640TIP3    H1  388   2.018   0.995   7.126
16640TIP3    H2  389   1.897   0.945   7.049
16641TIP3   OH2  390   2.721   0.884   7.126
16641TIP3    H1  391   2.658   0.833   7.176
16641TIP3    H2  392   2.804   0.839   7.138
16642TIP3   OH2  393   3.122   1.476   7.004
16642TIP3    H1  394   3.029   1.483   6.982
16642TIP3    H2  395   3.123   1.472   7.100
16643TIP3   OH2  396   3.659   0.679   5.793
16643TIP3    H1  397   3.624   0.656   5.707
16643TIP3    H2  398   3.683   0.771   5.786
16644TIP3   OH2  399   3.699   1.226   7.078
16644TIP3    H1  400   3.613   1.241   7.039
16644TIP3    H2  401   3.758   1.216   7.004
16645TIP3   OH2  402   3.496   1.517   5.914
16645TIP3    H1  403   3.447   1.469   5.981
16645TIP3    H2  404   3.507   1.454   5.843
16646TIP3   OH2  405   3.261   1.038   6.494
16646TIP3    H1  406   3.168   1.031   6.515
16646TIP3    H2  407   3.287   0.950   6.466
16647TIP3   OH2  408   2.551   1.475   6.143
16647TIP3    H1  409   2.547   1.569   6.127
16647TIP3    H2  410   2.566   1.467   6.237
16648TIP3   OH2  411   2.097   0.923   5.594
16648TIP3    H1  412   2.143   0.979   5.656
16648TIP3    H2  413   2.007   0.922   5.626
16649TIP3   OH2  414   2.593   1.244   6.007
16649TIP3    H1  415   2.581   1.325   6.057
16649TIP3    H2  416   2.554   1.176   6.063
16650TIP3   OH2  417   2.732   1.635   6.747
16650TIP3    H1  418   2.784   1.714   6.735
16650TIP3    H2  419   2.777   1.587   6.816
16651TIP3   OH2  420   2.518   1.749   6.051
16651TIP3    H1  421   2.429   1.735   6.082
16651TIP3    H2  422   2.545   1.832   6.090
16652TIP3   OH2  423   3.030   1.236   6.759
16652TIP3    H1  424   2.975   1.233   6.837
16652TIP3    H2  425   3.108   1.186   6.784
16653TIP3   OH2  426   3.259   1.322   5.670
16653TIP3    H1  427   3.319   1.268   5.721
16653TIP3    H2  428   3.174   1.312   5.713
16654TIP3   OH2  429   3.301   1.683   6.971
16654TIP3    H1  430   3.233   1.616   6.965
16654TIP3    H2  431   3.292   1.734   6.890
16655TIP3   OH2  432   3.722   1.769   5.668
16655TIP3    H1  433   3.783   1.838   5.641
16655TIP3    H2  434   3.641   1.815   5.689
16656TIP3   OH2  435   2.119   0.365   6.904
16656TIP3    H1  436   2.025   0.375   6.921
16656TIP3    H2  437   2.146   0.294   6.962
16657TIP3   OH2  438   3.430   1.169   5.824
16657TIP3    H1  439   3.385   1.112   5.885
16657TIP3    H2  440   3.522   1.164   5.851
16658TIP3   OH2  441   2.110   1.584   6.742
16658TIP3    H1  442   2.137   1.505   6.789
16658TIP3    H2  443   2.110   1.653   6.809
16659TIP3   OH2  444   2.686   1.380   5.510
16659TIP3    H1  445   2.774   1.342   5.516
16659TIP3    H2  446   2.654   1.383   5.600
16660TIP3   OH2  447   2.556   1.392   5.761
16660TIP3    H1  448   2.569   1.343   5.843
16660TIP3    H2  449   2.574   1.483   5.785
16661TIP3   OH2  450   2.196   1.098   5.791
16661TIP3    H1  451   2.136   1.144   5.850
16661TIP3    H2  452   2.244   1.168   5.747
16662TIP3   OH2  453   3.089   0.395   6.734
16662TIP3    H1  454   3.143   0.432   6.804
16662TIP3    H2  455   3.036   0.328   6.777
16663TIP3   OH2  456   3.097   0.324   5.972
16663TIP3    H1  457   3.078   0.402   5.920
16663TIP3    H2  458   3.147   0.356   6.047
16664TIP3   OH2  459   2.868   1.535   5.800
16664TIP3    H1  460   2.784   1.580   5.797
16664TIP3    H2  461   2.903   1.556   5.887
16665TIP3   OH2  462   2.757   0.544   6.003
16665TIP3    H1  463   2.833   0.601   6.015
16665TIP3    H2  464   2.742   0.505   6.089
16666TIP3   OH2  465   2.896   0.623   6.902
16666TIP3    H1  466   2.899   0.662   6.989
16666TIP3    H2  467   2.913   0.530   6.917
16667TIP3   OH2  468   2.872   0.185   6.065
16667TIP3    H1  469   2.874   0.198   6.160
16667TIP3    H2  470   2.955   0.222   6.034
16668TIP3   OH2  471   2.619   1.660   5.806
16668TIP3    H1  472   2.613   1.735   5.746
16668TIP3    H2  473   2.585   1.694   5.889
16669TIP3   OH2  474   2.498   0.341   5.761
16669TIP3    H1  475   2.477   0.412   5.820
16669TIP3    H2  476   2.587   0.315   5.785
16670TIP3   OH2  477   3.425   0.325   6.882
16670TIP3    H1  478   3.352   0.377   6.913
16670TIP3    H2  479   3.501   0.383   6.889
16671TIP3   OH2  480   3.316   0.771   6.414
16671TIP3    H1  481   3.232   0.736   6.446
16671TIP3    H2  482   3.382   0.717   6.458
16672TIP3   OH2  483   2.303   1.319   5.654
16672TIP3    H1  484   2.372   1.361   5.704
16672TIP3    H2  485   2.349   1.274   5.583
16673TIP3   OH2  486   2.089   0.642   5.609
16673TIP3    H1  487   2.104   0.736   5.619
16673TIP3    H2  488   2.073   0.630   5.515
16674TIP3   OH2  489   3.459   1.731   6.526
16674TIP3    H1  490   3.452   1.807   6.467
16674TIP3    H2  491   3.549   1.735   6.558
16675TIP3   OH2  492   2.130   0.167   6.390
16675TIP3    H1  493   2.141   0.143   6.298
16675TIP3    H2  494   2.162   0.091   6.439
16676TIP3   OH2  495   2.065   1.524   6.060
16676TIP3    H1  496   2.025   1.553   6.142
16676TIP3    H2  497   2.044   1.593   5.997
16677TIP3   OH2  498   2.058   1.777   7.235
16677TIP3    H1  499   2.131   1.740   7.285
16677TIP3    H2  500   2.009   1.701   7.204
16678TIP3   OH2  501   2.868   1.612   5.478
16678TIP3    H1  502   2.789   1.558   5.479
16678TIP3    H2  503   2.934   1.559   5.524
16679TIP3   OH2  504   3.130   1.470   7.283
16679TIP3    H1  505   3.086   1.404   7.335
16679TIP3    H2  506   3.207   1.495   7.334
16680TIP3   OH2  507   3.362   1.541   5.542
16680TIP3    H1  508   3.327   1.465   5.587
16680TIP3    H2  509   3.457   1.534   5.553
16681TIP3   OH2  510   2.017   1.127   7.255
16681TIP3    H1  511   2.023   1.095   7.345
16681TIP3    H2  512   1.940   1.183   7.254
16682TIP3   OH2  513   2.470   1.192   5.480
16682TIP3    H1  514   2.500   1.130   5.546
16682TIP3    H2  515   2.545   1.251   5.467
16683TIP3   OH2  516   2.692   1.157   7.174
16683TIP3    H1  517   2.670   1.168   7.267
16683TIP3    H2  518   2.698   1.062   7.163
16684TIP3   OH2  519   2.960   1.285   5.492
16684TIP3    H1  520   2.986   1.288   5.584
16684TIP3    H2  521   2.965   1.193   5.468
16685TIP3   OH2  522   3.223   1.194   6.983
16685TIP3    H1  523   3.314   1.223   6.969
16685TIP3    H2  524   3.174   1.276   6.994
16686TIP3   OH2  525   2.105   0.813   7.318
16686TIP3    H1  526   2.150   0.753   7.378
16686TIP3    H2  527   2.088   0.891   7.372
16687TIP3   OH2  528   2.560   1.026   5.693
16687TIP3    H1  529   2.511   0.990   5.767
16687TIP3    H2  530   2.595   0.949   5.648
16688TIP3   OH2  531   2.431   0.772   6.933
16688TIP3    H1  532   2.373   0.844   6.954
16688TIP3    H2  533   2.514   0.814   6.909
16689TIP3   OH2  534   2.671   0.830   5.532
16689TIP3    H1  535   2.659   0.829   5.437
16689TIP3    H2  536   2.765   0.818   5.545
16690TIP3   OH2  537   2.983   1.060   7.366
16690TIP3    H1  538   3.035   1.044   7.288
16690TIP3    H2  539   2.970   0.973   7.404
16691TIP3   OH2  540   3.562   1.046   5.506
16691TIP3    H1  541   3.571   1.021   5.414
16691TIP3    H2  542   3.543   1.140   5.503
16692TIP3   OH2  543   2.561   0.564   7.066
16692TIP3    H1  544   2.567   0.495   6.999
16692TIP3    H2  545   2.515   0.635   7.022
16693TIP3   OH2  546   2.570   0.409   6.835
16693TIP3    H1  547   2.624   0.445   6.764
16693TIP3    H2  548   2.487   0.385   6.792
16694TIP3   OH2  549   2.659   0.887   6.846
16694TIP3    H1  550   2.703   0.904   6.930
16694TIP3    H2  551   2.650   0.974   6.806
16695TIP3   OH2  552   3.170   0.667   7.304
16695TIP3    H1  553   3.152   0.590   7.358
16695TIP3    H2  554   3.150   0.741   7.362
16696TIP3   OH2  555   3.281   0.977   7.143
16696TIP3    H1  556   3.253   1.050   7.088
16696TIP3    H2  557   3.376   0.976   7.136
16697TIP3   OH2  558   2.269   0.609   7.155
16697TIP3    H1  559   2.244   0.524   7.192
16697TIP3    H2  560   2.363   0.617   7.173
16698TIP3   OH2  561   2.558   0.110   6.813
16698TIP3    H1  562   2.578   0.185   6.869
16698TIP3    H2  563   2.522   0.045   6.872
16699TIP3   OH2  564   2.773   0.489   7.231
16699TIP3    H1  565   2.736   0.460   7.315
16699TIP3    H2  566   2.697   0.510   7.177
16700TIP3   OH2  567   3.011   0.385   7.120
16700TIP3    H1  568   2.932   0.413   7.167
16700TIP3    H2  569   3.071   0.356   7.188
16701TIP3   OH2  570   3.203   0.308   7.314
16701TIP3    H1  571   3.205   0.215   7.339
16701TIP3    H2  572   3.165   0.353   7.389
16702TIP3   OH2  573   2.168   0.374   7.245
16702TIP3    H1  574   2.170   0.285   7.209
16702TIP3    H2  575   2.194   0.363   7.336
16703TIP3   OH2  576   2.637   0.100   7.108
16703TIP3    H1  577   2.656   0.134   7.195
16703TIP3    H2  578   2.712   0.045   7.087
16704TIP3   OH2  579   2.706   0.170   7.371
16704TIP3    H1  580   2.639   0.238   7.376
16704TIP3    H2  581   2.755   0.178   7.452
16705TIP3   OH2  582   2.648   1.866   5.614
16705TIP3    H1  583   2.742   1.874   5.632
16705TIP3    H2  584   2.640   1.882   5.520
16706TIP3   OH2  585   2.029   1.366   5.627
16706TIP3    H1  586   2.124   1.358   5.637
16706TIP3    H2  587   2.013   1.350   5.534
16707TIP3   OH2  588   1.899   1.856   6.161
16707TIP3    H1  589   1.835   1.826   6.096
16707TIP3    H2  590   1.918   1.778   6.213
16708TIP3   OH2  591   1.978   1.634   6.307
16708TIP3    H1  592   1.940   1.562   6.359
16708TIP3    H2  593   2.038   1.678   6.367
16709TIP3   OH2  594   3.706   1.745   6.651
16709TIP3    H1  595   3.693   1.717   6.741
16709TIP3    H2  596   3.748   1.831   6.659
16710TIP3   OH2  597   3.659   1.687   6.918
16710TIP3    H1  598   3.599   1.620   6.887
16710TIP3    H2  599   3.706   1.646   6.991
16711TIP3   OH2  600   3.554   1.332   7.344
16711TIP3    H1  601   3.460   1.353   7.345
16711TIP3    H2  602   3.592   1.387   7.412
16712TIP3   OH2  603   3.691   1.116   5.915
16712TIP3    H1  604   3.760   1.180   5.930
16712TIP3    H2  605   3.697   1.056   5.990
16713TIP3   OH2  606   3.720   0.922   6.115
16713TIP3    H1  607   3.636   0.896   6.153
16713TIP3    H2  608   3.775   0.942   6.191
16714TIP3   OH2  609   3.692   1.240   6.603
16714TIP3    H1  610   3.760   1.179   6.574
16714TIP3    H2  611   3.727   1.327   6.582
16715TIP3   OH2  612   3.482   1.508   6.806
16715TIP3    H1  613   3.403   1.545   6.845
16715TIP3    H2  614   3.457   1.487   6.717
16716TIP3   OH2  615   3.718   0.940   5.709
16716TIP3    H1  616   3.657   0.968   5.641
16716TIP3    H2  617   3.704   1.001   5.781
16717TIP3   OH2  618   3.581   0.638   5.531
16717TIP3    H1  619   3.577   0.668   5.440
16717TIP3    H2  620   3.536   0.554   5.530
16718TIP3   OH2  621   3.459   0.812   6.172
16718TIP3    H1  622   3.455   0.722   6.139
16718TIP3    H2  623   3.411   0.808   6.256
16719TIP3   OH2  624   1.974   1.005   6.574
16719TIP3    H1  625   1.993   0.987   6.482
16719TIP3    H2  626   2.044   0.962   6.622
16720TIP3   OH2  627   3.558   0.981   7.128
16720TIP3    H1  628   3.601   0.898   7.110
16720TIP3    H2  629   3.621   1.048   7.100
16721TIP3   OH2  630   3.669   0.730   7.087
16721TIP3    H1  631   3.585   0.698   7.120
16721TIP3    H2  632   3.733   0.668   7.121
16722TIP3   OH2  633   3.451   0.400   5.541
16722TIP3    H1  634   3.503   0.336   5.590
16722TIP3    H2  635   3.363   0.391   5.577
16723TIP3   OH2  636   3.452   0.561   5.970
16723TIP3    H1  637   3.476   0.469   5.972
16723TIP3    H2  638   3.522   0.603   5.919
16724TIP3   OH2  639   3.484   0.597   6.546
16724TIP3    H1  640   3.579   0.606   6.536
16724TIP3    H2  641   3.469   0.615   6.639
16725TIP3   OH2  642   3.483   0.689   6.807
16725TIP3    H1  643   3.409   0.719   6.860
16725TIP3    H2  644   3.536   0.768   6.792
16726TIP3   OH2  645   1.949   0.479   7.125
16726TIP3    H1  646   2.026   0.442   7.168
16726TIP3    H2  647   1.877   0.424   7.154
16727TIP3   OH2  648   3.817   0.113   7.333
16727TIP3    H1  649   3.830   0.036   7.279
16727TIP3    H2  650   3.780   0.179   7.274
16728TIP3   OH2  651   3.491   0.288   5.984
16728TIP3    H1  652   3.526   0.247   6.063
16728TIP3    H2  653   3.421   0.228   5.957
16729TIP3   OH2  654   2.039   0.404   6.494
16729TIP3    H1  655   2.071   0.316   6.476
16729TIP3    H2  656   2.119   0.454   6.513
16730TIP3   OH2  657   1.851   0.690   6.497
16730TIP3    H1  658   1.938   0.684   6.458
16730TIP3    H2  659   1.862   0.742   6.576
16731TIP3   OH2  660   3.682   0.286   7.165
16731TIP3    H1  661   3.608   0.318   7.216
16731TIP3    H2  662   3.644   0.226   7.101
16732TIP3   OH2  663   3.666   0.248   5.655
16732TIP3    H1  664   3.735   0.183   5.643
16732TIP3    H2  665   3.711   0.324   5.692
16733TIP3   OH2  666   1.948   0.254   5.933
16733TIP3    H1  667   1.880   0.267   5.999
16733TIP3    H2  668   1.951   0.337   5.885
16734TIP3   OH2  669   3.388   1.802   6.174
16734TIP3    H1  670   3.464   1.806   6.117
16734TIP3    H2  671   3.405   1.866   6.242
16735TIP3   OH2  672   1.816   0.098   6.674
16735TIP3    H1  673   1.803   0.097   6.769
16735TIP3    H2  674   1.821   0.191   6.652
16736TIP3   OH2  675   2.155   1.484   7.237
16736TIP3    H1  676   2.059   1.487   7.232
16736TIP3    H2  677   2.174   1.482   7.331
16737TIP3   OH2  678   2.459   1.589   6.783
16737TIP3    H1  679   2.433   1.681   6.780
16737TIP3    H2  680   2.555   1.591   6.785
16738TIP3   OH2  681   2.856   1.730   7.148
16738TIP3    H1  682   2.855   1.692   7.236
16738TIP3    H2  683   2.943   1.769   7.140
16739TIP3   OH2  684   3.099   1.852   7.094
16739TIP3    H1  685   3.169   1.793   7.064
16739TIP3    H2  686   3.146   1.926   7.134
16740TIP3   OH2  687   3.578   0.113   6.972
16740TIP3    H1  688   3.508   0.173   6.945
16740TIP3    H2  689   3.538   0.026   6.970
16741TIP3   OH2  690   2.152   1.904   6.861
16741TIP3    H1  691   2.067   1.935   6.829
16741TIP3    H2  692   2.160   1.943   6.948
16742TIP3   OH2  693   2.408   1.861   6.771
16742TIP3    H1  694   2.320   1.873   6.806
16742TIP3    H2  695   2.409   1.913   6.691
16743TIP3   OH2  696   2.863   1.871   6.677
16743TIP3    H1  697   2.801   1.920   6.624
16743TIP3    H2  698   2.878   1.925   6.754
16744TIP3   OH2  699   3.085   1.714   6.721
16744TIP3    H1  700   3.008   1.768   6.705
16744TIP3    H2  701   3.158   1.775   6.726
16745TIP3   OH2  702   3.327   1.846   6.738
16745TIP3    H1  703   3.356   1.936   6.721
16745TIP3    H2  704   3.369   1.794   6.670
16746TIP3   OH2  705   2.148   1.733   6.506
16746TIP3    H1  706   2.127   1.694   6.591
16746TIP3    H2  707   2.228   1.688   6.478
16747TIP3   OH2  708   2.363   1.594   6.407
16747TIP3    H1  709   2.357   1.501   6.426
16747TIP3    H2  710   2.446   1.621   6.447
16748TIP3   OH2  711   2.622   1.653   6.496
16748TIP3    H1  712   2.641   1.566   6.463
16748TIP3    H2  713   2.651   1.652   6.587
16749TIP3   OH2  714   2.882   0.207   6.342
16749TIP3    H1  715   2.810   0.162   6.387
16749TIP3    H2  716   2.955   0.146   6.346
16750TIP3   OH2  717   3.366   0.110   6.333
16750TIP3    H1  718   3.445   0.130   6.283
16750TIP3    H2  719   3.369   0.170   6.407
16751TIP3   OH2  720   3.616   0.174   6.205
16751TIP3    H1  721   3.668   0.101   6.237
16751TIP3    H2  722   3.668   0.252   6.227
16752TIP3   OH2  723   2.133   0.143   6.111
16752TIP3    H1  724   2.072   0.171   6.044
16752TIP3    H2  725   2.148   0.050   6.092
16753TIP3   OH2  726   2.033   0.128   5.702
16753TIP3    H1  727   2.116   0.173   5.686
16753TIP3    H2  728   2.002   0.163   5.785
16754TIP3   OH2  729   2.573   0.123   6.171
16754TIP3    H1  730   2.655   0.151   6.131
16754TIP3    H2  731   2.595   0.105   6.262
16755TIP3   OH2  732   3.096   0.039   6.349
16755TIP3    H1  733   3.184   0.078   6.349
16755TIP3    H2  734   3.104   8.109   6.409
16756TIP3   OH2  735   3.269   0.124   5.873
16756TIP3    H1  736   3.204   0.185   5.907
16756TIP3    H2  737   3.218   0.047   5.846
16757TIP3   OH2  738   2.009   1.718   5.876
16757TIP3    H1  739   1.942   1.713   5.808
16757TIP3    H2  740   2.020   1.812   5.892
16758TIP3   OH2  741   2.262   0.255   5.636
16758TIP3    H1  742   2.290   0.319   5.572
16758TIP3    H2  743   2.332   0.255   5.702
16759TIP3   OH2  744   2.765   0.321   5.846
16759TIP3    H1  745   2.791   0.257   5.912
16759TIP3    H2  746   2.762   0.405   5.893
16760TIP3   OH2  747   2.927   1.843   5.632
16760TIP3    H1  748   3.021   1.829   5.639
16760TIP3    H2  749   2.896   1.771   5.577
16761TIP3   OH2  750   3.585   1.772   5.973
16761TIP3    H1  751   3.556   1.683   5.952
16761TIP3    H2  752   3.564   1.823   5.895
16762TIP3   OH2  753   2.155   0.147   7.078
16762TIP3    H1  754   2.087   0.080   7.082
16762TIP3    H2  755   2.230   0.108   7.123
16763TIP3   OH2  756   2.339   0.021   7.239
16763TIP3    H1  757   2.422   0.025   7.286
16763TIP3    H2  758   2.304   8.079   7.261
16764TIP3   OH2  759   2.234   1.772   5.513
16764TIP3    H1  760   2.183   1.740   5.588
16764TIP3    H2  761   2.318   1.799   5.551
16765TIP3   OH2  762   3.239   0.049   7.396
16765TIP3    H1  763   3.193   8.133   7.455
16765TIP3    H2  764   3.331   0.043   7.422
16766TIP3   OH2  765   3.482   1.658   7.186
16766TIP3    H1  766   3.426   1.659   7.109
16766TIP3    H2  767   3.488   1.750   7.212
16767TIP3   OH2  768   4.968   1.062   6.102
16767TIP3    H1  769   4.960   1.156   6.087
16767TIP3    H2  770   4.919   1.046   6.183
16768TIP3   OH2  771   4.857   0.954   6.531
16768TIP3    H1  772   4.877   0.922   6.619
16768TIP3    H2  773   4.807   0.884   6.490
16769TIP3   OH2  774   4.057   0.883   6.701
16769TIP3    H1  775   4.059   0.793   6.735
16769TIP3    H2  776   4.100   0.935   6.769
16770TIP3   OH2  777   5.231   1.248   6.340
16770TIP3    H1  778   5.201   1.169   6.386
16770TIP3    H2  779   5.252   1.310   6.410
16771TIP3   OH2  780   4.268   1.320   6.484
16771TIP3    H1  781   4.218   1.244   6.453
16771TIP3    H2  782   4.264   1.313   6.580
16772TIP3   OH2  783   3.834   0.680   6.026
16772TIP3    H1  784   3.807   0.765   6.062
16772TIP3    H2  785   3.779   0.667   5.950
16773TIP3   OH2  786   3.922   0.952   6.312
16773TIP3    H1  787   3.946   0.863   6.335
16773TIP3    H2  788   4.002   1.003   6.323
16774TIP3   OH2  789   4.927   1.732   6.426
16774TIP3    H1  790   4.860   1.682   6.379
16774TIP3    H2  791   4.878   1.779   6.494
16775TIP3   OH2  792   4.709   1.196   6.569
16775TIP3    H1  793   4.745   1.115   6.532
16775TIP3    H2  794   4.770   1.220   6.638
16776TIP3   OH2  795   5.602   0.348   6.648
16776TIP3    H1  796   5.595   0.411   6.720
16776TIP3    H2  797   5.665   0.386   6.588
16777TIP3   OH2  798   4.985   0.612   6.586
16777TIP3    H1  799   4.978   0.535   6.642
16777TIP3    H2  800   4.985   0.577   6.497
16778TIP3   OH2  801   4.352   0.457   6.319
16778TIP3    H1  802   4.356   0.539   6.269
16778TIP3    H2  803   4.309   0.395   6.259
16779TIP3   OH2  804   5.145   0.452   6.152
16779TIP3    H1  805   5.184   0.415   6.232
16779TIP3    H2  806   5.218   0.498   6.110
16780TIP3   OH2  807   3.991   0.696   6.381
16780TIP3    H1  808   4.051   0.657   6.444
16780TIP3    H2  809   4.014   0.655   6.298
16781TIP3   OH2  810   4.499   0.838   6.317
16781TIP3    H1  811   4.575   0.794   6.355
16781TIP3    H2  812   4.453   0.769   6.270
16782TIP3   OH2  813   5.580   0.501   6.874
16782TIP3    H1  814   5.517   0.570   6.855
16782TIP3    H2  815   5.616   0.524   6.960
16783TIP3   OH2  816   4.211   0.360   6.731
16783TIP3    H1  817   4.181   0.425   6.668
16783TIP3    H2  818   4.146   0.363   6.801
16784TIP3   OH2  819   4.956   1.331   6.031
16784TIP3    H1  820   4.931   1.327   5.939
16784TIP3    H2  821   4.910   1.408   6.065
16785TIP3   OH2  822   4.478   1.118   6.704
16785TIP3    H1  823   4.420   1.190   6.728
16785TIP3    H2  824   4.554   1.161   6.663
16786TIP3   OH2  825   5.252   0.376   6.391
16786TIP3    H1  826   5.167   0.363   6.432
16786TIP3    H2  827   5.296   0.439   6.447
16787TIP3   OH2  828   4.176   0.533   6.515
16787TIP3    H1  829   4.228   0.592   6.569
16787TIP3    H2  830   4.237   0.498   6.451
16788TIP3   OH2  831   4.296   1.324   6.761
16788TIP3    H1  832   4.318   1.415   6.781
16788TIP3    H2  833   4.212   1.310   6.806
16789TIP3   OH2  834   3.904   1.297   5.913
16789TIP3    H1  835   3.891   1.348   5.832
16789TIP3    H2  836   3.926   1.363   5.979
16790TIP3   OH2  837   5.262   1.417   6.562
16790TIP3    H1  838   5.187   1.394   6.616
16790TIP3    H2  839   5.331   1.441   6.625
16791TIP3   OH2  840   5.362   0.211   6.665
16791TIP3    H1  841   5.327   0.253   6.744
16791TIP3    H2  842   5.440   0.262   6.644
16792TIP3   OH2  843   4.544   0.086   6.462
16792TIP3    H1  844   4.569   0.028   6.534
16792TIP3    H2  845   4.462   0.126   6.491
16793TIP3   OH2  846   5.161   1.575   6.298
16793TIP3    H1  847   5.179   1.499   6.242
16793TIP3    H2  848   5.186   1.650   6.245
16794TIP3   OH2  849   5.222   1.378   6.098
16794TIP3    H1  850   5.133   1.357   6.071
16794TIP3    H2  851   5.239   1.321   6.173
16795TIP3   OH2  852   5.350   1.258   6.912
16795TIP3    H1  853   5.344   1.186   6.849
16795TIP3    H2  854   5.396   1.220   6.987
16796TIP3   OH2  855   4.828   0.898   5.835
16796TIP3    H1  856   4.778   0.977   5.853
16796TIP3    H2  857   4.919   0.926   5.839
16797TIP3   OH2  858   4.821   0.794   5.571
16797TIP3    H1  859   4.823   0.823   5.662
16797TIP3    H2  860   4.904   0.747   5.559
16798TIP3   OH2  861   5.542   0.888   6.725
16798TIP3    H1  862   5.469   0.950   6.725
16798TIP3    H2  863   5.613   0.933   6.680
16799TIP3   OH2  864   5.203   0.978   5.992
16799TIP3    H1  865   5.125   1.005   6.041
16799TIP3    H2  866   5.258   0.933   6.057
16800TIP3   OH2  867   5.153   0.770   6.930
16800TIP3    H1  868   5.164   0.827   7.006
16800TIP3    H2  869   5.079   0.808   6.882
16801TIP3   OH2  870   4.364   1.035   6.172
16801TIP3    H1  871   4.334   0.988   6.093
16801TIP3    H2  872   4.416   0.970   6.220
16802TIP3   OH2  873   4.537   1.394   6.457
16802TIP3    H1  874   4.452   1.352   6.462
16802TIP3    H2  875   4.599   1.326   6.485
16803TIP3   OH2  876   4.354   0.936   6.536
16803TIP3    H1  877   4.418   0.911   6.470
16803TIP3    H2  878   4.402   0.994   6.595
16804TIP3   OH2  879   5.019   1.449   6.680
16804TIP3    H1  880   5.005   1.497   6.762
16804TIP3    H2  881   4.973   1.366   6.692
16805TIP3   OH2  882   4.462   1.323   7.037
16805TIP3    H1  883   4.401   1.386   7.076
16805TIP3    H2  884   4.406   1.266   6.983
16806TIP3   OH2  885   5.112   0.858   5.766
16806TIP3    H1  886   5.153   0.905   5.838
16806TIP3    H2  887   5.152   0.894   5.687
16807TIP3   OH2  888   4.145   0.975   6.951
16807TIP3    H1  889   4.161   1.051   7.006
16807TIP3    H2  890   4.054   0.950   6.970
16808TIP3   OH2  891   4.809   1.557   6.100
16808TIP3    H1  892   4.718   1.544   6.126
16808TIP3    H2  893   4.810   1.642   6.056
16809TIP3   OH2  894   4.266   1.503   7.088
16809TIP3    H1  895   4.266   1.558   7.010
16809TIP3    H2  896   4.186   1.527   7.135
16810TIP3   OH2  897   5.443   0.068   5.768
16810TIP3    H1  898   5.354   0.097   5.785
16810TIP3    H2  899   5.483   0.141   5.721
16811TIP3   OH2  900   4.261   0.937   5.921
16811TIP3    H1  901   4.194   0.997   5.888
16811TIP3    H2  902   4.215   0.855   5.937
16812TIP3   OH2  903   5.540   1.516   5.588
16812TIP3    H1  904   5.560   1.605   5.618
16812TIP3    H2  905   5.618   1.465   5.612
16813TIP3   OH2  906   3.851   1.154   6.862
16813TIP3    H1  907   3.804   1.144   6.779
16813TIP3    H2  908   3.858   1.064   6.896
16814TIP3   OH2  909   3.805   1.499   6.559
16814TIP3    H1  910   3.880   1.503   6.618
16814TIP3    H2  911   3.752   1.575   6.583
16815TIP3   OH2  912   5.677   1.529   7.164
16815TIP3    H1  913   5.650   1.440   7.140
16815TIP3    H2  914   5.597   1.581   7.157
16816TIP3   OH2  915   4.690   1.472   6.986
16816TIP3    H1  916   4.685   1.548   7.044
16816TIP3    H2  917   4.610   1.423   7.005
16817TIP3   OH2  918   4.809   1.813   5.971
16817TIP3    H1  919   4.771   1.822   5.884
16817TIP3    H2  920   4.786   1.894   6.016
16818TIP3   OH2  921   4.155   1.700   6.179
16818TIP3    H1  922   4.185   1.663   6.262
16818TIP3    H2  923   4.101   1.630   6.141
16819TIP3   OH2  924   5.090   1.742   5.655
16819TIP3    H1  925   5.152   1.673   5.632
16819TIP3    H2  926   5.100   1.752   5.750
16820TIP3   OH2  927   5.084   1.785   5.929
16820TIP3    H1  928   4.992   1.782   5.954
16820TIP3    H2  929   5.131   1.768   6.011
16821TIP3   OH2  930   5.319   0.637   7.176
16821TIP3    H1  931   5.234   0.671   7.203
16821TIP3    H2  932   5.322   0.547   7.210
16822TIP3   OH2  933   4.058   1.335   6.898
16822TIP3    H1  934   4.092   1.314   6.985
16822TIP3    H2  935   3.983   1.276   6.887
16823TIP3   OH2  936   4.297   0.174   6.546
16823TIP3    H1  937   4.225   0.189   6.486
16823TIP3    H2  938   4.279   0.232   6.620
16824TIP3   OH2  939   4.786   0.198   6.848
16824TIP3    H1  940   4.788   0.105   6.869
16824TIP3    H2  941   4.709   0.232   6.895
16825TIP3   OH2  942   5.101   0.496   6.952
16825TIP3    H1  943   5.034   0.484   7.019
16825TIP3    H2  944   5.121   0.590   6.953
16826TIP3   OH2  945   5.210   0.955   5.525
16826TIP3    H1  946   5.165   1.040   5.523
16826TIP3    H2  947   5.303   0.976   5.518
16827TIP3   OH2  948   4.829   0.354   5.659
16827TIP3    H1  949   4.764   0.337   5.727
16827TIP3    H2  950   4.781   0.341   5.577
16828TIP3   OH2  951   4.338   0.692   6.666
16828TIP3    H1  952   4.284   0.696   6.745
16828TIP3    H2  953   4.333   0.781   6.629
16829TIP3   OH2  954   4.332   0.677   6.156
16829TIP3    H1  955   4.237   0.663   6.158
16829TIP3    H2  956   4.358   0.648   6.069
16830TIP3   OH2  957   4.877   0.695   6.030
16830TIP3    H1  958   4.850   0.771   5.979
16830TIP3    H2  959   4.951   0.658   5.982
16831TIP3   OH2  960   4.830   0.752   7.188
16831TIP3    H1  961   4.768   0.693   7.232
16831TIP3    H2  962   4.916   0.727   7.223
16832TIP3   OH2  963   4.965   0.622   6.295
16832TIP3    H1  964   4.920   0.661   6.220
16832TIP3    H2  965   5.014   0.549   6.257
16833TIP3   OH2  966   4.111   0.646   6.837
16833TIP3    H1  967   4.163   0.676   6.912
16833TIP3    H2  968   4.071   0.564   6.868
16834TIP3   OH2  969   4.408   0.404   5.487
16834TIP3    H1  970   4.401   0.386   5.581
16834TIP3    H2  971   4.388   0.497   5.479
16835TIP3   OH2  972   3.783   0.394   6.229
16835TIP3    H1  973   3.830   0.393   6.312
16835TIP3    H2  974   3.778   0.486   6.205
16836TIP3   OH2  975   3.825   0.455   5.766
16836TIP3    H1  976   3.901   0.495   5.723
16836TIP3    H2  977   3.766   0.529   5.783
16837TIP3   OH2  978   4.927   0.814   6.760
16837TIP3    H1  979   4.955   0.746   6.699
16837TIP3    H2  980   4.866   0.769   6.820
16838TIP3   OH2  981   4.621   0.419   6.250
16838TIP3    H1  982   4.539   0.426   6.297
16838TIP3    H2  983   4.675   0.360   6.303
16839TIP3   OH2  984   4.071   0.586   6.137
16839TIP3    H1  985   3.992   0.612   6.089
16839TIP3    H2  986   4.084   0.494   6.114
16840TIP3   OH2  987   4.392   0.584   5.904
16840TIP3    H1  988   4.487   0.581   5.921
16840TIP3    H2  989   4.385   0.619   5.816
16841TIP3   OH2  990   4.997   0.336   6.474
16841TIP3    H1  991   4.985   0.337   6.569
16841TIP3    H2  992   4.916   0.298   6.440
16842TIP3   OH2  993   4.356   0.668   5.646
16842TIP3    H1  994   4.283   0.666   5.584
16842TIP3    H2  995   4.423   0.719   5.601
16843TIP3   OH2  996   5.369   1.900   7.243
16843TIP3    H1  997   5.407   1.943   7.166
16843TIP3    H2  998   5.435   1.910   7.312
16844TIP3   OH2  999   4.164   1.186   7.125
16844TIP3    H1 1000   4.227   1.176   7.196
16844TIP3    H2 1001   4.079   1.184   7.169
16845TIP3   OH2 1002   4.716   0.720   6.449
16845TIP3    H1 1003   4.792   0.668   6.422
16845TIP3    H2 1004   4.686   0.677   6.529
16846TIP3   OH2 1005   4.242   0.288   6.134
16846TIP3    H1 1006   4.163   0.234   6.128
16846TIP3    H2 1007   4.313   0.225   6.149
16847TIP3   OH2 1008   4.611   0.615   6.691
16847TIP3    H1 1009   4.526   0.659   6.693
16847TIP3    H2 1010   4.655   0.645   6.770
16848TIP3   OH2 1011   4.670   1.133   5.845
16848TIP3    H1 1012   4.600   1.092   5.795
16848TIP3    H2 1013   4.626   1.174   5.920
16849TIP3   OH2 1014   5.353   1.087   6.691
16849TIP3    H1 1015   5.414   1.148   6.649
16849TIP3    H2 1016   5.284   1.074   6.626
16850TIP3   OH2 1017   5.086   0.455   5.644
16850TIP3    H1 1018   5.001   0.410   5.643
16850TIP3    H2 1019   5.089   0.498   5.729
16851TIP3   OH2 1020   4.830   1.234   7.040
16851TIP3    H1 1021   4.802   1.191   7.121
16851TIP3    H2 1022   4.781   1.316   7.038
16852TIP3   OH2 1023   5.093   0.607   5.873
16852TIP3    H1 1024   5.177   0.598   5.918
16852TIP3    H2 1025   5.097   0.694   5.833
16853TIP3   OH2 1026   4.170   1.069   6.377
16853TIP3    H1 1027   4.232   1.068   6.304
16853TIP3    H2 1028   4.212   1.015   6.445
16854TIP3   OH2 1029   4.872   1.303   5.759
16854TIP3    H1 1030   4.827   1.388   5.765
16854TIP3    H2 1031   4.806   1.240   5.787
16855TIP3   OH2 1032   3.875   0.911   7.003
16855TIP3    H1 1033   3.909   0.899   7.092
16855TIP3    H2 1034   3.804   0.847   6.996
16856TIP3   OH2 1035   4.610   0.920   7.124
16856TIP3    H1 1036   4.540   0.878   7.174
16856TIP3    H2 1037   4.690   0.876   7.154
16857TIP3   OH2 1038   4.966   1.527   6.943
16857TIP3    H1 1039   4.871   1.513   6.949
16857TIP3    H2 1040   5.000   1.498   7.028
16858TIP3   OH2 1041   5.541   0.684   5.804
16858TIP3    H1 1042   5.503   0.660   5.719
16858TIP3    H2 1043   5.561   0.778   5.795
16859TIP3   OH2 1044   5.617   1.265   7.089
16859TIP3    H1 1045   5.562   1.188   7.105
16859TIP3    H2 1046   5.657   1.249   7.003
16860TIP3   OH2 1047   5.376   1.519   5.911
16860TIP3    H1 1048   5.326   1.475   5.980
16860TIP3    H2 1049   5.390   1.452   5.845
16861TIP3   OH2 1050   5.146   1.025   6.494
16861TIP3    H1 1051   5.052   1.016   6.511
16861TIP3    H2 1052   5.173   0.939   6.461
16862TIP3   OH2 1053   4.433   1.482   6.139
16862TIP3    H1 1054   4.419   1.571   6.106
16862TIP3    H2 1055   4.400   1.483   6.228
16863TIP3   OH2 1056   3.976   0.922   5.618
16863TIP3    H1 1057   4.023   0.980   5.677
16863TIP3    H2 1058   3.886   0.922   5.650
16864TIP3   OH2 1059   4.492   1.241   6.025
16864TIP3    H1 1060   4.477   1.323   6.073
16864TIP3    H2 1061   4.450   1.174   6.080
16865TIP3   OH2 1062   4.607   1.659   6.792
16865TIP3    H1 1063   4.619   1.738   6.845
16865TIP3    H2 1064   4.650   1.589   6.842
16866TIP3   OH2 1065   4.395   1.745   6.054
16866TIP3    H1 1066   4.307   1.747   6.092
16866TIP3    H2 1067   4.444   1.812   6.101
16867TIP3   OH2 1068   4.900   1.213   6.769
16867TIP3    H1 1069   4.862   1.223   6.856
16867TIP3    H2 1070   4.967   1.144   6.780
16868TIP3   OH2 1071   5.148   1.319   5.664
16868TIP3    H1 1072   5.205   1.265   5.718
16868TIP3    H2 1073   5.063   1.314   5.707
16869TIP3   OH2 1074   5.213   1.657   6.947
16869TIP3    H1 1075   5.124   1.624   6.941
16869TIP3    H2 1076   5.209   1.744   6.907
16870TIP3   OH2 1077   5.606   1.773   5.670
16870TIP3    H1 1078   5.667   1.842   5.645
16870TIP3    H2 1079   5.525   1.820   5.690
16871TIP3   OH2 1080   4.020   0.397   6.930
16871TIP3    H1 1081   3.950   0.440   6.980
16871TIP3    H2 1082   4.030   0.311   6.972
16872TIP3   OH2 1083   5.311   1.161   5.818
16872TIP3    H1 1084   5.266   1.106   5.882
16872TIP3    H2 1085   5.402   1.161   5.848
16873TIP3   OH2 1086   4.003   1.576   6.744
16873TIP3    H1 1087   4.025   1.502   6.800
16873TIP3    H2 1088   4.009   1.652   6.802
16874TIP3   OH2 1089   4.558   1.398   5.526
16874TIP3    H1 1090   4.507   1.322   5.498
16874TIP3    H2 1091   4.529   1.416   5.615
16875TIP3   OH2 1092   4.423   1.404   5.779
16875TIP3    H1 1093   4.444   1.353   5.857
16875TIP3    H2 1094   4.444   1.494   5.803
16876TIP3   OH2 1095   4.079   1.113   5.795
16876TIP3    H1 1096   4.018   1.159   5.853
16876TIP3    H2 1097   4.126   1.183   5.750
16877TIP3   OH2 1098   4.963   0.380   6.742
16877TIP3    H1 1099   5.014   0.412   6.816
16877TIP3    H2 1100   4.901   0.318   6.780
16878TIP3   OH2 1101   4.990   0.310   5.975
16878TIP3    H1 1102   4.965   0.381   5.916
16878TIP3    H2 1103   5.038   0.353   6.045
16879TIP3   OH2 1104   4.745   1.542   5.777
16879TIP3    H1 1105   4.657   1.569   5.802
16879TIP3    H2 1106   4.785   1.620   5.740
16880TIP3   OH2 1107   4.648   0.542   6.008
16880TIP3    H1 1108   4.723   0.600   6.019
16880TIP3    H2 1109   4.634   0.503   6.094
16881TIP3   OH2 1110   4.783   0.646   6.930
16881TIP3    H1 1111   4.787   0.695   7.013
16881TIP3    H2 1112   4.807   0.556   6.954
16882TIP3   OH2 1113   4.761   0.183   6.072
16882TIP3    H1 1114   4.765   0.198   6.167
16882TIP3    H2 1115   4.845   0.215   6.039
16883TIP3   OH2 1116   4.500   1.665   5.816
16883TIP3    H1 1117   4.501   1.739   5.755
16883TIP3    H2 1118   4.463   1.700   5.896
16884TIP3   OH2 1119   4.373   0.338   5.759
16884TIP3    H1 1120   4.349   0.408   5.820
16884TIP3    H2 1121   4.461   0.311   5.788
16885TIP3   OH2 1122   5.325   0.343   6.906
16885TIP3    H1 1123   5.244   0.391   6.927
16885TIP3    H2 1124   5.394   0.409   6.908
16886TIP3   OH2 1125   5.200   0.766   6.389
16886TIP3    H1 1126   5.114   0.725   6.380
16886TIP3    H2 1127   5.249   0.708   6.447
16887TIP3   OH2 1128   4.198   1.320   5.639
16887TIP3    H1 1129   4.258   1.367   5.697
16887TIP3    H2 1130   4.254   1.260   5.589
16888TIP3   OH2 1131   3.983   0.639   5.618
16888TIP3    H1 1132   3.994   0.733   5.631
16888TIP3    H2 1133   3.945   0.631   5.531
16889TIP3   OH2 1134   5.308   1.757   6.531
16889TIP3    H1 1135   5.307   1.835   6.474
16889TIP3    H2 1136   5.401   1.742   6.548
16890TIP3   OH2 1137   4.065   0.154   6.395
16890TIP3    H1 1138   4.044   0.146   6.301
16890TIP3    H2 1139   4.055   0.065   6.429
16891TIP3   OH2 1140   3.958   1.527   6.065
16891TIP3    H1 1141   3.910   1.552   6.144
16891TIP3    H2 1142   3.936   1.594   6.000
16892TIP3   OH2 1143   3.952   1.821   7.255
16892TIP3    H1 1144   4.015   1.831   7.326
16892TIP3    H2 1145   3.962   1.730   7.227
16893TIP3   OH2 1146   4.362   1.672   7.367
16893TIP3    H1 1147   4.410   1.699   7.445
16893TIP3    H2 1148   4.389   1.582   7.351
16894TIP3   OH2 1149   4.773   1.567   5.454
16894TIP3    H1 1150   4.690   1.525   5.477
16894TIP3    H2 1151   4.838   1.497   5.457
16895TIP3   OH2 1152   5.060   1.461   7.188
16895TIP3    H1 1153   5.008   1.412   7.251
16895TIP3    H2 1154   5.137   1.490   7.237
16896TIP3   OH2 1155   5.256   1.540   5.542
16896TIP3    H1 1156   5.219   1.463   5.585
16896TIP3    H2 1157   5.350   1.533   5.554
16897TIP3   OH2 1158   3.918   1.154   7.234
16897TIP3    H1 1159   3.906   1.066   7.269
16897TIP3    H2 1160   3.831   1.181   7.205
16898TIP3   OH2 1161   4.392   1.168   5.514
16898TIP3    H1 1162   4.419   1.120   5.593
16898TIP3    H2 1163   4.379   1.100   5.448
16899TIP3   OH2 1164   4.593   1.181   7.235
16899TIP3    H1 1165   4.546   1.229   7.167
16899TIP3    H2 1166   4.603   1.093   7.200
16900TIP3   OH2 1167   4.876   1.288   5.481
16900TIP3    H1 1168   4.887   1.290   5.576
16900TIP3    H2 1169   4.795   1.240   5.468
16901TIP3   OH2 1170   5.092   1.157   6.991
16901TIP3    H1 1171   5.148   1.234   6.981
16901TIP3    H2 1172   5.008   1.192   7.020
16902TIP3   OH2 1173   3.986   0.867   7.252
16902TIP3    H1 1174   4.077   0.886   7.277
16902TIP3    H2 1175   3.960   0.797   7.311
16903TIP3   OH2 1176   4.454   1.006   5.727
16903TIP3    H1 1177   4.396   0.976   5.797
16903TIP3    H2 1178   4.479   0.927   5.680
16904TIP3   OH2 1179   4.334   0.773   6.953
16904TIP3    H1 1180   4.276   0.849   6.964
16904TIP3    H2 1181   4.414   0.810   6.914
16905TIP3   OH2 1182   4.549   0.828   5.533
16905TIP3    H1 1183   4.542   0.830   5.438
16905TIP3    H2 1184   4.642   0.813   5.551
16906TIP3   OH2 1185   4.877   1.023   7.318
16906TIP3    H1 1186   4.889   0.948   7.260
16906TIP3    H2 1187   4.813   0.993   7.383
16907TIP3   OH2 1188   5.472   1.042   5.481
16907TIP3    H1 1189   5.497   1.012   5.393
16907TIP3    H2 1190   5.505   1.132   5.485
16908TIP3   OH2 1191   4.432   0.539   7.062
16908TIP3    H1 1192   4.449   0.483   6.986
16908TIP3    H2 1193   4.401   0.621   7.023
16909TIP3   OH2 1194   4.472   0.397   6.820
16909TIP3    H1 1195   4.524   0.454   6.764
16909TIP3    H2 1196   4.385   0.396   6.780
16910TIP3   OH2 1197   4.557   0.889   6.845
16910TIP3    H1 1198   4.595   0.913   6.929
16910TIP3    H2 1199   4.539   0.973   6.802
16911TIP3   OH2 1200   5.074   0.689   7.321
16911TIP3    H1 1201   5.056   0.616   7.380
16911TIP3    H2 1202   5.094   0.763   7.379
16912TIP3   OH2 1203   5.209   0.957   7.134
16912TIP3    H1 1204   5.158   1.026   7.091
16912TIP3    H2 1205   5.300   0.985   7.125
16913TIP3   OH2 1206   4.270   0.572   7.289
16913TIP3    H1 1207   4.187   0.524   7.278
16913TIP3    H2 1208   4.318   0.556   7.208
16914TIP3   OH2 1209   4.466   0.131   6.896
16914TIP3    H1 1210   4.473   0.224   6.872
16914TIP3    H2 1211   4.378   0.123   6.933
16915TIP3   OH2 1212   4.650   0.535   7.236
16915TIP3    H1 1213   4.619   0.494   7.317
16915TIP3    H2 1214   4.574   0.534   7.178
16916TIP3   OH2 1215   4.892   0.445   7.122
16916TIP3    H1 1216   4.810   0.464   7.168
16916TIP3    H2 1217   4.942   0.392   7.185
16917TIP3   OH2 1218   5.048   0.309   7.317
16917TIP3    H1 1219   4.989   0.240   7.345
16917TIP3    H2 1220   5.045   0.374   7.388
16918TIP3   OH2 1221   4.065   0.387   7.252
16918TIP3    H1 1222   4.052   0.311   7.195
16918TIP3    H2 1223   4.073   0.349   7.340
16919TIP3   OH2 1224   4.618   0.114   7.144
16919TIP3    H1 1225   4.642   0.027   7.177
16919TIP3    H2 1226   4.569   0.096   7.064
16920TIP3   OH2 1227   4.669   0.258   7.381
16920TIP3    H1 1228   4.653   0.211   7.299
16920TIP3    H2 1229   4.585   0.300   7.401
16921TIP3   OH2 1230   4.552   1.861   5.626
16921TIP3    H1 1231   4.646   1.846   5.636
16921TIP3    H2 1232   4.539   1.873   5.532
16922TIP3   OH2 1233   3.908   1.366   5.636
16922TIP3    H1 1234   4.003   1.378   5.630
16922TIP3    H2 1235   3.893   1.276   5.607
16923TIP3   OH2 1236   3.793   1.838   6.136
16923TIP3    H1 1237   3.718   1.810   6.084
16923TIP3    H2 1238   3.807   1.768   6.199
16924TIP3   OH2 1239   3.859   1.631   6.309
16924TIP3    H1 1240   3.817   1.565   6.364
16924TIP3    H2 1241   3.920   1.676   6.368
16925TIP3   OH2 1242   5.574   1.754   6.616
16925TIP3    H1 1243   5.580   1.721   6.706
16925TIP3    H2 1244   5.616   1.840   6.620
16926TIP3   OH2 1245   5.598   1.654   6.869
16926TIP3    H1 1246   5.533   1.589   6.844
16926TIP3    H2 1247   5.574   1.680   6.958
16927TIP3   OH2 1248   5.495   1.288   7.476
16927TIP3    H1 1249   5.401   1.295   7.458
16927TIP3    H2 1250   5.500   1.249   7.564
16928TIP3   OH2 1251   5.568   1.122   5.916
16928TIP3    H1 1252   5.639   1.186   5.923
16928TIP3    H2 1253   5.581   1.064   5.991
16929TIP3   OH2 1254   5.610   0.927   6.112
16929TIP3    H1 1255   5.525   0.898   6.146
16929TIP3    H2 1256   5.662   0.945   6.191
16930TIP3   OH2 1257   5.580   1.232   6.618
16930TIP3    H1 1258   5.643   1.171   6.580
16930TIP3    H2 1259   5.607   1.318   6.586
16931TIP3   OH2 1260   5.381   1.502   6.798
16931TIP3    H1 1261   5.321   1.555   6.850
16931TIP3    H2 1262   5.378   1.415   6.839
16932TIP3   OH2 1263   5.589   0.940   5.714
16932TIP3    H1 1264   5.535   0.970   5.641
16932TIP3    H2 1265   5.575   1.006   5.782
16933TIP3   OH2 1266   5.454   0.646   5.546
16933TIP3    H1 1267   5.451   0.688   5.460
16933TIP3    H2 1268   5.413   0.561   5.532
16934TIP3   OH2 1269   5.354   0.814   6.163
16934TIP3    H1 1270   5.351   0.726   6.125
16934TIP3    H2 1271   5.307   0.806   6.246
16935TIP3   OH2 1272   3.856   1.017   6.574
16935TIP3    H1 1273   3.869   1.000   6.481
16935TIP3    H2 1274   3.931   0.976   6.617
16936TIP3   OH2 1275   5.484   1.026   7.121
16936TIP3    H1 1276   5.505   0.938   7.089
16936TIP3    H2 1277   5.509   1.024   7.214
16937TIP3   OH2 1278   5.544   0.761   7.073
16937TIP3    H1 1279   5.459   0.727   7.100
16937TIP3    H2 1280   5.607   0.694   7.102
16938TIP3   OH2 1281   5.333   0.406   5.517
16938TIP3    H1 1282   5.393   0.349   5.566
16938TIP3    H2 1283   5.250   0.400   5.565
16939TIP3   OH2 1284   5.350   0.573   5.987
16939TIP3    H1 1285   5.381   0.483   5.988
16939TIP3    H2 1286   5.413   0.619   5.931
16940TIP3   OH2 1287   5.359   0.590   6.537
16940TIP3    H1 1288   5.453   0.604   6.522
16940TIP3    H2 1289   5.348   0.605   6.631
16941TIP3   OH2 1290   5.381   0.674   6.803
16941TIP3    H1 1291   5.303   0.704   6.851
16941TIP3    H2 1292   5.432   0.753   6.789
16942TIP3   OH2 1293   3.839   0.505   7.117
16942TIP3    H1 1294   3.909   0.506   7.183
16942TIP3    H2 1295   3.784   0.430   7.141
16943TIP3   OH2 1296   5.703   0.144   7.384
16943TIP3    H1 1297   5.722   0.067   7.331
16943TIP3    H2 1298   5.658   0.204   7.324
16944TIP3   OH2 1299   5.420   0.305   5.984
16944TIP3    H1 1300   5.435   0.256   6.065
16944TIP3    H2 1301   5.349   0.259   5.940
16945TIP3   OH2 1302   3.937   0.391   6.457
16945TIP3    H1 1303   3.976   0.304   6.449
16945TIP3    H2 1304   4.009   0.446   6.489
16946TIP3   OH2 1305   3.752   0.656   6.542
16946TIP3    H1 1306   3.832   0.675   6.494
16946TIP3    H2 1307   3.746   0.727   6.607
16947TIP3   OH2 1308   5.568   0.296   7.189
16947TIP3    H1 1309   5.487   0.329   7.229
16947TIP3    H2 1310   5.538   0.232   7.125
16948TIP3   OH2 1311   5.557   0.283   5.634
16948TIP3    H1 1312   5.627   0.219   5.622
16948TIP3    H2 1313   5.600   0.359   5.673
16949TIP3   OH2 1314   3.836   0.233   5.936
16949TIP3    H1 1315   3.757   0.238   5.989
16949TIP3    H2 1316   3.839   0.316   5.890
16950TIP3   OH2 1317   5.248   1.794   6.155
16950TIP3    H1 1318   5.330   1.790   6.105
16950TIP3    H2 1319   5.265   1.860   6.222
16951TIP3   OH2 1320   3.739   0.103   6.748
16951TIP3    H1 1321   3.691   0.117   6.829
16951TIP3    H2 1322   3.742   0.189   6.707
16952TIP3   OH2 1323   4.000   1.545   7.197
16952TIP3    H1 1324   3.910   1.526   7.171
16952TIP3    H2 1325   4.013   1.494   7.277
16953TIP3   OH2 1326   4.341   1.591   6.817
16953TIP3    H1 1327   4.307   1.679   6.799
16953TIP3    H2 1328   4.436   1.601   6.817
16954TIP3   OH2 1329   4.717   1.720   7.103
16954TIP3    H1 1330   4.727   1.681   7.190
16954TIP3    H2 1331   4.794   1.776   7.093
16955TIP3   OH2 1332   4.963   1.850   7.084
16955TIP3    H1 1333   5.006   1.766   7.099
16955TIP3    H2 1334   4.999   1.908   7.151
16956TIP3   OH2 1335   5.469   0.124   6.992
16956TIP3    H1 1336   5.401   0.186   6.964
16956TIP3    H2 1337   5.429   0.038   6.978
16957TIP3   OH2 1338   4.033   1.864   6.834
16957TIP3    H1 1339   3.954   1.904   6.797
16957TIP3    H2 1340   4.044   1.906   6.919
16958TIP3   OH2 1341   4.300   1.859   6.767
16958TIP3    H1 1342   4.208   1.864   6.792
16958TIP3    H2 1343   4.306   1.913   6.687
16959TIP3   OH2 1344   4.796   1.881   6.622
16959TIP3    H1 1345   4.706   1.895   6.593
16959TIP3    H2 1346   4.801   1.925   6.707
16960TIP3   OH2 1347   5.039   1.754   6.697
16960TIP3    H1 1348   4.951   1.791   6.693
16960TIP3    H2 1349   5.091   1.821   6.742
16961TIP3   OH2 1350   5.273   1.881   6.781
16961TIP3    H1 1351   5.289   1.969   6.746
16961TIP3    H2 1352   5.292   1.822   6.708
16962TIP3   OH2 1353   4.038   1.730   6.502
16962TIP3    H1 1354   4.013   1.695   6.588
16962TIP3    H2 1355   4.118   1.683   6.479
16963TIP3   OH2 1356   4.263   1.589   6.411
16963TIP3    H1 1357   4.256   1.497   6.437
16963TIP3    H2 1358   4.341   1.621   6.455
16964TIP3   OH2 1359   4.516   1.658   6.526
16964TIP3    H1 1360   4.535   1.569   6.497
16964TIP3    H2 1361   4.544   1.660   6.618
16965TIP3   OH2 1362   4.772   0.203   6.352
16965TIP3    H1 1363   4.704   0.157   6.402
16965TIP3    H2 1364   4.843   0.139   6.345
16966TIP3   OH2 1365   5.278   0.085   6.364
16966TIP3    H1 1366   5.342   0.107   6.296
16966TIP3    H2 1367   5.266   0.167   6.412
16967TIP3   OH2 1368   5.496   0.153   6.201
16967TIP3    H1 1369   5.553   0.076   6.202
16967TIP3    H2 1370   5.551   0.225   6.232
16968TIP3   OH2 1371   4.020   0.125   6.121
16968TIP3    H1 1372   3.954   0.164   6.063
16968TIP3    H2 1373   4.025   0.033   6.093
16969TIP3   OH2 1374   3.915   0.102   5.700
16969TIP3    H1 1375   3.997   0.147   5.683
16969TIP3    H2 1376   3.888   0.133   5.787
16970TIP3   OH2 1377   4.461   0.124   6.193
16970TIP3    H1 1378   4.540   0.157   6.151
16970TIP3    H2 1379   4.486   0.108   6.284
16971TIP3   OH2 1380   4.991   0.047   6.300
16971TIP3    H1 1381   5.011   8.124   6.235
16971TIP3    H2 1382   5.076   0.069   6.339
16972TIP3   OH2 1383   5.205   0.156   5.882
16972TIP3    H1 1384   5.123   0.197   5.909
16972TIP3    H2 1385   5.207   0.073   5.929
16973TIP3   OH2 1386   3.897   1.726   5.883
16973TIP3    H1 1387   3.829   1.725   5.815
16973TIP3    H2 1388   3.872   1.797   5.942
16974TIP3   OH2 1389   4.143   0.235   5.630
16974TIP3    H1 1390   4.163   0.266   5.542
16974TIP3    H2 1391   4.218   0.263   5.683
16975TIP3   OH2 1392   4.636   0.314   5.859
16975TIP3    H1 1393   4.669   0.252   5.924
16975TIP3    H2 1394   4.637   0.398   5.904
16976TIP3   OH2 1395   4.816   1.775   5.640
16976TIP3    H1 1396   4.912   1.781   5.646
16976TIP3    H2 1397   4.801   1.717   5.565
16977TIP3   OH2 1398   5.461   1.772   5.976
16977TIP3    H1 1399   5.435   1.684   5.949
16977TIP3    H2 1400   5.445   1.826   5.898
16978TIP3   OH2 1401   4.037   0.161   7.079
16978TIP3    H1 1402   3.960   0.106   7.087
16978TIP3    H2 1403   4.109   0.106   7.110
16979TIP3   OH2 1404   4.223   8.138   7.210
16979TIP3    H1 1405   4.228   0.052   7.285
16979TIP3    H2 1406   4.171   8.063   7.241
16980TIP3   OH2 1407   4.103   1.767   5.554
16980TIP3    H1 1408   4.026   1.780   5.609
16980TIP3    H2 1409   4.166   1.721   5.609
16981TIP3   OH2 1410   5.444   1.668   7.107
16981TIP3    H1 1411   5.362   1.641   7.065
16981TIP3    H2 1412   5.417   1.729   7.176
16982TIP3   OH2 1413   6.858   1.025   6.137
16982TIP3    H1 1414   6.847   1.120   6.132
16982TIP3    H2 1415   6.789   0.989   6.082
16983TIP3   OH2 1416   6.735   0.952   6.529
16983TIP3    H1 1417   6.755   0.915   6.614
16983TIP3    H2 1418   6.668   0.895   6.492
16984TIP3   OH2 1419   5.949   0.872   6.695
16984TIP3    H1 1420   5.942   0.788   6.740
16984TIP3    H2 1421   6.002   0.926   6.753
16985TIP3   OH2 1422   7.126   1.271   6.366
16985TIP3    H1 1423   7.085   1.197   6.413
16985TIP3    H2 1424   7.142   1.336   6.435
16986TIP3   OH2 1425   6.107   1.337   6.472
16986TIP3    H1 1426   6.072   1.253   6.443
16986TIP3    H2 1427   6.144   1.319   6.559
16987TIP3   OH2 1428   5.738   0.697   6.015
16987TIP3    H1 1429   5.709   0.779   6.055
16987TIP3    H2 1430   5.674   0.679   5.947
16988TIP3   OH2 1431   5.804   0.950   6.315
16988TIP3    H1 1432   5.830   0.860   6.336
16988TIP3    H2 1433   5.884   1.001   6.325
16989TIP3   OH2 1434   6.860   1.726   6.410
16989TIP3    H1 1435   6.889   1.669   6.339
16989TIP3    H2 1436   6.839   1.666   6.482
16990TIP3   OH2 1437   6.608   1.202   6.567
16990TIP3    H1 1438   6.651   1.124   6.533
16990TIP3    H2 1439   6.665   1.232   6.638
16991TIP3   OH2 1440   7.457   0.381   6.668
16991TIP3    H1 1441   7.469   0.448   6.735
16991TIP3    H2 1442   7.534   0.389   6.612
16992TIP3   OH2 1443   6.910   0.620   6.574
16992TIP3    H1 1444   6.904   0.546   6.635
16992TIP3    H2 1445   6.879   0.586   6.491
16993TIP3   OH2 1446   6.247   0.456   6.308
16993TIP3    H1 1447   6.246   0.540   6.261
16993TIP3    H2 1448   6.199   0.396   6.251
16994TIP3   OH2 1449   6.951   0.425   6.220
16994TIP3    H1 1450   7.028   0.429   6.277
16994TIP3    H2 1451   6.910   0.511   6.230
16995TIP3   OH2 1452   5.881   0.695   6.380
16995TIP3    H1 1453   5.943   0.657   6.443
16995TIP3    H2 1454   5.904   0.654   6.296
16996TIP3   OH2 1455   6.368   0.842   6.313
16996TIP3    H1 1456   6.442   0.796   6.353
16996TIP3    H2 1457   6.325   0.775   6.260
16997TIP3   OH2 1458   7.527   0.575   6.856
16997TIP3    H1 1459   7.441   0.616   6.864
16997TIP3    H2 1460   7.544   0.537   6.942
16998TIP3   OH2 1461   6.095   0.353   6.729
16998TIP3    H1 1462   6.068   0.420   6.666
16998TIP3    H2 1463   6.026   0.353   6.796
16999TIP3   OH2 1464   6.827   1.286   6.038
16999TIP3    H1 1465   6.815   1.283   5.943
16999TIP3    H2 1466   6.781   1.365   6.065
17000TIP3   OH2 1467   6.366   1.124   6.678
17000TIP3    H1 1468   6.310   1.197   6.705
17000TIP3    H2 1469   6.443   1.167   6.639
17001TIP3   OH2 1470   7.170   0.449   6.401
17001TIP3    H1 1471   7.153   0.390   6.475
17001TIP3    H2 1472   7.209   0.527   6.442
17002TIP3   OH2 1473   6.072   0.530   6.512
17002TIP3    H1 1474   6.125   0.588   6.568
17002TIP3    H2 1475   6.134   0.496   6.448
17003TIP3   OH2 1476   6.200   1.335   6.760
17003TIP3    H1 1477   6.213   1.428   6.776
17003TIP3    H2 1478   6.116   1.315   6.801
17004TIP3   OH2 1479   5.782   1.297   5.898
17004TIP3    H1 1480   5.771   1.343   5.815
17004TIP3    H2 1481   5.805   1.366   5.960
17005TIP3   OH2 1482   7.150   1.477   6.562
17005TIP3    H1 1483   7.057   1.474   6.583
17005TIP3    H2 1484   7.167   1.569   6.541
17006TIP3   OH2 1485   7.205   0.282   6.620
17006TIP3    H1 1486   7.167   0.279   6.708
17006TIP3    H2 1487   7.294   0.314   6.632
17007TIP3   OH2 1488   6.399   0.088   6.451
17007TIP3    H1 1489   6.427   0.030   6.523
17007TIP3    H2 1490   6.314   0.122   6.479
17008TIP3   OH2 1491   6.972   1.612   6.179
17008TIP3    H1 1492   7.018   1.531   6.161
17008TIP3    H2 1493   7.041   1.679   6.184
17009TIP3   OH2 1494   7.086   1.372   6.113
17009TIP3    H1 1495   7.006   1.327   6.087
17009TIP3    H2 1496   7.111   1.331   6.196
17010TIP3   OH2 1497   7.272   1.267   6.921
17010TIP3    H1 1498   7.268   1.205   6.848
17010TIP3    H2 1499   7.290   1.352   6.880
17011TIP3   OH2 1500   6.707   0.926   5.925
17011TIP3    H1 1501   6.643   0.992   5.898
17011TIP3    H2 1502   6.775   0.929   5.858
17012TIP3   OH2 1503   6.727   0.779   5.591
17012TIP3    H1 1504   6.780   0.831   5.652
17012TIP3    H2 1505   6.786   0.711   5.559
17013TIP3   OH2 1506   7.416   0.918   6.682
17013TIP3    H1 1507   7.347   0.983   6.694
17013TIP3    H2 1508   7.492   0.968   6.653
17014TIP3   OH2 1509   7.080   0.969   5.987
17014TIP3    H1 1510   7.010   0.993   6.047
17014TIP3    H2 1511   7.142   0.919   6.041
17015TIP3   OH2 1512   7.027   0.774   6.922
17015TIP3    H1 1513   7.050   0.839   6.988
17015TIP3    H2 1514   6.953   0.811   6.875
17016TIP3   OH2 1515   6.238   1.038   6.164
17016TIP3    H1 1516   6.213   0.993   6.083
17016TIP3    H2 1517   6.292   0.975   6.212
17017TIP3   OH2 1518   6.438   1.399   6.451
17017TIP3    H1 1519   6.422   1.378   6.359
17017TIP3    H2 1520   6.501   1.332   6.480
17018TIP3   OH2 1521   6.233   0.925   6.542
17018TIP3    H1 1522   6.290   0.904   6.468
17018TIP3    H2 1523   6.281   0.992   6.591
17019TIP3   OH2 1524   6.889   1.469   6.642
17019TIP3    H1 1525   6.873   1.546   6.696
17019TIP3    H2 1526   6.843   1.398   6.688
17020TIP3   OH2 1527   6.383   1.344   6.984
17020TIP3    H1 1528   6.313   1.383   7.036
17020TIP3    H2 1529   6.342   1.318   6.902
17021TIP3   OH2 1530   6.934   0.900   5.759
17021TIP3    H1 1531   6.990   0.938   5.827
17021TIP3    H2 1532   6.978   0.921   5.677
17022TIP3   OH2 1533   6.055   0.954   6.946
17022TIP3    H1 1534   6.067   1.027   7.007
17022TIP3    H2 1535   5.962   0.932   6.952
17023TIP3   OH2 1536   6.726   1.541   6.080
17023TIP3    H1 1537   6.805   1.571   6.125
17023TIP3    H2 1538   6.686   1.622   6.046
17024TIP3   OH2 1539   6.179   1.476   7.121
17024TIP3    H1 1540   6.177   1.532   7.043
17024TIP3    H2 1541   6.087   1.468   7.146
17025TIP3   OH2 1542   7.323   0.065   5.842
17025TIP3    H1 1543   7.229   0.083   5.831
17025TIP3    H2 1544   7.365   0.122   5.778
17026TIP3   OH2 1545   6.153   0.942   5.905
17026TIP3    H1 1546   6.087   1.005   5.877
17026TIP3    H2 1547   6.103   0.861   5.921
17027TIP3   OH2 1548   7.425   1.508   5.582
17027TIP3    H1 1549   7.449   1.597   5.609
17027TIP3    H2 1550   7.504   1.457   5.597
17028TIP3   OH2 1551   5.732   1.171   6.859
17028TIP3    H1 1552   5.676   1.174   6.782
17028TIP3    H2 1553   5.742   1.078   6.880
17029TIP3   OH2 1554   5.672   1.494   6.547
17029TIP3    H1 1555   5.746   1.503   6.608
17029TIP3    H2 1556   5.620   1.573   6.561
17030TIP3   OH2 1557   7.545   1.551   7.135
17030TIP3    H1 1558   7.531   1.456   7.129
17030TIP3    H2 1559   7.458   1.586   7.153
17031TIP3   OH2 1560   6.613   1.497   6.982
17031TIP3    H1 1561   6.599   1.563   7.050
17031TIP3    H2 1562   6.538   1.438   6.989
17032TIP3   OH2 1563   6.683   1.810   5.960
17032TIP3    H1 1564   6.634   1.818   5.878
17032TIP3    H2 1565   6.658   1.887   6.011
17033TIP3   OH2 1566   6.036   1.699   6.163
17033TIP3    H1 1567   6.061   1.667   6.249
17033TIP3    H2 1568   5.983   1.629   6.125
17034TIP3   OH2 1569   6.972   1.760   5.639
17034TIP3    H1 1570   7.036   1.692   5.618
17034TIP3    H2 1571   6.977   1.769   5.734
17035TIP3   OH2 1572   6.953   1.776   5.917
17035TIP3    H1 1573   6.859   1.781   5.934
17035TIP3    H2 1574   6.988   1.723   5.989
17036TIP3   OH2 1575   7.204   0.648   7.173
17036TIP3    H1 1576   7.113   0.670   7.188
17036TIP3    H2 1577   7.233   0.609   7.256
17037TIP3   OH2 1578   5.963   1.317   6.900
17037TIP3    H1 1579   5.990   1.278   6.984
17037TIP3    H2 1580   5.881   1.273   6.878
17038TIP3   OH2 1581   6.152   0.159   6.541
17038TIP3    H1 1582   6.074   0.173   6.487
17038TIP3    H2 1583   6.140   0.217   6.616
17039TIP3   OH2 1584   6.716   0.219   6.869
17039TIP3    H1 1585   6.716   0.267   6.952
17039TIP3    H2 1586   6.688   0.130   6.892
17040TIP3   OH2 1587   6.998   0.502   6.965
17040TIP3    H1 1588   6.947   0.486   7.044
17040TIP3    H2 1589   7.016   0.596   6.967
17041TIP3   OH2 1590   7.050   0.926   5.509
17041TIP3    H1 1591   7.010   0.981   5.442
17041TIP3    H2 1592   7.142   0.952   5.509
17042TIP3   OH2 1593   6.652   0.349   5.613
17042TIP3    H1 1594   6.590   0.324   5.683
17042TIP3    H2 1595   6.598   0.349   5.533
17043TIP3   OH2 1596   6.219   0.685   6.686
17043TIP3    H1 1597   6.155   0.684   6.757
17043TIP3    H2 1598   6.213   0.773   6.649
17044TIP3   OH2 1599   6.224   0.675   6.144
17044TIP3    H1 1600   6.129   0.662   6.146
17044TIP3    H2 1601   6.250   0.649   6.056
17045TIP3   OH2 1602   6.763   0.679   6.036
17045TIP3    H1 1603   6.733   0.764   6.004
17045TIP3    H2 1604   6.846   0.664   5.990
17046TIP3   OH2 1605   6.712   0.739   7.168
17046TIP3    H1 1606   6.663   0.665   7.205
17046TIP3    H2 1607   6.801   0.727   7.200
17047TIP3   OH2 1608   6.822   0.666   6.304
17047TIP3    H1 1609   6.866   0.748   6.322
17047TIP3    H2 1610   6.787   0.676   6.215
17048TIP3   OH2 1611   6.000   0.646   6.863
17048TIP3    H1 1612   6.000   0.689   6.949
17048TIP3    H2 1613   5.961   0.560   6.880
17049TIP3   OH2 1614   6.281   0.412   5.486
17049TIP3    H1 1615   6.273   0.372   5.573
17049TIP3    H2 1616   6.272   0.506   5.502
17050TIP3   OH2 1617   5.667   0.360   6.254
17050TIP3    H1 1618   5.701   0.379   6.341
17050TIP3    H2 1619   5.692   0.436   6.201
17051TIP3   OH2 1620   5.719   0.475   5.760
17051TIP3    H1 1621   5.789   0.516   5.710
17051TIP3    H2 1622   5.660   0.547   5.782
17052TIP3   OH2 1623   6.793   0.798   6.750
17052TIP3    H1 1624   6.843   0.739   6.694
17052TIP3    H2 1625   6.745   0.740   6.809
17053TIP3   OH2 1626   6.520   0.419   6.264
17053TIP3    H1 1627   6.426   0.406   6.277
17053TIP3    H2 1628   6.548   0.470   6.340
17054TIP3   OH2 1629   5.962   0.588   6.132
17054TIP3    H1 1630   5.887   0.622   6.084
17054TIP3    H2 1631   5.976   0.500   6.098
17055TIP3   OH2 1632   6.295   0.587   5.893
17055TIP3    H1 1633   6.389   0.572   5.902
17055TIP3    H2 1634   6.284   0.616   5.802
17056TIP3   OH2 1635   6.884   0.312   6.491
17056TIP3    H1 1636   6.921   0.343   6.574
17056TIP3    H2 1637   6.800   0.272   6.515
17057TIP3   OH2 1638   6.249   0.658   5.627
17057TIP3    H1 1639   6.168   0.689   5.587
17057TIP3    H2 1640   6.316   0.719   5.596
17058TIP3   OH2 1641   7.234   1.916   7.265
17058TIP3    H1 1642   7.262   1.919   7.173
17058TIP3    H2 1643   7.315   1.918   7.315
17059TIP3   OH2 1644   6.028   1.162   7.129
17059TIP3    H1 1645   6.094   1.176   7.197
17059TIP3    H2 1646   5.945   1.153   7.176
17060TIP3   OH2 1647   6.575   0.713   6.447
17060TIP3    H1 1648   6.663   0.681   6.426
17060TIP3    H2 1649   6.553   0.672   6.531
17061TIP3   OH2 1650   6.127   0.305   6.117
17061TIP3    H1 1651   6.046   0.255   6.114
17061TIP3    H2 1652   6.196   0.238   6.126
17062TIP3   OH2 1653   6.494   0.601   6.689
17062TIP3    H1 1654   6.411   0.647   6.701
17062TIP3    H2 1655   6.542   0.619   6.770
17063TIP3   OH2 1656   6.537   1.130   5.839
17063TIP3    H1 1657   6.468   1.103   5.779
17063TIP3    H2 1658   6.491   1.174   5.910
17064TIP3   OH2 1659   7.232   1.122   6.686
17064TIP3    H1 1660   7.293   1.176   6.636
17064TIP3    H2 1661   7.157   1.110   6.627
17065TIP3   OH2 1662   6.897   0.436   5.693
17065TIP3    H1 1663   6.814   0.405   5.658
17065TIP3    H2 1664   6.928   0.500   5.628
17066TIP3   OH2 1665   6.681   1.182   7.039
17066TIP3    H1 1666   6.722   1.117   7.096
17066TIP3    H2 1667   6.664   1.257   7.096
17067TIP3   OH2 1668   6.997   0.659   5.893
17067TIP3    H1 1669   7.059   0.612   5.838
17067TIP3    H2 1670   6.977   0.739   5.846
17068TIP3   OH2 1671   6.052   1.067   6.380
17068TIP3    H1 1672   6.113   1.069   6.307
17068TIP3    H2 1673   6.094   1.012   6.446
17069TIP3   OH2 1674   6.757   1.285   5.760
17069TIP3    H1 1675   6.717   1.372   5.760
17069TIP3    H2 1676   6.686   1.225   5.782
17070TIP3   OH2 1677   5.773   0.913   6.970
17070TIP3    H1 1678   5.807   0.892   7.057
17070TIP3    H2 1679   5.690   0.864   6.964
17071TIP3   OH2 1680   6.475   0.879   7.177
17071TIP3    H1 1681   6.410   0.843   7.118
17071TIP3    H2 1682   6.555   0.830   7.158
17072TIP3   OH2 1683   6.882   1.460   7.027
17072TIP3    H1 1684   6.794   1.470   6.992
17072TIP3    H2 1685   6.870   1.445   7.120
17073TIP3   OH2 1686   7.441   0.687   5.744
17073TIP3    H1 1687   7.379   0.657   5.677
17073TIP3    H2 1688   7.453   0.780   5.727
17074TIP3   OH2 1689   7.489   1.280   7.100
17074TIP3    H1 1690   7.400   1.274   7.065
17074TIP3    H2 1691   7.543   1.233   7.036
17075TIP3   OH2 1692   7.299   1.529   5.868
17075TIP3    H1 1693   7.249   1.462   5.915
17075TIP3    H2 1694   7.316   1.490   5.783
17076TIP3   OH2 1695   7.022   1.048   6.505
17076TIP3    H1 1696   6.927   1.040   6.511
17076TIP3    H2 1697   7.052   0.962   6.475
17077TIP3   OH2 1698   6.311   1.456   6.190
17077TIP3    H1 1699   6.321   1.543   6.151
17077TIP3    H2 1700   6.241   1.467   6.254
17078TIP3   OH2 1701   5.848   0.921   5.630
17078TIP3    H1 1702   5.896   0.983   5.684
17078TIP3    H2 1703   5.759   0.924   5.664
17079TIP3   OH2 1704   6.359   1.248   6.018
17079TIP3    H1 1705   6.354   1.324   6.076
17079TIP3    H2 1706   6.316   1.178   6.066
17080TIP3   OH2 1707   6.496   1.636   6.773
17080TIP3    H1 1708   6.554   1.707   6.748
17080TIP3    H2 1709   6.548   1.583   6.834
17081TIP3   OH2 1710   6.296   1.713   6.071
17081TIP3    H1 1711   6.204   1.722   6.096
17081TIP3    H2 1712   6.340   1.786   6.114
17082TIP3   OH2 1713   6.781   1.240   6.784
17082TIP3    H1 1714   6.727   1.226   6.863
17082TIP3    H2 1715   6.869   1.212   6.810
17083TIP3   OH2 1716   7.018   1.319   5.650
17083TIP3    H1 1717   7.077   1.269   5.706
17083TIP3    H2 1718   6.933   1.312   5.693
17084TIP3   OH2 1719   7.079   1.647   6.959
17084TIP3    H1 1720   7.007   1.585   6.971
17084TIP3    H2 1721   7.049   1.706   6.890
17085TIP3   OH2 1722   7.484   1.765   5.664
17085TIP3    H1 1723   7.545   1.838   5.654
17085TIP3    H2 1724   7.399   1.806   5.681
17086TIP3   OH2 1725   5.894   0.385   6.916
17086TIP3    H1 1726   5.800   0.395   6.907
17086TIP3    H2 1727   5.905   0.318   6.984
17087TIP3   OH2 1728   7.180   1.171   5.820
17087TIP3    H1 1729   7.139   1.111   5.883
17087TIP3    H2 1730   7.273   1.166   5.838
17088TIP3   OH2 1731   5.856   1.572   6.743
17088TIP3    H1 1732   5.903   1.508   6.797
17088TIP3    H2 1733   5.796   1.614   6.804
17089TIP3   OH2 1734   6.439   1.372   5.507
17089TIP3    H1 1735   6.530   1.342   5.503
17089TIP3    H2 1736   6.420   1.377   5.601
17090TIP3   OH2 1737   6.316   1.385   5.769
17090TIP3    H1 1738   6.329   1.336   5.850
17090TIP3    H2 1739   6.336   1.476   5.792
17091TIP3   OH2 1740   5.963   1.113   5.797
17091TIP3    H1 1741   5.898   1.158   5.850
17091TIP3    H2 1742   6.006   1.183   5.747
17092TIP3   OH2 1743   6.882   0.401   6.744
17092TIP3    H1 1744   6.928   0.436   6.821
17092TIP3    H2 1745   6.820   0.337   6.780
17093TIP3   OH2 1746   6.877   0.330   5.946
17093TIP3    H1 1747   6.881   0.371   5.859
17093TIP3    H2 1748   6.919   0.394   6.004
17094TIP3   OH2 1749   6.628   1.524   5.757
17094TIP3    H1 1750   6.544   1.552   5.795
17094TIP3    H2 1751   6.671   1.606   5.732
17095TIP3   OH2 1752   6.552   0.504   6.001
17095TIP3    H1 1753   6.625   0.566   6.002
17095TIP3    H2 1754   6.528   0.493   6.093
17096TIP3   OH2 1755   6.666   0.619   6.918
17096TIP3    H1 1756   6.676   0.671   6.998
17096TIP3    H2 1757   6.689   0.530   6.945
17097TIP3   OH2 1758   6.671   0.229   6.106
17097TIP3    H1 1759   6.607   0.294   6.136
17097TIP3    H2 1760   6.719   0.273   6.036
17098TIP3   OH2 1761   6.387   1.645   5.823
17098TIP3    H1 1762   6.387   1.727   5.773
17098TIP3    H2 1763   6.356   1.671   5.910
17099TIP3   OH2 1764   6.239   0.338   5.751
17099TIP3    H1 1765   6.218   0.410   5.811
17099TIP3    H2 1766   6.324   0.306   5.780
17100TIP3   OH2 1767   7.208   0.334   6.908
17100TIP3    H1 1768   7.135   0.393   6.928
17100TIP3    H2 1769   7.274   0.355   6.974
17101TIP3   OH2 1770   7.097   0.780   6.439
17101TIP3    H1 1771   7.031   0.735   6.491
17101TIP3    H2 1772   7.181   0.751   6.475
17102TIP3   OH2 1773   6.068   1.327   5.648
17102TIP3    H1 1774   6.140   1.362   5.701
17102TIP3    H2 1775   6.112   1.279   5.577
17103TIP3   OH2 1776   5.873   0.645   5.599
17103TIP3    H1 1777   5.872   0.739   5.618
17103TIP3    H2 1778   5.854   0.639   5.506
17104TIP3   OH2 1779   7.229   1.750   6.548
17104TIP3    H1 1780   7.217   1.820   6.484
17104TIP3    H2 1781   7.322   1.751   6.567
17105TIP3   OH2 1782   5.921   0.157   6.392
17105TIP3    H1 1783   5.907   0.162   6.297
17105TIP3    H2 1784   5.875   0.077   6.418
17106TIP3   OH2 1785   5.841   1.521   6.057
17106TIP3    H1 1786   5.794   1.546   6.137
17106TIP3    H2 1787   5.818   1.589   5.994
17107TIP3   OH2 1788   5.800   1.841   7.252
17107TIP3    H1 1789   5.867   1.831   7.319
17107TIP3    H2 1790   5.776   1.752   7.227
17108TIP3   OH2 1791   6.301   1.633   7.431
17108TIP3    H1 1792   6.247   1.666   7.502
17108TIP3    H2 1793   6.381   1.686   7.435
17109TIP3   OH2 1794   6.631   1.581   5.439
17109TIP3    H1 1795   6.543   1.550   5.459
17109TIP3    H2 1796   6.685   1.503   5.441
17110TIP3   OH2 1797   7.139   1.557   5.556
17110TIP3    H1 1798   7.098   1.475   5.585
17110TIP3    H2 1799   7.233   1.536   5.551
17111TIP3   OH2 1800   5.796   1.191   7.281
17111TIP3    H1 1801   5.747   1.126   7.331
17111TIP3    H2 1802   5.732   1.228   7.221
17112TIP3   OH2 1803   6.230   1.194   5.470
17112TIP3    H1 1804   6.256   1.128   5.533
17112TIP3    H2 1805   6.304   1.254   5.466
17113TIP3   OH2 1806   6.415   1.146   7.186
17113TIP3    H1 1807   6.438   1.188   7.103
17113TIP3    H2 1808   6.450   1.058   7.179
17114TIP3   OH2 1809   6.713   1.315   5.461
17114TIP3    H1 1810   6.760   1.284   5.539
17114TIP3    H2 1811   6.754   1.269   5.388
17115TIP3   OH2 1812   7.006   1.217   6.955
17115TIP3    H1 1813   7.099   1.240   6.949
17115TIP3    H2 1814   6.964   1.298   6.983
17116TIP3   OH2 1815   5.903   0.838   7.197
17116TIP3    H1 1816   5.975   0.775   7.203
17116TIP3    H2 1817   5.878   0.853   7.289
17117TIP3   OH2 1818   6.323   1.024   5.686
17117TIP3    H1 1819   6.274   0.988   5.760
17117TIP3    H2 1820   6.365   0.947   5.647
17118TIP3   OH2 1821   6.291   0.794   6.984
17118TIP3    H1 1822   6.210   0.845   6.976
17118TIP3    H2 1823   6.347   0.828   6.915
17119TIP3   OH2 1824   6.452   0.821   5.542
17119TIP3    H1 1825   6.450   0.822   5.446
17119TIP3    H2 1826   6.544   0.807   5.564
17120TIP3   OH2 1827   6.774   1.025   7.257
17120TIP3    H1 1828   6.859   1.007   7.299
17120TIP3    H2 1829   6.737   0.938   7.240
17121TIP3   OH2 1830   7.303   1.045   5.473
17121TIP3    H1 1831   7.340   1.024   5.388
17121TIP3    H2 1832   7.257   1.129   5.459
17122TIP3   OH2 1833   6.318   0.538   7.086
17122TIP3    H1 1834   6.331   0.479   7.012
17122TIP3    H2 1835   6.315   0.626   7.047
17123TIP3   OH2 1836   6.344   0.404   6.841
17123TIP3    H1 1837   6.397   0.453   6.779
17123TIP3    H2 1838   6.258   0.397   6.799
17124TIP3   OH2 1839   6.471   0.902   6.809
17124TIP3    H1 1840   6.562   0.926   6.825
17124TIP3    H2 1841   6.433   0.980   6.767
17125TIP3   OH2 1842   6.951   0.692   7.290
17125TIP3    H1 1843   6.939   0.626   7.359
17125TIP3    H2 1844   6.980   0.770   7.337
17126TIP3   OH2 1845   7.092   0.984   7.082
17126TIP3    H1 1846   7.058   1.064   7.041
17126TIP3    H2 1847   7.187   0.997   7.084
17127TIP3   OH2 1848   6.090   0.634   7.209
17127TIP3    H1 1849   6.032   0.560   7.227
17127TIP3    H2 1850   6.166   0.596   7.165
17128TIP3   OH2 1851   6.349   0.131   6.877
17128TIP3    H1 1852   6.360   0.225   6.870
17128TIP3    H2 1853   6.258   0.120   6.906
17129TIP3   OH2 1854   6.560   0.530   7.245
17129TIP3    H1 1855   6.563   0.497   7.335
17129TIP3    H2 1856   6.467   0.523   7.220
17130TIP3   OH2 1857   6.746   0.396   7.088
17130TIP3    H1 1858   6.676   0.431   7.144
17130TIP3    H2 1859   6.809   0.357   7.149
17131TIP3   OH2 1860   6.924   0.312   7.276
17131TIP3    H1 1861   6.967   0.229   7.295
17131TIP3    H2 1862   6.935   0.364   7.355
17132TIP3   OH2 1863   5.933   0.418   7.255
17132TIP3    H1 1864   5.907   0.330   7.228
17132TIP3    H2 1865   5.873   0.441   7.327
17133TIP3   OH2 1866   6.479   0.134   7.144
17133TIP3    H1 1867   6.514   0.050   7.172
17133TIP3    H2 1868   6.443   0.118   7.057
17134TIP3   OH2 1869   6.399   0.285   7.363
17134TIP3    H1 1870   6.443   0.228   7.300
17134TIP3    H2 1871   6.324   0.321   7.315
17135TIP3   OH2 1872   6.440   1.866   5.659
17135TIP3    H1 1873   6.531   1.840   5.649
17135TIP3    H2 1874   6.422   1.920   5.582
17136TIP3   OH2 1875   5.789   1.375   5.623
17136TIP3    H1 1876   5.884   1.370   5.634
17136TIP3    H2 1877   5.773   1.334   5.537
17137TIP3   OH2 1878   5.677   1.836   6.131
17137TIP3    H1 1879   5.599   1.809   6.081
17137TIP3    H2 1880   5.692   1.764   6.193
17138TIP3   OH2 1881   5.743   1.628   6.302
17138TIP3    H1 1882   5.701   1.560   6.355
17138TIP3    H2 1883   5.798   1.676   6.364
17139TIP3   OH2 1884   7.493   1.772   6.624
17139TIP3    H1 1885   7.500   1.748   6.716
17139TIP3    H2 1886   7.583   1.772   6.592
17140TIP3   OH2 1887   7.477   1.690   6.893
17140TIP3    H1 1888   7.414   1.626   6.861
17140TIP3    H2 1889   7.518   1.647   6.968
17141TIP3   OH2 1890   7.235   1.330   7.395
17141TIP3    H1 1891   7.233   1.243   7.356
17141TIP3    H2 1892   7.292   1.320   7.471
17142TIP3   OH2 1893   7.445   1.119   5.899
17142TIP3    H1 1894   7.515   1.184   5.906
17142TIP3    H2 1895   7.456   1.063   5.975
17143TIP3   OH2 1896   7.483   0.934   6.109
17143TIP3    H1 1897   7.401   0.914   6.153
17143TIP3    H2 1898   7.545   0.954   6.179
17144TIP3   OH2 1899   7.486   1.224   6.622
17144TIP3    H1 1900   7.549   1.161   6.587
17144TIP3    H2 1901   7.519   1.310   6.594
17145TIP3   OH2 1902   7.279   1.518   6.808
17145TIP3    H1 1903   7.207   1.559   6.855
17145TIP3    H2 1904   7.243   1.500   6.721
17146TIP3   OH2 1905   7.465   0.953   5.681
17146TIP3    H1 1906   7.408   0.986   5.612
17146TIP3    H2 1907   7.453   1.014   5.754
17147TIP3   OH2 1908   7.272   0.612   5.534
17147TIP3    H1 1909   7.297   0.633   5.444
17147TIP3    H2 1910   7.266   0.517   5.537
17148TIP3   OH2 1911   7.226   0.811   6.180
17148TIP3    H1 1912   7.240   0.717   6.164
17148TIP3    H2 1913   7.177   0.814   6.262
17149TIP3   OH2 1914   5.741   1.009   6.577
17149TIP3    H1 1915   5.752   0.994   6.483
17149TIP3    H2 1916   5.818   0.968   6.617
17150TIP3   OH2 1917   7.365   1.003   7.095
17150TIP3    H1 1918   7.400   0.915   7.111
17150TIP3    H2 1919   7.415   1.060   7.152
17151TIP3   OH2 1920   7.456   0.742   7.120
17151TIP3    H1 1921   7.368   0.706   7.131
17151TIP3    H2 1922   7.507   0.702   7.190
17152TIP3   OH2 1923   7.253   0.344   5.542
17152TIP3    H1 1924   7.326   0.316   5.596
17152TIP3    H2 1925   7.221   0.264   5.499
17153TIP3   OH2 1926   7.320   0.531   6.102
17153TIP3    H1 1927   7.284   0.502   6.019
17153TIP3    H2 1928   7.399   0.579   6.079
17154TIP3   OH2 1929   7.305   0.635   6.550
17154TIP3    H1 1930   7.401   0.637   6.549
17154TIP3    H2 1931   7.282   0.645   6.642
17155TIP3   OH2 1932   7.280   0.702   6.816
17155TIP3    H1 1933   7.200   0.719   6.865
17155TIP3    H2 1934   7.317   0.788   6.798
17156TIP3   OH2 1935   5.694   0.533   7.124
17156TIP3    H1 1936   5.773   0.540   7.178
17156TIP3    H2 1937   5.651   0.453   7.154
17157TIP3   OH2 1938   7.518   0.087   7.342
17157TIP3    H1 1939   7.515   8.137   7.361
17157TIP3    H2 1940   7.563   0.126   7.416
17158TIP3   OH2 1941   7.246   0.232   6.068
17158TIP3    H1 1942   7.303   0.156   6.076
17158TIP3    H2 1943   7.176   0.204   6.010
17159TIP3   OH2 1944   5.823   0.399   6.482
17159TIP3    H1 1945   5.857   0.311   6.462
17159TIP3    H2 1946   5.902   0.451   6.497
17160TIP3   OH2 1947   5.626   0.664   6.530
17160TIP3    H1 1948   5.711   0.676   6.486
17160TIP3    H2 1949   5.625   0.730   6.599
17161TIP3   OH2 1950   7.391   0.276   7.186
17161TIP3    H1 1951   7.334   0.315   7.252
17161TIP3    H2 1952   7.437   0.206   7.232
17162TIP3   OH2 1953   7.468   0.256   5.687
17162TIP3    H1 1954   7.535   0.191   5.669
17162TIP3    H2 1955   7.517   0.337   5.704
17163TIP3   OH2 1956   5.706   0.253   5.927
17163TIP3    H1 1957   5.614   0.256   5.954
17163TIP3    H2 1958   5.720   0.335   5.879
17164TIP3   OH2 1959   7.149   1.815   6.159
17164TIP3    H1 1960   7.225   1.807   6.102
17164TIP3    H2 1961   7.180   1.863   6.236
17165TIP3   OH2 1962   5.674   0.131   6.809
17165TIP3    H1 1963   5.608   0.141   6.877
17165TIP3    H2 1964   5.653   0.198   6.744
17166TIP3   OH2 1965   5.930   1.440   7.238
17166TIP3    H1 1966   5.851   1.488   7.214
17166TIP3    H2 1967   5.899   1.355   7.266
17167TIP3   OH2 1968   6.236   1.595   6.859
17167TIP3    H1 1969   6.198   1.681   6.840
17167TIP3    H2 1970   6.329   1.605   6.838
17168TIP3   OH2 1971   6.615   1.707   7.164
17168TIP3    H1 1972   6.645   1.671   7.247
17168TIP3    H2 1973   6.688   1.760   7.132
17169TIP3   OH2 1974   6.837   1.853   7.082
17169TIP3    H1 1975   6.908   1.800   7.047
17169TIP3    H2 1976   6.871   1.891   7.162
17170TIP3   OH2 1977   7.208   0.064   6.972
17170TIP3    H1 1978   7.202   0.156   6.946
17170TIP3    H2 1979   7.269   0.064   7.046
17171TIP3   OH2 1980   5.924   1.918   6.841
17171TIP3    H1 1981   5.837   1.934   6.805
17171TIP3    H2 1982   5.921   1.955   6.929
17172TIP3   OH2 1983   6.185   1.859   6.784
17172TIP3    H1 1984   6.094   1.875   6.808
17172TIP3    H2 1985   6.195   1.902   6.699
17173TIP3   OH2 1986   6.643   1.851   6.680
17173TIP3    H1 1987   6.586   1.886   6.612
17173TIP3    H2 1988   6.650   1.921   6.745
17174TIP3   OH2 1989   6.878   1.723   6.751
17174TIP3    H1 1990   6.796   1.765   6.724
17174TIP3    H2 1991   6.944   1.791   6.741
17175TIP3   OH2 1992   7.116   1.873   6.769
17175TIP3    H1 1993   7.140   1.965   6.755
17175TIP3    H2 1994   7.157   1.827   6.696
17176TIP3   OH2 1995   5.908   1.732   6.505
17176TIP3    H1 1996   5.888   1.698   6.592
17176TIP3    H2 1997   5.988   1.687   6.479
17177TIP3   OH2 1998   6.130   1.598   6.402
17177TIP3    H1 1999   6.116   1.508   6.430
17177TIP3    H2 2000   6.210   1.625   6.447
17178TIP3   OH2 2001   6.376   1.654   6.524
17178TIP3    H1 2002   6.403   1.568   6.490
17178TIP3    H2 2003   6.402   1.653   6.616
17179TIP3   OH2 2004   6.667   0.151   6.442
17179TIP3    H1 2005   6.573   0.149   6.425
17179TIP3    H2 2006   6.680   0.092   6.516
17180TIP3   OH2 2007   7.196   0.152   6.368
17180TIP3    H1 2008   7.202   0.176   6.460
17180TIP3    H2 2009   7.106   0.122   6.356
17181TIP3   OH2 2010   7.481   0.132   6.233
17181TIP3    H1 2011   7.547   0.070   6.201
17181TIP3    H2 2012   7.532   0.206   6.266
17182TIP3   OH2 2013   5.898   0.157   6.114
17182TIP3    H1 2014   5.825   0.183   6.058
17182TIP3    H2 2015   5.920   0.068   6.087
17183TIP3   OH2 2016   5.781   0.128   5.686
17183TIP3    H1 2017   5.870   0.160   5.670
17183TIP3    H2 2018   5.761   0.155   5.776
17184TIP3   OH2 2019   6.331   0.126   6.177
17184TIP3    H1 2020   6.397   0.073   6.133
17184TIP3    H2 2021   6.349   0.113   6.270
17185TIP3   OH2 2022   6.940   0.035   6.307
17185TIP3    H1 2023   6.966   8.119   6.237
17185TIP3    H2 2024   6.912   8.122   6.379
17186TIP3   OH2 2025   7.048   0.112   5.900
17186TIP3    H1 2026   6.984   0.183   5.907
17186TIP3    H2 2027   6.998   0.036   5.871
17187TIP3   OH2 2028   5.779   1.723   5.883
17187TIP3    H1 2029   5.715   1.728   5.813
17187TIP3    H2 2030   5.756   1.794   5.943
17188TIP3   OH2 2031   6.022   0.230   5.616
17188TIP3    H1 2032   6.044   0.260   5.528
17188TIP3    H2 2033   6.093   0.262   5.671
17189TIP3   OH2 2034   6.495   0.290   5.840
17189TIP3    H1 2035   6.508   0.215   5.899
17189TIP3    H2 2036   6.517   0.366   5.893
17190TIP3   OH2 2037   6.696   1.771   5.632
17190TIP3    H1 2038   6.791   1.782   5.635
17190TIP3    H2 2039   6.681   1.712   5.557
17191TIP3   OH2 2040   7.354   1.777   5.971
17191TIP3    H1 2041   7.338   1.688   5.940
17191TIP3    H2 2042   7.339   1.833   5.895
17192TIP3   OH2 2043   5.916   0.170   7.116
17192TIP3    H1 2044   5.843   0.108   7.119
17192TIP3    H2 2045   5.993   0.118   7.141
17193TIP3   OH2 2046   6.116   8.124   7.208
17193TIP3    H1 2047   6.183   8.124   7.277
17193TIP3    H2 2048   6.060   8.050   7.230
17194TIP3   OH2 2049   6.013   1.779   5.522
17194TIP3    H1 2050   5.929   1.791   5.566
17194TIP3    H2 2051   6.060   1.717   5.577
17195TIP3   OH2 2052   7.043   0.060   7.325
17195TIP3    H1 2053   7.017   8.112   7.326
17195TIP3    H2 2054   7.120   0.064   7.383
17196TIP3   OH2 2055   7.291   1.659   7.142
17196TIP3    H1 2056   7.218   1.644   7.082
17196TIP3    H2 2057   7.252   1.705   7.217
17197TIP3   OH2 2058   7.857   0.899   6.732
17197TIP3    H1 2059   7.876   0.935   6.819
17197TIP3    H2 2060   7.943   0.894   6.690
17198TIP3   OH2 2061   7.894   1.318   6.513
17198TIP3    H1 2062   7.910   1.232   6.475
17198TIP3    H2 2063   7.940   1.317   6.597
17199TIP3   OH2 2064   7.535   0.681   6.006
17199TIP3    H1 2065   7.529   0.770   6.040
17199TIP3    H2 2066   7.509   0.688   5.914
17200TIP3   OH2 2067   7.700   0.956   6.293
17200TIP3    H1 2068   7.722   0.864   6.310
17200TIP3    H2 2069   7.784   1.000   6.287
17201TIP3   OH2 2070   7.974   0.469   6.404
17201TIP3    H1 2071   8.049   0.528   6.397
17201TIP3    H2 2072   8.013   0.383   6.418
17202TIP3   OH2 2073   7.752   0.697   6.364
17202TIP3    H1 2074   7.816   0.667   6.429
17202TIP3    H2 2075   7.755   0.631   6.295
17203TIP3   OH2 2076   7.992   0.326   6.733
17203TIP3    H1 2077   8.040   0.407   6.749
17203TIP3    H2 2078   7.923   0.326   6.800
17204TIP3   OH2 2079   7.877   0.600   6.620
17204TIP3    H1 2080   7.948   0.608   6.683
17204TIP3    H2 2081   7.915   0.553   6.546
17205TIP3   OH2 2082   8.017   1.322   6.761
17205TIP3    H1 2083   8.057   1.407   6.782
17205TIP3    H2 2084   7.943   1.315   6.821
17206TIP3   OH2 2085   7.660   1.298   5.891
17206TIP3    H1 2086   7.653   1.343   5.807
17206TIP3    H2 2087   7.684   1.366   5.953
17207TIP3   OH2 2088   8.060   0.994   6.172
17207TIP3    H1 2089   8.061   1.000   6.077
17207TIP3    H2 2090   0.007   0.975   6.196
17208TIP3   OH2 2091   7.945   0.987   6.990
17208TIP3    H1 2092   7.948   1.075   7.029
17208TIP3    H2 2093   7.899   0.934   7.056
17209TIP3   OH2 2094   8.050   1.651   7.103
17209TIP3    H1 2095   8.059   1.609   7.017
17209TIP3    H2 2096   7.972   1.610   7.141
17210TIP3   OH2 2097   8.004   0.896   5.878
17210TIP3    H1 2098   7.947   0.969   5.854
17210TIP3    H2 2099   7.959   0.852   5.950
17211TIP3   OH2 2100   7.605   1.149   6.882
17211TIP3    H1 2101   7.551   1.165   6.805
17211TIP3    H2 2102   7.604   1.053   6.892
17212TIP3   OH2 2103   7.647   1.440   6.544
17212TIP3    H1 2104   7.728   1.394   6.525
17212TIP3    H2 2105   7.666   1.493   6.621
17213TIP3   OH2 2106   7.919   1.699   6.179
17213TIP3    H1 2107   7.946   1.659   6.261
17213TIP3    H2 2108   7.874   1.629   6.131
17214TIP3   OH2 2109   7.803   1.336   6.931
17214TIP3    H1 2110   7.838   1.312   7.017
17214TIP3    H2 2111   7.734   1.272   6.914
17215TIP3   OH2 2112   8.052   0.213   6.479
17215TIP3    H1 2113   8.026   0.242   6.567
17215TIP3    H2 2114   8.141   0.179   6.490
17216TIP3   OH2 2115   8.102   0.589   6.783
17216TIP3    H1 2116   8.070   0.605   6.871
17216TIP3    H2 2117   0.051   0.610   6.787
17217TIP3   OH2 2118   8.053   0.653   6.127
17217TIP3    H1 2119   8.048   0.693   6.214
17217TIP3    H2 2120   8.101   0.571   6.142
17218TIP3   OH2 2121   7.851   0.603   6.933
17218TIP3    H1 2122   7.883   0.632   7.019
17218TIP3    H2 2123   7.842   0.508   6.942
17219TIP3   OH2 2124   7.545   0.396   6.287
17219TIP3    H1 2125   7.587   0.401   6.373
17219TIP3    H2 2126   7.607   0.437   6.227
17220TIP3   OH2 2127   7.623   0.475   5.761
17220TIP3    H1 2128   7.702   0.505   5.717
17220TIP3    H2 2129   7.564   0.551   5.759
17221TIP3   OH2 2130   7.736   0.529   6.139
17221TIP3    H1 2131   7.687   0.583   6.076
17221TIP3    H2 2132   7.822   0.518   6.099
17222TIP3   OH2 2133   8.076   0.716   5.668
17222TIP3    H1 2134   7.994   0.671   5.645
17222TIP3    H2 2135   8.054   0.767   5.746
17223TIP3   OH2 2136   7.900   1.210   7.168
17223TIP3    H1 2137   7.971   1.218   7.232
17223TIP3    H2 2138   7.823   1.190   7.220
17224TIP3   OH2 2139   7.986   0.321   6.079
17224TIP3    H1 2140   7.917   0.268   6.119
17224TIP3    H2 2141   8.030   0.362   6.153
17225TIP3   OH2 2142   7.963   1.061   6.421
17225TIP3    H1 2143   7.994   1.045   6.332
17225TIP3    H2 2144   8.032   1.026   6.477
17226TIP3   OH2 2145   7.635   0.860   6.947
17226TIP3    H1 2146   7.695   0.879   7.019
17226TIP3    H2 2147   7.559   0.820   6.988
17227TIP3   OH2 2148   7.731   0.908   5.624
17227TIP3    H1 2149   7.776   0.972   5.678
17227TIP3    H2 2150   7.638   0.922   5.643
17228TIP3   OH2 2151   7.802   0.322   6.941
17228TIP3    H1 2152   7.722   0.354   6.982
17228TIP3    H2 2153   7.837   0.258   7.003
17229TIP3   OH2 2154   7.757   1.584   6.767
17229TIP3    H1 2155   7.777   1.507   6.820
17229TIP3    H2 2156   7.764   1.658   6.827
17230TIP3   OH2 2157   7.838   1.105   5.792
17230TIP3    H1 2158   7.773   1.153   5.842
17230TIP3    H2 2159   7.885   1.172   5.742
17231TIP3   OH2 2160   8.124   0.342   5.665
17231TIP3    H1 2161   0.022   0.404   5.725
17231TIP3    H2 2162   0.026   0.259   5.680
17232TIP3   OH2 2163   7.958   1.320   5.655
17232TIP3    H1 2164   8.008   1.377   5.713
17232TIP3    H2 2165   8.025   1.279   5.600
17233TIP3   OH2 2166   7.804   0.641   5.606
17233TIP3    H1 2167   7.778   0.733   5.616
17233TIP3    H2 2168   7.795   0.623   5.513
17234TIP3   OH2 2169   7.745   0.139   6.434
17234TIP3    H1 2170   7.782   0.146   6.346
17234TIP3    H2 2171   7.805   0.080   6.480
17235TIP3   OH2 2172   7.723   1.522   6.056
17235TIP3    H1 2173   7.677   1.549   6.136
17235TIP3    H2 2174   7.701   1.590   5.993
17236TIP3   OH2 2175   7.686   1.806   7.265
17236TIP3    H1 2176   7.749   1.775   7.329
17236TIP3    H2 2177   7.660   1.728   7.217
17237TIP3   OH2 2178   7.678   1.170   7.327
17237TIP3    H1 2179   7.671   1.156   7.421
17237TIP3    H2 2180   7.596   1.214   7.303
17238TIP3   OH2 2181   0.027   1.210   5.514
17238TIP3    H1 2182   0.060   1.124   5.539
17238TIP3    H2 2183   0.035   1.212   5.418
17239TIP3   OH2 2184   7.778   0.883   7.185
17239TIP3    H1 2185   7.798   0.798   7.224
17239TIP3    H2 2186   7.761   0.940   7.260
17240TIP3   OH2 2187   7.944   0.635   7.186
17240TIP3    H1 2188   7.890   0.563   7.217
17240TIP3    H2 2189   7.991   0.665   7.264
17241TIP3   OH2 2190   7.810   0.400   7.248
17241TIP3    H1 2191   7.841   0.316   7.214
17241TIP3    H2 2192   7.814   0.390   7.343
17242TIP3   OH2 2193   7.679   1.370   5.610
17242TIP3    H1 2194   7.773   1.361   5.625
17242TIP3    H2 2195   7.663   1.329   5.525
17243TIP3   OH2 2196   7.551   1.838   6.152
17243TIP3    H1 2197   7.488   1.810   6.086
17243TIP3    H2 2198   7.565   1.761   6.207
17244TIP3   OH2 2199   7.624   1.620   6.311
17244TIP3    H1 2200   7.592   1.545   6.360
17244TIP3    H2 2201   7.674   1.671   6.375
17245TIP3   OH2 2202   7.651   1.011   6.566
17245TIP3    H1 2203   7.675   1.003   6.474
17245TIP3    H2 2204   7.730   0.987   6.614
17246TIP3   OH2 2205   7.591   0.438   7.085
17246TIP3    H1 2206   7.656   0.445   7.155
17246TIP3    H2 2207   7.520   0.385   7.123
17247TIP3   OH2 2208   7.683   0.390   6.521
17247TIP3    H1 2209   7.718   0.303   6.501
17247TIP3    H2 2210   7.758   0.439   6.555
17248TIP3   OH2 2211   7.576   0.709   6.582
17248TIP3    H1 2212   7.623   0.721   6.499
17248TIP3    H2 2213   7.525   0.790   6.592
17249TIP3   OH2 2214   7.623   0.258   5.945
17249TIP3    H1 2215   7.528   0.252   5.940
17249TIP3    H2 2216   7.645   0.340   5.900
17250TIP3   OH2 2217   7.526   0.127   6.753
17250TIP3    H1 2218   7.608   0.140   6.801
17250TIP3    H2 2219   7.494   0.215   6.735
17251TIP3   OH2 2220   7.818   1.541   7.213
17251TIP3    H1 2221   7.728   1.525   7.183
17251TIP3    H2 2222   7.829   1.485   7.289
17252TIP3   OH2 2223   8.107   1.576   6.832
17252TIP3    H1 2224   8.079   1.660   6.798
17252TIP3    H2 2225   0.059   1.577   6.822
17253TIP3   OH2 2226   7.805   1.885   6.863
17253TIP3    H1 2227   7.725   1.933   6.844
17253TIP3    H2 2228   7.831   1.915   6.951
17254TIP3   OH2 2229   8.042   1.825   6.736
17254TIP3    H1 2230   7.955   1.844   6.772
17254TIP3    H2 2231   8.050   1.881   6.659
17255TIP3   OH2 2232   7.775   1.736   6.529
17255TIP3    H1 2233   7.771   1.696   6.616
17255TIP3    H2 2234   7.851   1.696   6.487
17256TIP3   OH2 2235   7.972   1.571   6.426
17256TIP3    H1 2236   7.935   1.484   6.442
17256TIP3    H2 2237   8.058   1.569   6.468
17257TIP3   OH2 2238   7.774   0.154   6.152
17257TIP3    H1 2239   7.727   0.193   6.078
17257TIP3    H2 2240   7.779   0.061   6.131
17258TIP3   OH2 2241   7.692   0.093   5.730
17258TIP3    H1 2242   7.755   0.146   5.681
17258TIP3    H2 2243   7.684   0.138   5.814
17259TIP3   OH2 2244   7.669   1.714   5.869
17259TIP3    H1 2245   7.598   1.710   5.805
17259TIP3    H2 2246   7.679   1.808   5.888
17260TIP3   OH2 2247   7.859   0.269   5.606
17260TIP3    H1 2248   7.868   0.270   5.511
17260TIP3    H2 2249   7.943   0.301   5.638
17261TIP3   OH2 2250   7.873   0.143   7.156
17261TIP3    H1 2251   7.805   0.080   7.179
17261TIP3    H2 2252   7.947   0.120   7.212
17262TIP3   OH2 2253   8.056   0.039   7.372
17262TIP3    H1 2254   8.130   0.084   7.412
17262TIP3    H2 2255   8.034   8.113   7.434
17263TIP3   OH2 2256   7.885   1.789   5.522
17263TIP3    H1 2257   7.800   1.770   5.560
17263TIP3    H2 2258   7.947   1.737   5.573
17264TIP3   OH2 2259   1.206   2.924   6.137
17264TIP3    H1 2260   1.193   3.019   6.131
17264TIP3    H2 2261   1.134   2.887   6.086
17265TIP3   OH2 2262   1.066   2.854   6.537
17265TIP3    H1 2263   1.098   2.812   6.617
17265TIP3    H2 2264   1.021   2.784   6.490
17266TIP3   OH2 2265   0.321   2.778   6.692
17266TIP3    H1 2266   0.315   2.690   6.729
17266TIP3    H2 2267   0.357   2.831   6.763
17267TIP3   OH2 2268   1.456   3.159   6.365
17267TIP3    H1 2269   1.419   3.081   6.406
17267TIP3    H2 2270   1.478   3.217   6.438
17268TIP3   OH2 2271   0.437   3.226   6.454
17268TIP3    H1 2272   0.406   3.136   6.439
17268TIP3    H2 2273   0.530   3.216   6.473
17269TIP3   OH2 2274   0.102   2.704   5.954
17269TIP3    H1 2275   0.138   2.727   6.039
17269TIP3    H2 2276   0.010   2.730   5.959
17270TIP3   OH2 2277   0.188   2.791   6.212
17270TIP3    H1 2278   0.191   2.714   6.267
17270TIP3    H2 2279   0.242   2.856   6.257
17271TIP3   OH2 2280   1.185   3.640   6.378
17271TIP3    H1 2281   1.226   3.571   6.327
17271TIP3    H2 2282   1.192   3.610   6.469
17272TIP3   OH2 2283   0.937   3.113   6.550
17272TIP3    H1 2284   0.978   3.027   6.536
17272TIP3    H2 2285   1.008   3.169   6.580
17273TIP3   OH2 2286   1.810   2.204   6.614
17273TIP3    H1 2287   1.813   2.262   6.691
17273TIP3    H2 2288   1.883   2.232   6.559
17274TIP3   OH2 2289   1.240   2.513   6.539
17274TIP3    H1 2290   1.259   2.422   6.565
17274TIP3    H2 2291   1.201   2.505   6.452
17275TIP3   OH2 2292   0.569   2.323   6.303
17275TIP3    H1 2293   0.579   2.404   6.254
17275TIP3    H2 2294   0.529   2.262   6.241
17276TIP3   OH2 2295   1.361   2.349   6.140
17276TIP3    H1 2296   1.404   2.325   6.222
17276TIP3    H2 2297   1.429   2.393   6.089
17277TIP3   OH2 2298   0.221   2.560   6.360
17277TIP3    H1 2299   0.286   2.521   6.418
17277TIP3    H2 2300   0.232   2.512   6.277
17278TIP3   OH2 2301   0.704   2.715   6.335
17278TIP3    H1 2302   0.789   2.678   6.360
17278TIP3    H2 2303   0.665   2.648   6.278
17279TIP3   OH2 2304   1.809   2.339   6.850
17279TIP3    H1 2305   1.777   2.429   6.851
17279TIP3    H2 2306   1.745   2.290   6.902
17280TIP3   OH2 2307   0.439   2.233   6.721
17280TIP3    H1 2308   0.413   2.296   6.654
17280TIP3    H2 2309   0.372   2.241   6.788
17281TIP3   OH2 2310   1.171   3.183   6.045
17281TIP3    H1 2311   1.159   3.177   5.950
17281TIP3    H2 2312   1.128   3.265   6.070
17282TIP3   OH2 2313   0.697   3.036   6.678
17282TIP3    H1 2314   0.647   3.104   6.724
17282TIP3    H2 2315   0.770   3.082   6.639
17283TIP3   OH2 2316   1.476   2.305   6.381
17283TIP3    H1 2317   1.406   2.274   6.439
17283TIP3    H2 2318   1.529   2.363   6.436
17284TIP3   OH2 2319   0.406   2.408   6.506
17284TIP3    H1 2320   0.461   2.462   6.563
17284TIP3    H2 2321   0.467   2.372   6.441
17285TIP3   OH2 2322   0.551   3.230   6.814
17285TIP3    H1 2323   0.558   3.326   6.815
17285TIP3    H2 2324   0.460   3.213   6.837
17286TIP3   OH2 2325   0.166   3.199   5.912
17286TIP3    H1 2326   0.146   3.248   5.832
17286TIP3    H2 2327   0.178   3.265   5.979
17287TIP3   OH2 2328   1.486   3.339   6.583
17287TIP3    H1 2329   1.393   3.340   6.607
17287TIP3    H2 2330   1.504   3.429   6.556
17288TIP3   OH2 2331   1.545   2.102   6.629
17288TIP3    H1 2332   1.488   2.176   6.647
17288TIP3    H2 2333   1.633   2.139   6.631
17289TIP3   OH2 2334   0.782   1.919   6.462
17289TIP3    H1 2335   0.764   1.826   6.475
17289TIP3    H2 2336   0.705   1.963   6.497
17290TIP3   OH2 2337   1.317   3.477   6.197
17290TIP3    H1 2338   1.367   3.398   6.175
17290TIP3    H2 2339   1.381   3.547   6.193
17291TIP3   OH2 2340   1.440   3.245   6.104
17291TIP3    H1 2341   1.354   3.208   6.083
17291TIP3    H2 2342   1.461   3.209   6.190
17292TIP3   OH2 2343   1.635   3.063   6.916
17292TIP3    H1 2344   1.623   3.030   6.827
17292TIP3    H2 2345   1.636   3.158   6.908
17293TIP3   OH2 2346   1.056   2.831   5.918
17293TIP3    H1 2347   0.993   2.899   5.895
17293TIP3    H2 2348   1.121   2.833   5.849
17294TIP3   OH2 2349   1.090   2.671   5.545
17294TIP3    H1 2350   1.124   2.724   5.616
17294TIP3    H2 2351   1.158   2.606   5.529
17295TIP3   OH2 2352   1.771   2.772   6.684
17295TIP3    H1 2353   1.699   2.836   6.678
17295TIP3    H2 2354   1.848   2.821   6.655
17296TIP3   OH2 2355   1.416   2.845   5.982
17296TIP3    H1 2356   1.349   2.873   6.045
17296TIP3    H2 2357   1.484   2.805   6.037
17297TIP3   OH2 2358   1.410   2.659   6.898
17297TIP3    H1 2359   1.405   2.702   6.984
17297TIP3    H2 2360   1.340   2.701   6.847
17298TIP3   OH2 2361   0.565   2.910   6.195
17298TIP3    H1 2362   0.549   2.870   6.109
17298TIP3    H2 2363   0.621   2.848   6.240
17299TIP3   OH2 2364   0.722   3.262   6.444
17299TIP3    H1 2365   0.727   3.272   6.349
17299TIP3    H2 2366   0.799   3.210   6.467
17300TIP3   OH2 2367   0.685   2.774   6.614
17300TIP3    H1 2368   0.692   2.768   6.518
17300TIP3    H2 2369   0.679   2.867   6.632
17301TIP3   OH2 2370   1.222   3.329   6.676
17301TIP3    H1 2371   1.205   3.422   6.658
17301TIP3    H2 2372   1.221   3.323   6.771
17302TIP3   OH2 2373   0.713   3.251   7.046
17302TIP3    H1 2374   0.654   3.305   7.099
17302TIP3    H2 2375   0.660   3.227   6.969
17303TIP3   OH2 2376   1.277   2.790   5.748
17303TIP3    H1 2377   1.331   2.822   5.821
17303TIP3    H2 2378   1.332   2.804   5.671
17304TIP3   OH2 2379   0.393   2.854   6.956
17304TIP3    H1 2380   0.405   2.933   7.009
17304TIP3    H2 2381   0.302   2.830   6.970
17305TIP3   OH2 2382   1.077   3.446   6.067
17305TIP3    H1 2383   1.154   3.459   6.122
17305TIP3    H2 2384   1.039   3.533   6.057
17306TIP3   OH2 2385   0.506   3.422   7.131
17306TIP3    H1 2386   0.515   3.461   7.044
17306TIP3    H2 2387   0.412   3.413   7.144
17307TIP3   OH2 2388   1.647   1.940   5.755
17307TIP3    H1 2389   1.569   1.966   5.803
17307TIP3    H2 2390   1.680   2.022   5.718
17308TIP3   OH2 2391   0.494   2.825   5.920
17308TIP3    H1 2392   0.437   2.893   5.886
17308TIP3    H2 2393   0.436   2.752   5.940
17309TIP3   OH2 2394   1.757   3.402   5.630
17309TIP3    H1 2395   1.784   3.493   5.637
17309TIP3    H2 2396   1.839   3.352   5.629
17310TIP3   OH2 2397   0.092   3.047   6.883
17310TIP3    H1 2398   0.015   3.068   6.830
17310TIP3    H2 2399   0.086   2.952   6.897
17311TIP3   OH2 2400   0.098   3.374   6.529
17311TIP3    H1 2401   0.139   3.288   6.524
17311TIP3    H2 2402   0.132   3.413   6.609
17312TIP3   OH2 2403   1.884   3.469   7.148
17312TIP3    H1 2404   1.882   3.373   7.143
17312TIP3    H2 2405   1.797   3.493   7.179
17313TIP3   OH2 2406   0.937   3.398   6.988
17313TIP3    H1 2407   0.938   3.470   7.051
17313TIP3    H2 2408   0.868   3.340   7.018
17314TIP3   OH2 2409   1.033   3.691   5.935
17314TIP3    H1 2410   1.019   3.707   5.842
17314TIP3    H2 2411   1.010   3.775   5.977
17315TIP3   OH2 2412   0.394   3.598   6.166
17315TIP3    H1 2413   0.406   3.570   6.256
17315TIP3    H2 2414   0.333   3.534   6.129
17316TIP3   OH2 2415   1.303   3.618   5.638
17316TIP3    H1 2416   1.368   3.553   5.611
17316TIP3    H2 2417   1.315   3.626   5.732
17317TIP3   OH2 2418   1.309   3.645   5.915
17317TIP3    H1 2419   1.216   3.647   5.940
17317TIP3    H2 2420   1.355   3.622   5.995
17318TIP3   OH2 2421   1.570   2.537   7.161
17318TIP3    H1 2422   1.510   2.612   7.162
17318TIP3    H2 2423   1.531   2.475   7.223
17319TIP3   OH2 2424   0.292   3.230   6.918
17319TIP3    H1 2425   0.332   3.191   6.996
17319TIP3    H2 2426   0.219   3.171   6.897
17320TIP3   OH2 2427   0.546   2.035   6.556
17320TIP3    H1 2428   0.472   2.029   6.495
17320TIP3    H2 2429   0.522   2.107   6.615
17321TIP3   OH2 2430   1.045   1.993   6.907
17321TIP3    H1 2431   1.096   1.942   6.969
17321TIP3    H2 2432   0.955   1.991   6.941
17322TIP3   OH2 2433   1.363   2.385   6.936
17322TIP3    H1 2434   1.294   2.381   7.003
17322TIP3    H2 2435   1.383   2.478   6.928
17323TIP3   OH2 2436   1.423   2.790   5.512
17323TIP3    H1 2437   1.395   2.831   5.430
17323TIP3    H2 2438   1.510   2.827   5.529
17324TIP3   OH2 2439   1.021   2.195   5.616
17324TIP3    H1 2440   0.959   2.209   5.688
17324TIP3    H2 2441   1.037   2.100   5.617
17325TIP3   OH2 2442   0.569   2.538   6.687
17325TIP3    H1 2443   0.507   2.547   6.759
17325TIP3    H2 2444   0.597   2.627   6.668
17326TIP3   OH2 2445   0.562   2.554   6.151
17326TIP3    H1 2446   0.468   2.537   6.148
17326TIP3    H2 2447   0.593   2.535   6.062
17327TIP3   OH2 2448   1.101   2.582   6.025
17327TIP3    H1 2449   1.081   2.672   5.997
17327TIP3    H2 2450   1.175   2.556   5.971
17328TIP3   OH2 2451   1.029   2.610   7.161
17328TIP3    H1 2452   0.992   2.530   7.199
17328TIP3    H2 2453   1.107   2.627   7.214
17329TIP3   OH2 2454   1.155   2.491   6.280
17329TIP3    H1 2455   1.125   2.539   6.203
17329TIP3    H2 2456   1.220   2.429   6.246
17330TIP3   OH2 2457   0.357   2.545   6.865
17330TIP3    H1 2458   0.364   2.583   6.952
17330TIP3    H2 2459   0.315   2.460   6.879
17331TIP3   OH2 2460   0.548   2.281   5.507
17331TIP3    H1 2461   0.601   2.235   5.572
17331TIP3    H2 2462   0.555   2.373   5.532
17332TIP3   OH2 2463   0.113   2.208   6.146
17332TIP3    H1 2464   0.133   2.239   6.234
17332TIP3    H2 2465   0.164   2.128   6.137
17333TIP3   OH2 2466   0.164   2.441   5.880
17333TIP3    H1 2467   0.203   2.456   5.794
17333TIP3    H2 2468   0.133   2.527   5.908
17334TIP3   OH2 2469   1.157   2.682   6.741
17334TIP3    H1 2470   1.193   2.625   6.674
17334TIP3    H2 2471   1.108   2.624   6.798
17335TIP3   OH2 2472   0.844   2.309   6.244
17335TIP3    H1 2473   0.761   2.305   6.290
17335TIP3    H2 2474   0.897   2.240   6.284
17336TIP3   OH2 2475   0.314   2.439   6.120
17336TIP3    H1 2476   0.253   2.442   6.046
17336TIP3    H2 2477   0.349   2.350   6.119
17337TIP3   OH2 2478   0.625   2.472   5.893
17337TIP3    H1 2479   0.718   2.470   5.914
17337TIP3    H2 2480   0.622   2.503   5.802
17338TIP3   OH2 2481   1.276   2.230   6.552
17338TIP3    H1 2482   1.230   2.224   6.636
17338TIP3    H2 2483   1.248   2.151   6.505
17339TIP3   OH2 2484   0.587   2.535   5.622
17339TIP3    H1 2485   0.508   2.577   5.589
17339TIP3    H2 2486   0.659   2.589   5.590
17340TIP3   OH2 2487   1.608   3.836   7.234
17340TIP3    H1 2488   1.636   3.750   7.204
17340TIP3    H2 2489   1.681   3.870   7.285
17341TIP3   OH2 2490   0.393   3.077   7.127
17341TIP3    H1 2491   0.483   3.059   7.155
17341TIP3    H2 2492   0.342   3.075   7.209
17342TIP3   OH2 2493   0.938   2.605   6.439
17342TIP3    H1 2494   1.001   2.553   6.389
17342TIP3    H2 2495   0.911   2.548   6.511
17343TIP3   OH2 2496   0.435   2.187   6.097
17343TIP3    H1 2497   0.383   2.109   6.111
17343TIP3    H2 2498   0.487   2.168   6.019
17344TIP3   OH2 2499   0.838   2.461   6.665
17344TIP3    H1 2500   0.748   2.490   6.678
17344TIP3    H2 2501   0.881   2.478   6.749
17345TIP3   OH2 2502   0.878   3.032   5.850
17345TIP3    H1 2503   0.811   2.992   5.794
17345TIP3    H2 2504   0.829   3.062   5.926
17346TIP3   OH2 2505   1.589   2.977   6.658
17346TIP3    H1 2506   1.648   3.041   6.619
17346TIP3    H2 2507   1.512   2.978   6.601
17347TIP3   OH2 2508   1.275   2.292   5.710
17347TIP3    H1 2509   1.190   2.280   5.667
17347TIP3    H2 2510   1.272   2.381   5.745
17348TIP3   OH2 2511   1.013   3.031   7.121
17348TIP3    H1 2512   1.028   2.964   7.187
17348TIP3    H2 2513   1.035   3.113   7.164
17349TIP3   OH2 2514   1.313   2.528   5.850
17349TIP3    H1 2515   1.399   2.516   5.891
17349TIP3    H2 2516   1.315   2.617   5.816
17350TIP3   OH2 2517   0.364   2.944   6.394
17350TIP3    H1 2518   0.437   2.937   6.332
17350TIP3    H2 2519   0.390   2.888   6.467
17351TIP3   OH2 2520   1.096   3.180   5.774
17351TIP3    H1 2521   1.062   3.270   5.777
17351TIP3    H2 2522   1.022   3.125   5.800
17352TIP3   OH2 2523   0.128   2.781   6.989
17352TIP3    H1 2524   0.126   2.745   7.078
17352TIP3    H2 2525   0.089   2.713   6.935
17353TIP3   OH2 2526   0.820   2.793   7.185
17353TIP3    H1 2527   0.767   2.716   7.166
17353TIP3    H2 2528   0.908   2.760   7.199
17354TIP3   OH2 2529   1.210   3.382   6.948
17354TIP3    H1 2530   1.115   3.383   6.961
17354TIP3    H2 2531   1.246   3.362   7.034
17355TIP3   OH2 2532   1.726   2.564   5.773
17355TIP3    H1 2533   1.700   2.554   5.682
17355TIP3    H2 2534   1.762   2.653   5.778
17356TIP3   OH2 2535   1.859   3.196   7.103
17356TIP3    H1 2536   1.781   3.167   7.151
17356TIP3    H2 2537   1.851   3.155   7.017
17357TIP3   OH2 2538   1.613   3.428   5.883
17357TIP3    H1 2539   1.575   3.354   5.931
17357TIP3    H2 2540   1.654   3.388   5.807
17358TIP3   OH2 2541   1.359   2.926   6.489
17358TIP3    H1 2542   1.264   2.911   6.489
17358TIP3    H2 2543   1.396   2.845   6.454
17359TIP3   OH2 2544   0.649   3.345   6.183
17359TIP3    H1 2545   0.668   3.427   6.138
17359TIP3    H2 2546   0.562   3.358   6.222
17360TIP3   OH2 2547   0.162   2.803   5.703
17360TIP3    H1 2548   0.219   2.879   5.720
17360TIP3    H2 2549   0.136   2.773   5.790
17361TIP3   OH2 2550   0.705   3.113   6.046
17361TIP3    H1 2551   0.694   3.196   6.093
17361TIP3    H2 2552   0.658   3.049   6.100
17362TIP3   OH2 2553   0.832   3.520   6.765
17362TIP3    H1 2554   0.888   3.595   6.745
17362TIP3    H2 2555   0.879   3.472   6.833
17363TIP3   OH2 2556   0.645   3.597   6.057
17363TIP3    H1 2557   0.554   3.607   6.085
17363TIP3    H2 2558   0.690   3.672   6.096
17364TIP3   OH2 2559   1.157   3.036   6.784
17364TIP3    H1 2560   1.229   3.042   6.847
17364TIP3    H2 2561   1.194   3.068   6.702
17365TIP3   OH2 2562   1.354   3.195   5.651
17365TIP3    H1 2563   1.415   3.141   5.701
17365TIP3    H2 2564   1.273   3.194   5.702
17366TIP3   OH2 2565   1.429   3.550   6.942
17366TIP3    H1 2566   1.349   3.498   6.933
17366TIP3    H2 2567   1.423   3.616   6.873
17367TIP3   OH2 2568   1.843   3.668   5.668
17367TIP3    H1 2569   1.907   3.734   5.640
17367TIP3    H2 2570   1.766   3.718   5.692
17368TIP3   OH2 2571   0.239   2.291   6.911
17368TIP3    H1 2572   0.150   2.328   6.915
17368TIP3    H2 2573   0.231   2.205   6.952
17369TIP3   OH2 2574   1.518   3.040   5.810
17369TIP3    H1 2575   1.477   2.984   5.876
17369TIP3    H2 2576   1.610   3.043   5.836
17370TIP3   OH2 2577   0.230   3.477   6.777
17370TIP3    H1 2578   0.263   3.399   6.822
17370TIP3    H2 2579   0.266   3.550   6.827
17371TIP3   OH2 2580   0.785   3.267   5.492
17371TIP3    H1 2581   0.872   3.228   5.498
17371TIP3    H2 2582   0.755   3.273   5.583
17372TIP3   OH2 2583   0.664   3.281   5.747
17372TIP3    H1 2584   0.683   3.234   5.828
17372TIP3    H2 2585   0.684   3.372   5.767
17373TIP3   OH2 2586   0.322   3.007   5.798
17373TIP3    H1 2587   0.265   3.059   5.855
17373TIP3    H2 2588   0.363   3.071   5.740
17374TIP3   OH2 2589   1.156   2.220   6.793
17374TIP3    H1 2590   1.201   2.266   6.864
17374TIP3    H2 2591   1.114   2.145   6.836
17375TIP3   OH2 2592   1.228   2.184   5.964
17375TIP3    H1 2593   1.246   2.224   5.879
17375TIP3    H2 2594   1.265   2.245   6.027
17376TIP3   OH2 2595   0.984   3.425   5.789
17376TIP3    H1 2596   0.898   3.467   5.787
17376TIP3    H2 2597   1.022   3.455   5.872
17377TIP3   OH2 2598   0.875   2.431   6.002
17377TIP3    H1 2599   0.952   2.487   6.010
17377TIP3    H2 2600   0.863   2.393   6.089
17378TIP3   OH2 2601   0.988   2.524   6.902
17378TIP3    H1 2602   0.997   2.563   6.989
17378TIP3    H2 2603   1.025   2.436   6.912
17379TIP3   OH2 2604   0.997   2.064   6.050
17379TIP3    H1 2605   0.997   2.076   6.145
17379TIP3    H2 2606   1.079   2.103   6.021
17380TIP3   OH2 2607   0.732   3.540   5.801
17380TIP3    H1 2608   0.726   3.619   5.747
17380TIP3    H2 2609   0.702   3.568   5.887
17381TIP3   OH2 2610   0.590   2.208   5.805
17381TIP3    H1 2611   0.583   2.298   5.837
17381TIP3    H2 2612   0.682   2.187   5.812
17382TIP3   OH2 2613   1.584   2.217   6.959
17382TIP3    H1 2614   1.511   2.279   6.961
17382TIP3    H2 2615   1.543   2.131   6.956
17383TIP3   OH2 2616   1.449   2.662   6.409
17383TIP3    H1 2617   1.365   2.625   6.437
17383TIP3    H2 2618   1.514   2.613   6.459
17384TIP3   OH2 2619   0.414   3.213   5.629
17384TIP3    H1 2620   0.482   3.260   5.677
17384TIP3    H2 2621   0.463   3.154   5.571
17385TIP3   OH2 2622   0.216   2.546   5.621
17385TIP3    H1 2623   0.213   2.640   5.639
17385TIP3    H2 2624   0.127   2.524   5.597
17386TIP3   OH2 2625   1.564   3.607   6.528
17386TIP3    H1 2626   1.556   3.679   6.464
17386TIP3    H2 2627   1.655   3.609   6.555
17387TIP3   OH2 2628   0.310   2.010   6.414
17387TIP3    H1 2629   0.296   1.992   6.321
17387TIP3    H2 2630   0.285   1.930   6.458
17388TIP3   OH2 2631   0.193   3.433   6.062
17388TIP3    H1 2632   0.144   3.468   6.136
17388TIP3    H2 2633   0.168   3.488   5.988
17389TIP3   OH2 2634   0.170   3.658   7.245
17389TIP3    H1 2635   0.209   3.659   7.332
17389TIP3    H2 2636   0.188   3.571   7.211
17390TIP3   OH2 2637   0.513   3.558   7.379
17390TIP3    H1 2638   0.542   3.503   7.453
17390TIP3    H2 2639   0.526   3.503   7.302
17391TIP3   OH2 2640   0.974   3.495   5.475
17391TIP3    H1 2641   0.894   3.442   5.469
17391TIP3    H2 2642   1.033   3.443   5.530
17392TIP3   OH2 2643   1.317   3.353   7.197
17392TIP3    H1 2644   1.332   3.262   7.224
17392TIP3    H2 2645   1.361   3.405   7.264
17393TIP3   OH2 2646   1.481   3.420   5.552
17393TIP3    H1 2647   1.446   3.343   5.597
17393TIP3    H2 2648   1.575   3.418   5.570
17394TIP3   OH2 2649   0.103   3.003   7.219
17394TIP3    H1 2650   0.142   2.918   7.242
17394TIP3    H2 2651   0.100   3.003   7.124
17395TIP3   OH2 2652   0.591   3.054   5.497
17395TIP3    H1 2653   0.627   3.000   5.567
17395TIP3    H2 2654   0.662   3.114   5.475
17396TIP3   OH2 2655   0.651   3.014   7.189
17396TIP3    H1 2656   0.705   3.090   7.168
17396TIP3    H2 2657   0.714   2.942   7.199
17397TIP3   OH2 2658   1.044   3.175   5.503
17397TIP3    H1 2659   1.074   3.165   5.594
17397TIP3    H2 2660   1.122   3.156   5.450
17398TIP3   OH2 2661   1.358   3.045   6.962
17398TIP3    H1 2662   1.452   3.052   6.949
17398TIP3    H2 2663   1.346   3.050   7.057
17399TIP3   OH2 2664   0.215   2.755   7.281
17399TIP3    H1 2665   0.281   2.688   7.262
17399TIP3    H2 2666   0.219   2.767   7.376
17400TIP3   OH2 2667   0.682   2.893   5.711
17400TIP3    H1 2668   0.628   2.857   5.782
17400TIP3    H2 2669   0.717   2.815   5.667
17401TIP3   OH2 2670   0.621   2.688   6.974
17401TIP3    H1 2671   0.543   2.744   6.973
17401TIP3    H2 2672   0.692   2.745   6.946
17402TIP3   OH2 2673   0.796   2.695   5.541
17402TIP3    H1 2674   0.782   2.702   5.447
17402TIP3    H2 2675   0.891   2.684   5.550
17403TIP3   OH2 2676   1.107   2.865   7.318
17403TIP3    H1 2677   1.186   2.918   7.308
17403TIP3    H2 2678   1.115   2.827   7.406
17404TIP3   OH2 2679   1.663   2.929   5.507
17404TIP3    H1 2680   1.678   2.911   5.414
17404TIP3    H2 2681   1.671   3.024   5.514
17405TIP3   OH2 2682   0.644   2.433   7.074
17405TIP3    H1 2683   0.656   2.369   7.003
17405TIP3    H2 2684   0.641   2.518   7.030
17406TIP3   OH2 2685   0.686   2.263   6.842
17406TIP3    H1 2686   0.743   2.296   6.773
17406TIP3    H2 2687   0.600   2.257   6.801
17407TIP3   OH2 2688   0.861   2.775   6.833
17407TIP3    H1 2689   0.895   2.686   6.843
17407TIP3    H2 2690   0.807   2.771   6.754
17408TIP3   OH2 2691   1.252   2.594   7.337
17408TIP3    H1 2692   1.260   2.507   7.376
17408TIP3    H2 2693   1.228   2.651   7.410
17409TIP3   OH2 2694   1.395   2.749   7.158
17409TIP3    H1 2695   1.395   2.841   7.186
17409TIP3    H2 2696   1.341   2.705   7.223
17410TIP3   OH2 2697   0.384   2.530   7.176
17410TIP3    H1 2698   0.354   2.446   7.211
17410TIP3    H2 2699   0.476   2.515   7.154
17411TIP3   OH2 2700   0.755   1.995   6.899
17411TIP3    H1 2701   0.731   2.086   6.884
17411TIP3    H2 2702   0.683   1.945   6.860
17412TIP3   OH2 2703   0.886   2.377   7.207
17412TIP3    H1 2704   0.873   2.303   7.267
17412TIP3    H2 2705   0.800   2.393   7.169
17413TIP3   OH2 2706   1.123   2.325   7.069
17413TIP3    H1 2707   1.041   2.336   7.118
17413TIP3    H2 2708   1.183   2.287   7.133
17414TIP3   OH2 2709   1.299   2.235   7.252
17414TIP3    H1 2710   1.316   2.141   7.264
17414TIP3    H2 2711   1.283   2.268   7.340
17415TIP3   OH2 2712   0.311   2.270   7.276
17415TIP3    H1 2713   0.306   2.186   7.230
17415TIP3    H2 2714   0.394   2.266   7.324
17416TIP3   OH2 2715   0.776   1.941   7.166
17416TIP3    H1 2716   0.828   1.862   7.174
17416TIP3    H2 2717   0.770   1.957   7.071
17417TIP3   OH2 2718   0.800   2.153   7.344
17417TIP3    H1 2719   0.807   2.074   7.291
17417TIP3    H2 2720   0.707   2.157   7.369
17418TIP3   OH2 2721   0.762   3.753   5.618
17418TIP3    H1 2722   0.856   3.761   5.635
17418TIP3    H2 2723   0.751   3.777   5.526
17419TIP3   OH2 2724   0.146   3.296   5.650
17419TIP3    H1 2725   0.240   3.280   5.639
17419TIP3    H2 2726   0.104   3.226   5.599
17420TIP3   OH2 2727   0.026   3.721   6.124
17420TIP3    H1 2728   8.077   3.705   6.112
17420TIP3    H2 2729   0.053   3.662   6.194
17421TIP3   OH2 2730   0.119   3.545   6.310
17421TIP3    H1 2731   0.099   3.467   6.362
17421TIP3    H2 2732   0.157   3.606   6.373
17422TIP3   OH2 2733   1.817   3.623   6.635
17422TIP3    H1 2734   1.813   3.589   6.724
17422TIP3    H2 2735   1.859   3.709   6.644
17423TIP3   OH2 2736   1.795   3.535   6.893
17423TIP3    H1 2737   1.739   3.458   6.883
17423TIP3    H2 2738   1.844   3.519   6.973
17424TIP3   OH2 2739   1.667   3.131   7.288
17424TIP3    H1 2740   1.574   3.108   7.291
17424TIP3    H2 2741   1.674   3.209   7.344
17425TIP3   OH2 2742   1.778   3.001   5.907
17425TIP3    H1 2743   1.848   3.066   5.907
17425TIP3    H2 2744   1.797   2.946   5.983
17426TIP3   OH2 2745   1.846   2.809   6.101
17426TIP3    H1 2746   1.762   2.781   6.137
17426TIP3    H2 2747   1.901   2.826   6.178
17427TIP3   OH2 2748   1.819   3.122   6.603
17427TIP3    H1 2749   1.887   3.062   6.572
17427TIP3    H2 2750   1.852   3.209   6.580
17428TIP3   OH2 2751   1.602   3.337   6.844
17428TIP3    H1 2752   1.539   3.397   6.885
17428TIP3    H2 2753   1.573   3.330   6.753
17429TIP3   OH2 2754   1.815   2.818   5.708
17429TIP3    H1 2755   1.757   2.849   5.638
17429TIP3    H2 2756   1.803   2.882   5.779
17430TIP3   OH2 2757   1.669   2.536   5.504
17430TIP3    H1 2758   1.676   2.552   5.410
17430TIP3    H2 2759   1.619   2.454   5.510
17431TIP3   OH2 2760   1.582   2.698   6.158
17431TIP3    H1 2761   1.577   2.608   6.125
17431TIP3    H2 2762   1.538   2.696   6.242
17432TIP3   OH2 2763   0.099   2.857   6.544
17432TIP3    H1 2764   0.135   2.926   6.489
17432TIP3    H2 2765   0.171   2.833   6.602
17433TIP3   OH2 2766   1.731   2.833   7.069
17433TIP3    H1 2767   1.706   2.853   7.159
17433TIP3    H2 2768   1.691   2.904   7.017
17434TIP3   OH2 2769   1.820   2.659   7.311
17434TIP3    H1 2770   1.754   2.620   7.369
17434TIP3    H2 2771   1.904   2.638   7.353
17435TIP3   OH2 2772   1.514   2.315   5.566
17435TIP3    H1 2773   1.587   2.257   5.589
17435TIP3    H2 2774   1.441   2.285   5.620
17436TIP3   OH2 2775   1.566   2.451   5.975
17436TIP3    H1 2776   1.602   2.363   5.983
17436TIP3    H2 2777   1.624   2.494   5.911
17437TIP3   OH2 2778   1.594   2.477   6.563
17437TIP3    H1 2779   1.687   2.491   6.547
17437TIP3    H2 2780   1.583   2.490   6.657
17438TIP3   OH2 2781   1.683   2.587   6.867
17438TIP3    H1 2782   1.591   2.610   6.881
17438TIP3    H2 2783   1.715   2.654   6.807
17439TIP3   OH2 2784   0.044   2.378   7.187
17439TIP3    H1 2785   0.135   2.382   7.216
17439TIP3    H2 2786   0.024   2.285   7.184
17440TIP3   OH2 2787   1.875   1.971   7.311
17440TIP3    H1 2788   1.931   1.899   7.281
17440TIP3    H2 2789   1.914   1.998   7.394
17441TIP3   OH2 2790   1.651   2.181   6.010
17441TIP3    H1 2791   1.677   2.153   6.098
17441TIP3    H2 2792   1.581   2.121   5.986
17442TIP3   OH2 2793   0.181   2.252   6.416
17442TIP3    H1 2794   0.218   2.165   6.432
17442TIP3    H2 2795   0.242   2.313   6.457
17443TIP3   OH2 2796   0.001   2.602   6.535
17443TIP3    H1 2797   0.066   2.573   6.471
17443TIP3    H2 2798   0.013   2.696   6.540
17444TIP3   OH2 2799   1.806   2.189   7.144
17444TIP3    H1 2800   1.721   2.171   7.104
17444TIP3    H2 2801   1.825   2.111   7.196
17445TIP3   OH2 2802   1.755   2.175   5.635
17445TIP3    H1 2803   1.822   2.118   5.598
17445TIP3    H2 2804   1.803   2.244   5.680
17446TIP3   OH2 2805   0.051   2.178   5.872
17446TIP3    H1 2806   0.022   2.158   5.961
17446TIP3    H2 2807   0.104   2.257   5.881
17447TIP3   OH2 2808   1.484   3.685   6.155
17447TIP3    H1 2809   1.565   3.689   6.104
17447TIP3    H2 2810   1.498   3.746   6.227
17448TIP3   OH2 2811   0.034   2.051   6.849
17448TIP3    H1 2812   8.135   1.969   6.825
17448TIP3    H2 2813   8.123   2.119   6.810
17449TIP3   OH2 2814   0.234   3.390   7.202
17449TIP3    H1 2815   0.181   3.325   7.155
17449TIP3    H2 2816   0.234   3.359   7.293
17450TIP3   OH2 2817   0.573   3.502   6.860
17450TIP3    H1 2818   0.546   3.591   6.837
17450TIP3    H2 2819   0.666   3.499   6.839
17451TIP3   OH2 2820   0.968   3.614   7.158
17451TIP3    H1 2821   0.980   3.576   7.245
17451TIP3    H2 2822   1.054   3.651   7.136
17452TIP3   OH2 2823   1.212   3.726   7.094
17452TIP3    H1 2824   1.282   3.670   7.060
17452TIP3    H2 2825   1.249   3.765   7.173
17453TIP3   OH2 2826   1.682   1.897   6.931
17453TIP3    H1 2827   1.600   1.877   6.884
17453TIP3    H2 2828   1.730   1.814   6.930
17454TIP3   OH2 2829   0.272   3.790   6.879
17454TIP3    H1 2830   0.199   3.843   6.847
17454TIP3    H2 2831   0.285   3.821   6.969
17455TIP3   OH2 2832   0.528   3.761   6.783
17455TIP3    H1 2833   0.440   3.779   6.815
17455TIP3    H2 2834   0.535   3.810   6.701
17456TIP3   OH2 2835   0.974   3.744   6.686
17456TIP3    H1 2836   0.921   3.795   6.625
17456TIP3    H2 2837   0.995   3.805   6.757
17457TIP3   OH2 2838   1.207   3.602   6.652
17457TIP3    H1 2839   1.126   3.651   6.668
17457TIP3    H2 2840   1.276   3.658   6.686
17458TIP3   OH2 2841   1.437   3.737   6.734
17458TIP3    H1 2842   1.466   3.827   6.721
17458TIP3    H2 2843   1.484   3.686   6.669
17459TIP3   OH2 2844   0.256   3.658   6.525
17459TIP3    H1 2845   0.236   3.632   6.615
17459TIP3    H2 2846   0.328   3.601   6.498
17460TIP3   OH2 2847   0.450   3.497   6.417
17460TIP3    H1 2848   0.437   3.404   6.436
17460TIP3    H2 2849   0.536   3.518   6.455
17461TIP3   OH2 2850   0.705   3.531   6.520
17461TIP3    H1 2851   0.721   3.441   6.491
17461TIP3    H2 2852   0.742   3.534   6.608
17462TIP3   OH2 2853   0.977   2.075   6.326
17462TIP3    H1 2854   0.924   2.022   6.385
17462TIP3    H2 2855   1.067   2.057   6.352
17463TIP3   OH2 2856   1.540   1.978   6.377
17463TIP3    H1 2857   1.605   2.031   6.331
17463TIP3    H2 2858   1.532   2.021   6.463
17464TIP3   OH2 2859   1.770   2.086   6.247
17464TIP3    H1 2860   1.818   2.008   6.220
17464TIP3    H2 2861   1.811   2.113   6.329
17465TIP3   OH2 2862   0.263   1.965   6.139
17465TIP3    H1 2863   0.175   1.931   6.126
17465TIP3    H2 2864   0.319   1.888   6.139
17466TIP3   OH2 2865   0.174   1.952   5.738
17466TIP3    H1 2866   0.247   2.009   5.712
17466TIP3    H2 2867   0.117   2.010   5.789
17467TIP3   OH2 2868   0.750   1.937   6.175
17467TIP3    H1 2869   0.823   1.990   6.142
17467TIP3    H2 2870   0.761   1.937   6.270
17468TIP3   OH2 2871   1.239   2.005   6.386
17468TIP3    H1 2872   1.329   2.006   6.353
17468TIP3    H2 2873   1.221   1.912   6.402
17469TIP3   OH2 2874   1.441   2.011   5.923
17469TIP3    H1 2875   1.366   2.068   5.938
17469TIP3    H2 2876   1.407   1.922   5.929
17470TIP3   OH2 2877   0.146   3.570   5.828
17470TIP3    H1 2878   0.150   3.523   5.744
17470TIP3    H2 2879   0.155   3.662   5.804
17471TIP3   OH2 2880   0.382   2.109   5.650
17471TIP3    H1 2881   0.408   2.171   5.583
17471TIP3    H2 2882   0.445   2.121   5.721
17472TIP3   OH2 2883   0.866   2.205   5.848
17472TIP3    H1 2884   0.900   2.142   5.911
17472TIP3    H2 2885   0.871   2.290   5.893
17473TIP3   OH2 2886   1.039   3.716   5.643
17473TIP3    H1 2887   1.134   3.703   5.646
17473TIP3    H2 2888   1.008   3.648   5.584
17474TIP3   OH2 2889   1.698   3.671   5.976
17474TIP3    H1 2890   1.669   3.585   5.944
17474TIP3    H2 2891   1.687   3.729   5.901
17475TIP3   OH2 2892   0.272   2.008   7.158
17475TIP3    H1 2893   0.211   1.939   7.183
17475TIP3    H2 2894   0.357   1.977   7.188
17476TIP3   OH2 2895   0.513   1.922   7.248
17476TIP3    H1 2896   0.600   1.947   7.215
17476TIP3    H2 2897   0.527   1.836   7.287
17477TIP3   OH2 2898   0.295   3.694   5.521
17477TIP3    H1 2899   0.246   3.732   5.594
17477TIP3    H2 2900   0.383   3.680   5.557
17478TIP3   OH2 2901   1.356   1.966   7.265
17478TIP3    H1 2902   1.340   1.918   7.346
17478TIP3    H2 2903   1.450   1.956   7.250
17479TIP3   OH2 2904   1.613   3.561   7.160
17479TIP3    H1 2905   1.549   3.547   7.090
17479TIP3    H2 2906   1.567   3.534   7.240
17480TIP3   OH2 2907   3.082   2.927   6.135
17480TIP3    H1 2908   3.069   3.017   6.106
17480TIP3    H2 2909   3.040   2.923   6.221
17481TIP3   OH2 2910   2.938   2.832   6.514
17481TIP3    H1 2911   2.950   2.803   6.604
17481TIP3    H2 2912   2.891   2.760   6.471
17482TIP3   OH2 2913   2.175   2.758   6.701
17482TIP3    H1 2914   2.171   2.672   6.743
17482TIP3    H2 2915   2.229   2.811   6.760
17483TIP3   OH2 2916   3.352   3.152   6.352
17483TIP3    H1 2917   3.318   3.085   6.411
17483TIP3    H2 2918   3.379   3.223   6.409
17484TIP3   OH2 2919   2.370   3.199   6.507
17484TIP3    H1 2920   2.363   3.195   6.602
17484TIP3    H2 2921   2.465   3.206   6.491
17485TIP3   OH2 2922   2.029   2.621   5.993
17485TIP3    H1 2923   1.980   2.701   6.011
17485TIP3    H2 2924   1.983   2.553   6.042
17486TIP3   OH2 2925   2.045   2.823   6.304
17486TIP3    H1 2926   2.065   2.732   6.323
17486TIP3    H2 2927   2.128   2.869   6.316
17487TIP3   OH2 2928   3.075   3.611   6.385
17487TIP3    H1 2929   3.114   3.530   6.351
17487TIP3    H2 2930   3.080   3.601   6.481
17488TIP3   OH2 2931   2.828   3.087   6.569
17488TIP3    H1 2932   2.858   3.001   6.539
17488TIP3    H2 2933   2.897   3.117   6.628
17489TIP3   OH2 2934   3.702   2.220   6.644
17489TIP3    H1 2935   3.693   2.280   6.718
17489TIP3    H2 2936   3.770   2.260   6.590
17490TIP3   OH2 2937   3.101   2.504   6.552
17490TIP3    H1 2938   3.117   2.411   6.573
17490TIP3    H2 2939   3.087   2.505   6.457
17491TIP3   OH2 2940   2.445   2.314   6.340
17491TIP3    H1 2941   2.465   2.393   6.290
17491TIP3    H2 2942   2.418   2.250   6.274
17492TIP3   OH2 2943   3.251   2.343   6.139
17492TIP3    H1 2944   3.286   2.317   6.225
17492TIP3    H2 2945   3.325   2.385   6.095
17493TIP3   OH2 2946   2.083   2.556   6.363
17493TIP3    H1 2947   2.149   2.521   6.423
17493TIP3    H2 2948   2.055   2.481   6.310
17494TIP3   OH2 2949   2.607   2.725   6.309
17494TIP3    H1 2950   2.684   2.684   6.347
17494TIP3    H2 2951   2.555   2.652   6.275
17495TIP3   OH2 2952   3.669   2.363   6.883
17495TIP3    H1 2953   3.647   2.456   6.885
17495TIP3    H2 2954   3.733   2.352   6.953
17496TIP3   OH2 2955   2.315   2.234   6.726
17496TIP3    H1 2956   2.292   2.309   6.672
17496TIP3    H2 2957   2.245   2.228   6.791
17497TIP3   OH2 2958   3.062   3.180   6.023
17497TIP3    H1 2959   3.045   3.177   5.929
17497TIP3    H2 2960   3.020   3.261   6.053
17498TIP3   OH2 2961   2.589   3.010   6.703
17498TIP3    H1 2962   2.535   3.080   6.741
17498TIP3    H2 2963   2.668   3.055   6.674
17499TIP3   OH2 2964   3.344   2.307   6.393
17499TIP3    H1 2965   3.276   2.273   6.452
17499TIP3    H2 2966   3.402   2.358   6.450
17500TIP3   OH2 2967   2.267   2.418   6.519
17500TIP3    H1 2968   2.314   2.481   6.573
17500TIP3    H2 2969   2.335   2.377   6.466
17501TIP3   OH2 2970   2.402   3.217   6.788
17501TIP3    H1 2971   2.426   3.309   6.795
17501TIP3    H2 2972   2.318   3.211   6.833
17502TIP3   OH2 2973   1.993   3.172   5.880
17502TIP3    H1 2974   1.988   3.218   5.796
17502TIP3    H2 2975   2.014   3.240   5.944
17503TIP3   OH2 2976   3.394   3.354   6.539
17503TIP3    H1 2977   3.301   3.351   6.564
17503TIP3    H2 2978   3.411   3.447   6.523
17504TIP3   OH2 2979   3.456   2.088   6.645
17504TIP3    H1 2980   3.424   2.133   6.723
17504TIP3    H2 2981   3.543   2.126   6.630
17505TIP3   OH2 2982   2.652   1.928   6.441
17505TIP3    H1 2983   2.645   1.834   6.457
17505TIP3    H2 2984   2.577   1.966   6.488
17506TIP3   OH2 2985   3.208   3.473   6.162
17506TIP3    H1 2986   3.265   3.398   6.147
17506TIP3    H2 2987   3.268   3.546   6.180
17507TIP3   OH2 2988   3.335   3.238   6.089
17507TIP3    H1 2989   3.249   3.203   6.068
17507TIP3    H2 2990   3.355   3.202   6.175
17508TIP3   OH2 2991   3.515   3.153   6.948
17508TIP3    H1 2992   3.587   3.097   6.919
17508TIP3    H2 2993   3.526   3.234   6.899
17509TIP3   OH2 2994   2.927   2.786   5.828
17509TIP3    H1 2995   2.884   2.870   5.844
17509TIP3    H2 2996   3.020   2.807   5.822
17510TIP3   OH2 2997   2.960   2.662   5.570
17510TIP3    H1 2998   2.963   2.699   5.658
17510TIP3    H2 2999   3.045   2.620   5.559
17511TIP3   OH2 3000   3.682   2.780   6.726
17511TIP3    H1 3001   3.614   2.847   6.732
17511TIP3    H2 3002   3.755   2.824   6.681
17512TIP3   OH2 3003   3.309   2.864   5.994
17512TIP3    H1 3004   3.235   2.883   6.052
17512TIP3    H2 3005   3.372   2.819   6.050
17513TIP3   OH2 3006   3.198   2.683   6.924
17513TIP3    H1 3007   3.210   2.722   7.011
17513TIP3    H2 3008   3.104   2.691   6.907
17514TIP3   OH2 3009   2.445   2.894   6.154
17514TIP3    H1 3010   2.383   2.921   6.222
17514TIP3    H2 3011   2.511   2.843   6.201
17515TIP3   OH2 3012   2.637   3.252   6.450
17515TIP3    H1 3013   2.658   3.248   6.356
17515TIP3    H2 3014   2.707   3.201   6.492
17516TIP3   OH2 3015   2.471   2.822   6.538
17516TIP3    H1 3016   2.538   2.803   6.472
17516TIP3    H2 3017   2.515   2.882   6.599
17517TIP3   OH2 3018   3.135   3.343   6.615
17517TIP3    H1 3019   3.110   3.427   6.653
17517TIP3    H2 3020   3.093   3.278   6.672
17518TIP3   OH2 3021   2.580   3.238   7.023
17518TIP3    H1 3022   2.528   3.303   7.070
17518TIP3    H2 3023   2.520   3.199   6.960
17519TIP3   OH2 3024   3.197   2.772   5.764
17519TIP3    H1 3025   3.246   2.814   5.834
17519TIP3    H2 3026   3.244   2.796   5.684
17520TIP3   OH2 3027   2.276   2.859   6.943
17520TIP3    H1 3028   2.301   2.924   7.008
17520TIP3    H2 3029   2.182   2.848   6.956
17521TIP3   OH2 3030   2.960   3.440   6.054
17521TIP3    H1 3031   3.044   3.455   6.099
17521TIP3    H2 3032   2.905   3.513   6.081
17522TIP3   OH2 3033   2.415   3.440   7.104
17522TIP3    H1 3034   2.405   3.473   7.014
17522TIP3    H2 3035   2.326   3.415   7.130
17523TIP3   OH2 3036   3.531   1.947   5.750
17523TIP3    H1 3037   3.447   1.964   5.794
17523TIP3    H2 3038   3.564   2.033   5.727
17524TIP3   OH2 3039   2.332   2.792   5.918
17524TIP3    H1 3040   2.372   2.830   5.996
17524TIP3    H2 3041   2.282   2.864   5.879
17525TIP3   OH2 3042   3.640   3.395   5.629
17525TIP3    H1 3043   3.669   3.486   5.640
17525TIP3    H2 3044   3.722   3.344   5.628
17526TIP3   OH2 3045   1.955   3.081   6.863
17526TIP3    H1 3046   1.907   3.075   6.781
17526TIP3    H2 3047   1.978   2.990   6.884
17527TIP3   OH2 3048   1.928   3.381   6.552
17527TIP3    H1 3049   2.003   3.391   6.610
17527TIP3    H2 3050   1.874   3.458   6.569
17528TIP3   OH2 3051   3.779   3.470   7.148
17528TIP3    H1 3052   3.774   3.375   7.140
17528TIP3    H2 3053   3.690   3.498   7.168
17529TIP3   OH2 3054   2.814   3.378   6.988
17529TIP3    H1 3055   2.815   3.450   7.051
17529TIP3    H2 3056   2.732   3.332   7.006
17530TIP3   OH2 3057   2.915   3.717   5.936
17530TIP3    H1 3058   2.883   3.744   5.851
17530TIP3    H2 3059   2.894   3.790   5.994
17531TIP3   OH2 3060   2.266   3.579   6.173
17531TIP3    H1 3061   2.296   3.546   6.257
17531TIP3    H2 3062   2.206   3.512   6.141
17532TIP3   OH2 3063   3.176   3.617   5.638
17532TIP3    H1 3064   3.248   3.559   5.616
17532TIP3    H2 3065   3.182   3.628   5.733
17533TIP3   OH2 3066   3.182   3.651   5.914
17533TIP3    H1 3067   3.091   3.665   5.937
17533TIP3    H2 3068   3.220   3.608   5.991
17534TIP3   OH2 3069   3.447   2.574   7.124
17534TIP3    H1 3070   3.400   2.657   7.129
17534TIP3    H2 3071   3.417   2.524   7.199
17535TIP3   OH2 3072   2.158   3.269   6.917
17535TIP3    H1 3073   2.163   3.284   7.011
17535TIP3    H2 3074   2.086   3.206   6.906
17536TIP3   OH2 3075   2.418   2.035   6.556
17536TIP3    H1 3076   2.337   2.026   6.506
17536TIP3    H2 3077   2.401   2.109   6.615
17537TIP3   OH2 3078   2.926   1.995   6.915
17537TIP3    H1 3079   2.971   1.944   6.982
17537TIP3    H2 3080   2.835   1.997   6.944
17538TIP3   OH2 3081   3.223   2.392   6.951
17538TIP3    H1 3082   3.167   2.371   7.026
17538TIP3    H2 3083   3.222   2.487   6.946
17539TIP3   OH2 3084   3.311   2.807   5.512
17539TIP3    H1 3085   3.268   2.871   5.456
17539TIP3    H2 3086   3.401   2.840   5.522
17540TIP3   OH2 3087   2.910   2.193   5.623
17540TIP3    H1 3088   2.846   2.212   5.691
17540TIP3    H2 3089   2.919   2.097   5.625
17541TIP3   OH2 3090   2.440   2.576   6.661
17541TIP3    H1 3091   2.431   2.592   6.755
17541TIP3    H2 3092   2.440   2.663   6.622
17542TIP3   OH2 3093   2.449   2.536   6.178
17542TIP3    H1 3094   2.357   2.513   6.168
17542TIP3    H2 3095   2.485   2.530   6.089
17543TIP3   OH2 3096   2.965   2.572   6.012
17543TIP3    H1 3097   2.945   2.654   5.967
17543TIP3    H2 3098   3.044   2.539   5.967
17544TIP3   OH2 3099   2.943   2.577   7.111
17544TIP3    H1 3100   2.891   2.517   7.165
17544TIP3    H2 3101   2.963   2.650   7.169
17545TIP3   OH2 3102   3.071   2.509   6.276
17545TIP3    H1 3103   3.023   2.551   6.205
17545TIP3    H2 3104   3.121   2.439   6.234
17546TIP3   OH2 3105   2.186   2.529   6.857
17546TIP3    H1 3106   2.229   2.546   6.941
17546TIP3    H2 3107   2.149   2.441   6.867
17547TIP3   OH2 3108   2.398   2.261   5.483
17547TIP3    H1 3109   2.440   2.259   5.568
17547TIP3    H2 3110   2.408   2.352   5.454
17548TIP3   OH2 3111   2.008   2.325   6.200
17548TIP3    H1 3112   2.016   2.290   6.289
17548TIP3    H2 3113   1.951   2.262   6.155
17549TIP3   OH2 3114   1.921   2.370   5.770
17549TIP3    H1 3115   2.001   2.418   5.749
17549TIP3    H2 3116   1.854   2.438   5.781
17550TIP3   OH2 3117   2.990   2.680   6.733
17550TIP3    H1 3118   3.035   2.616   6.678
17550TIP3    H2 3119   2.928   2.629   6.784
17551TIP3   OH2 3120   2.720   2.300   6.249
17551TIP3    H1 3121   2.654   2.305   6.317
17551TIP3    H2 3122   2.781   2.232   6.278
17552TIP3   OH2 3123   2.234   2.392   6.059
17552TIP3    H1 3124   2.152   2.373   6.105
17552TIP3    H2 3125   2.286   2.312   6.067
17553TIP3   OH2 3126   2.475   2.500   5.888
17553TIP3    H1 3127   2.565   2.486   5.918
17553TIP3    H2 3128   2.485   2.524   5.796
17554TIP3   OH2 3129   3.134   2.227   6.553
17554TIP3    H1 3130   3.099   2.219   6.642
17554TIP3    H2 3131   3.116   2.142   6.513
17555TIP3   OH2 3132   2.464   2.567   5.618
17555TIP3    H1 3133   2.425   2.555   5.532
17555TIP3    H2 3134   2.548   2.609   5.601
17556TIP3   OH2 3135   3.469   3.790   7.211
17556TIP3    H1 3136   3.507   3.820   7.129
17556TIP3    H2 3137   3.541   3.794   7.274
17557TIP3   OH2 3138   2.290   3.038   7.150
17557TIP3    H1 3139   2.352   3.029   7.222
17557TIP3    H2 3140   2.209   3.066   7.192
17558TIP3   OH2 3141   2.812   2.588   6.434
17558TIP3    H1 3142   2.883   2.534   6.402
17558TIP3    H2 3143   2.777   2.541   6.509
17559TIP3   OH2 3144   2.359   2.149   6.128
17559TIP3    H1 3145   2.288   2.084   6.135
17559TIP3    H2 3146   2.439   2.097   6.131
17560TIP3   OH2 3147   2.696   2.457   6.653
17560TIP3    H1 3148   2.616   2.507   6.668
17560TIP3    H2 3149   2.749   2.473   6.731
17561TIP3   OH2 3150   2.765   3.029   5.831
17561TIP3    H1 3151   2.697   2.983   5.781
17561TIP3    H2 3152   2.720   3.059   5.911
17562TIP3   OH2 3153   3.474   2.970   6.722
17562TIP3    H1 3154   3.538   3.029   6.680
17562TIP3    H2 3155   3.419   3.028   6.773
17563TIP3   OH2 3156   3.167   2.291   5.697
17563TIP3    H1 3157   3.079   2.274   5.663
17563TIP3    H2 3158   3.160   2.377   5.739
17564TIP3   OH2 3159   2.886   3.097   6.977
17564TIP3    H1 3160   2.946   3.071   7.048
17564TIP3    H2 3161   2.860   3.186   6.999
17565TIP3   OH2 3162   3.195   2.514   5.857
17565TIP3    H1 3163   3.280   2.500   5.899
17565TIP3    H2 3164   3.199   2.604   5.824
17566TIP3   OH2 3165   2.285   2.950   6.380
17566TIP3    H1 3166   2.292   3.040   6.413
17566TIP3    H2 3167   2.333   2.897   6.443
17567TIP3   OH2 3168   2.977   3.190   5.749
17567TIP3    H1 3169   2.941   3.279   5.755
17567TIP3    H2 3170   2.905   3.134   5.777
17568TIP3   OH2 3171   1.999   2.836   7.001
17568TIP3    H1 3172   2.039   2.788   7.074
17568TIP3    H2 3173   1.906   2.838   7.021
17569TIP3   OH2 3174   2.730   2.819   7.163
17569TIP3    H1 3175   2.680   2.769   7.228
17569TIP3    H2 3176   2.821   2.814   7.193
17570TIP3   OH2 3177   3.089   3.403   6.941
17570TIP3    H1 3178   2.994   3.389   6.949
17570TIP3    H2 3179   3.123   3.380   7.027
17571TIP3   OH2 3180   3.649   2.566   5.794
17571TIP3    H1 3181   3.618   2.545   5.706
17571TIP3    H2 3182   3.671   2.659   5.790
17572TIP3   OH2 3183   3.745   3.201   7.108
17572TIP3    H1 3184   3.650   3.192   7.099
17572TIP3    H2 3185   3.780   3.157   7.030
17573TIP3   OH2 3186   3.495   3.419   5.894
17573TIP3    H1 3187   3.456   3.349   5.945
17573TIP3    H2 3188   3.534   3.375   5.818
17574TIP3   OH2 3189   3.232   2.817   6.560
17574TIP3    H1 3190   3.140   2.835   6.542
17574TIP3    H2 3191   3.262   2.767   6.484
17575TIP3   OH2 3192   2.531   3.333   6.179
17575TIP3    H1 3193   2.543   3.416   6.132
17575TIP3    H2 3194   2.472   3.355   6.252
17576TIP3   OH2 3195   2.068   2.790   5.604
17576TIP3    H1 3196   2.116   2.857   5.653
17576TIP3    H2 3197   1.978   2.797   5.637
17577TIP3   OH2 3198   2.584   3.107   6.024
17577TIP3    H1 3199   2.569   3.186   6.076
17577TIP3    H2 3200   2.537   3.038   6.070
17578TIP3   OH2 3201   2.729   3.518   6.763
17578TIP3    H1 3202   2.783   3.596   6.750
17578TIP3    H2 3203   2.773   3.469   6.832
17579TIP3   OH2 3204   2.522   3.589   6.060
17579TIP3    H1 3205   2.431   3.601   6.090
17579TIP3    H2 3206   2.569   3.664   6.097
17580TIP3   OH2 3207   3.037   3.117   6.753
17580TIP3    H1 3208   2.976   3.108   6.826
17580TIP3    H2 3209   3.123   3.097   6.790
17581TIP3   OH2 3210   3.250   3.203   5.655
17581TIP3    H1 3211   3.309   3.152   5.710
17581TIP3    H2 3212   3.167   3.203   5.702
17582TIP3   OH2 3213   3.330   3.531   6.918
17582TIP3    H1 3214   3.243   3.490   6.922
17582TIP3    H2 3215   3.315   3.614   6.873
17583TIP3   OH2 3216   3.726   3.657   5.669
17583TIP3    H1 3217   3.791   3.725   5.650
17583TIP3    H2 3218   3.645   3.705   5.688
17584TIP3   OH2 3219   2.089   2.268   6.894
17584TIP3    H1 3220   1.996   2.289   6.889
17584TIP3    H2 3221   2.101   2.230   6.981
17585TIP3   OH2 3222   3.410   3.047   5.814
17585TIP3    H1 3223   3.368   2.996   5.883
17585TIP3    H2 3224   3.503   3.048   5.838
17586TIP3   OH2 3225   2.118   3.482   6.735
17586TIP3    H1 3226   2.138   3.412   6.797
17586TIP3    H2 3227   2.128   3.563   6.785
17587TIP3   OH2 3228   2.684   3.169   5.454
17587TIP3    H1 3229   2.778   3.167   5.472
17587TIP3    H2 3230   2.648   3.222   5.525
17588TIP3   OH2 3231   2.572   3.275   5.693
17588TIP3    H1 3232   2.588   3.222   5.771
17588TIP3    H2 3233   2.579   3.365   5.722
17589TIP3   OH2 3234   2.179   2.986   5.782
17589TIP3    H1 3235   2.111   3.030   5.833
17589TIP3    H2 3236   2.223   3.057   5.735
17590TIP3   OH2 3237   3.037   2.228   6.810
17590TIP3    H1 3238   3.102   2.265   6.870
17590TIP3    H2 3239   3.002   2.153   6.857
17591TIP3   OH2 3240   3.113   2.188   5.957
17591TIP3    H1 3241   3.135   2.230   5.874
17591TIP3    H2 3242   3.153   2.243   6.024
17592TIP3   OH2 3243   2.870   3.444   5.775
17592TIP3    H1 3244   2.778   3.470   5.787
17592TIP3    H2 3245   2.912   3.467   5.857
17593TIP3   OH2 3246   2.719   2.441   6.012
17593TIP3    H1 3247   2.800   2.491   6.014
17593TIP3    H2 3248   2.716   2.396   6.096
17594TIP3   OH2 3249   2.869   2.470   6.867
17594TIP3    H1 3250   2.887   2.507   6.954
17594TIP3    H2 3251   2.919   2.389   6.864
17595TIP3   OH2 3252   2.875   2.073   6.037
17595TIP3    H1 3253   2.877   2.072   6.132
17595TIP3    H2 3254   2.959   2.111   6.011
17596TIP3   OH2 3255   2.607   3.525   5.805
17596TIP3    H1 3256   2.611   3.612   5.764
17596TIP3    H2 3257   2.575   3.542   5.894
17597TIP3   OH2 3258   2.476   2.241   5.752
17597TIP3    H1 3259   2.458   2.310   5.816
17597TIP3    H2 3260   2.565   2.212   5.773
17598TIP3   OH2 3261   3.426   2.212   6.887
17598TIP3    H1 3262   3.357   2.271   6.915
17598TIP3    H2 3263   3.507   2.262   6.898
17599TIP3   OH2 3264   3.326   2.631   6.367
17599TIP3    H1 3265   3.244   2.584   6.353
17599TIP3    H2 3266   3.372   2.581   6.434
17600TIP3   OH2 3267   2.282   3.205   5.635
17600TIP3    H1 3268   2.346   3.266   5.673
17600TIP3    H2 3269   2.334   3.146   5.581
17601TIP3   OH2 3270   2.146   2.540   5.699
17601TIP3    H1 3271   2.114   2.623   5.664
17601TIP3    H2 3272   2.194   2.500   5.626
17602TIP3   OH2 3273   3.459   3.622   6.523
17602TIP3    H1 3274   3.445   3.697   6.466
17602TIP3    H2 3275   3.551   3.630   6.550
17603TIP3   OH2 3276   2.172   1.998   6.433
17603TIP3    H1 3277   2.175   1.982   6.339
17603TIP3    H2 3278   2.156   1.912   6.472
17604TIP3   OH2 3279   2.045   3.391   6.046
17604TIP3    H1 3280   2.009   3.422   6.129
17604TIP3    H2 3281   2.036   3.465   5.986
17605TIP3   OH2 3282   2.015   3.712   7.218
17605TIP3    H1 3283   2.078   3.686   7.285
17605TIP3    H2 3284   1.973   3.631   7.191
17606TIP3   OH2 3285   2.517   3.550   7.344
17606TIP3    H1 3286   2.561   3.471   7.376
17606TIP3    H2 3287   2.484   3.525   7.258
17607TIP3   OH2 3288   2.925   3.532   5.509
17607TIP3    H1 3289   2.890   3.491   5.588
17607TIP3    H2 3290   3.020   3.537   5.524
17608TIP3   OH2 3291   3.196   3.363   7.187
17608TIP3    H1 3292   3.181   3.270   7.203
17608TIP3    H2 3293   3.242   3.393   7.265
17609TIP3   OH2 3294   3.367   3.435   5.551
17609TIP3    H1 3295   3.330   3.356   5.592
17609TIP3    H2 3296   3.461   3.429   5.568
17610TIP3   OH2 3297   2.025   3.034   7.255
17610TIP3    H1 3298   2.040   2.949   7.213
17610TIP3    H2 3299   1.972   3.083   7.191
17611TIP3   OH2 3300   2.447   3.034   5.501
17611TIP3    H1 3301   2.473   2.976   5.572
17611TIP3    H2 3302   2.527   3.081   5.479
17612TIP3   OH2 3303   2.667   3.082   7.234
17612TIP3    H1 3304   2.645   3.127   7.152
17612TIP3    H2 3305   2.697   2.995   7.206
17613TIP3   OH2 3306   2.952   3.135   5.471
17613TIP3    H1 3307   2.973   3.147   5.563
17613TIP3    H2 3308   3.036   3.137   5.426
17614TIP3   OH2 3309   3.267   3.042   6.906
17614TIP3    H1 3310   3.343   3.092   6.938
17614TIP3    H2 3311   3.208   3.039   6.981
17615TIP3   OH2 3312   2.114   2.721   7.218
17615TIP3    H1 3313   2.176   2.654   7.188
17615TIP3    H2 3314   2.130   2.727   7.312
17616TIP3   OH2 3315   2.557   2.882   5.708
17616TIP3    H1 3316   2.503   2.835   5.772
17616TIP3    H2 3317   2.603   2.814   5.660
17617TIP3   OH2 3318   2.467   2.653   6.924
17617TIP3    H1 3319   2.402   2.721   6.943
17617TIP3    H2 3320   2.549   2.701   6.912
17618TIP3   OH2 3321   2.688   2.701   5.541
17618TIP3    H1 3322   2.689   2.715   5.446
17618TIP3    H2 3323   2.779   2.682   5.564
17619TIP3   OH2 3324   2.980   2.789   7.283
17619TIP3    H1 3325   3.023   2.871   7.259
17619TIP3    H2 3326   2.987   2.785   7.378
17620TIP3   OH2 3327   3.558   2.931   5.501
17620TIP3    H1 3328   3.569   2.908   5.409
17620TIP3    H2 3329   3.576   3.025   5.505
17621TIP3   OH2 3330   2.552   2.426   7.059
17621TIP3    H1 3331   2.562   2.359   6.992
17621TIP3    H2 3332   2.534   2.506   7.010
17622TIP3   OH2 3333   2.573   2.253   6.827
17622TIP3    H1 3334   2.622   2.304   6.763
17622TIP3    H2 3335   2.483   2.252   6.794
17623TIP3   OH2 3336   2.690   2.796   6.877
17623TIP3    H1 3337   2.723   2.819   6.964
17623TIP3    H2 3338   2.678   2.881   6.834
17624TIP3   OH2 3339   3.343   2.530   7.385
17624TIP3    H1 3340   3.282   2.489   7.447
17624TIP3    H2 3341   3.340   2.624   7.407
17625TIP3   OH2 3342   3.321   2.818   7.131
17625TIP3    H1 3343   3.260   2.886   7.161
17625TIP3    H2 3344   3.402   2.865   7.113
17626TIP3   OH2 3345   2.275   2.507   7.130
17626TIP3    H1 3346   2.242   2.426   7.168
17626TIP3    H2 3347   2.370   2.495   7.126
17627TIP3   OH2 3348   2.637   1.985   6.880
17627TIP3    H1 3349   2.614   2.077   6.867
17627TIP3    H2 3350   2.561   1.936   6.849
17628TIP3   OH2 3351   2.784   2.368   7.209
17628TIP3    H1 3352   2.754   2.292   7.260
17628TIP3    H2 3353   2.706   2.396   7.161
17629TIP3   OH2 3354   3.048   2.284   7.133
17629TIP3    H1 3355   2.959   2.312   7.155
17629TIP3    H2 3356   3.089   2.266   7.217
17630TIP3   OH2 3357   3.160   2.227   7.381
17630TIP3    H1 3358   3.107   2.161   7.425
17630TIP3    H2 3359   3.169   2.297   7.446
17631TIP3   OH2 3360   2.161   2.273   7.226
17631TIP3    H1 3361   2.162   2.184   7.192
17631TIP3    H2 3362   2.194   2.265   7.315
17632TIP3   OH2 3363   2.699   1.958   7.146
17632TIP3    H1 3364   2.737   1.871   7.156
17632TIP3    H2 3365   2.660   1.958   7.058
17633TIP3   OH2 3366   2.680   2.151   7.340
17633TIP3    H1 3367   2.688   2.093   7.264
17633TIP3    H2 3368   2.653   2.094   7.412
17634TIP3   OH2 3369   2.650   3.777   5.700
17634TIP3    H1 3370   2.739   3.799   5.673
17634TIP3    H2 3371   2.603   3.861   5.698
17635TIP3   OH2 3372   2.005   3.262   5.611
17635TIP3    H1 3373   2.100   3.256   5.621
17635TIP3    H2 3374   1.988   3.233   5.521
17636TIP3   OH2 3375   1.915   3.724   6.132
17636TIP3    H1 3376   1.839   3.699   6.080
17636TIP3    H2 3377   1.929   3.651   6.192
17637TIP3   OH2 3378   1.983   3.509   6.298
17637TIP3    H1 3379   1.945   3.443   6.356
17637TIP3    H2 3380   2.039   3.561   6.354
17638TIP3   OH2 3381   3.713   3.643   6.629
17638TIP3    H1 3382   3.709   3.610   6.718
17638TIP3    H2 3383   3.755   3.729   6.636
17639TIP3   OH2 3384   3.705   3.554   6.884
17639TIP3    H1 3385   3.639   3.487   6.866
17639TIP3    H2 3386   3.723   3.546   6.977
17640TIP3   OH2 3387   3.500   3.136   7.380
17640TIP3    H1 3388   3.417   3.149   7.424
17640TIP3    H2 3389   3.548   3.218   7.394
17641TIP3   OH2 3390   3.670   3.004   5.909
17641TIP3    H1 3391   3.740   3.070   5.911
17641TIP3    H2 3392   3.687   2.948   5.985
17642TIP3   OH2 3393   3.732   2.811   6.103
17642TIP3    H1 3394   3.647   2.782   6.137
17642TIP3    H2 3395   3.784   2.828   6.182
17643TIP3   OH2 3396   3.701   3.112   6.640
17643TIP3    H1 3397   3.764   3.058   6.594
17643TIP3    H2 3398   3.718   3.201   6.610
17644TIP3   OH2 3399   3.514   3.375   6.793
17644TIP3    H1 3400   3.444   3.425   6.835
17644TIP3    H2 3401   3.481   3.362   6.703
17645TIP3   OH2 3402   3.703   2.823   5.710
17645TIP3    H1 3403   3.647   2.852   5.638
17645TIP3    H2 3404   3.689   2.887   5.780
17646TIP3   OH2 3405   3.575   2.522   5.532
17646TIP3    H1 3406   3.576   2.555   5.442
17646TIP3    H2 3407   3.514   2.448   5.530
17647TIP3   OH2 3408   3.474   2.694   6.144
17647TIP3    H1 3409   3.471   2.608   6.103
17647TIP3    H2 3410   3.430   2.683   6.228
17648TIP3   OH2 3411   1.985   2.901   6.567
17648TIP3    H1 3412   2.002   2.883   6.475
17648TIP3    H2 3413   2.057   2.859   6.614
17649TIP3   OH2 3414   3.591   2.868   7.068
17649TIP3    H1 3415   3.645   2.790   7.057
17649TIP3    H2 3416   3.609   2.898   7.157
17650TIP3   OH2 3417   3.710   2.607   7.051
17650TIP3    H1 3418   3.627   2.589   7.094
17650TIP3    H2 3419   3.772   2.546   7.092
17651TIP3   OH2 3420   3.405   2.310   5.555
17651TIP3    H1 3421   3.473   2.249   5.581
17651TIP3    H2 3422   3.328   2.284   5.606
17652TIP3   OH2 3423   3.456   2.452   5.971
17652TIP3    H1 3424   3.485   2.361   5.975
17652TIP3    H2 3425   3.521   2.495   5.916
17653TIP3   OH2 3426   3.472   2.489   6.561
17653TIP3    H1 3427   3.566   2.501   6.549
17653TIP3    H2 3428   3.458   2.503   6.655
17654TIP3   OH2 3429   3.482   2.619   6.836
17654TIP3    H1 3430   3.468   2.596   6.928
17654TIP3    H2 3431   3.569   2.659   6.834
17655TIP3   OH2 3432   1.933   2.426   7.132
17655TIP3    H1 3433   2.019   2.410   7.170
17655TIP3    H2 3434   1.888   2.341   7.137
17656TIP3   OH2 3435   3.735   1.976   7.345
17656TIP3    H1 3436   3.809   1.918   7.325
17656TIP3    H2 3437   3.746   2.050   7.285
17657TIP3   OH2 3438   3.518   2.177   5.987
17657TIP3    H1 3439   3.546   2.144   6.073
17657TIP3    H2 3440   3.447   2.119   5.961
17658TIP3   OH2 3441   2.047   2.242   6.459
17658TIP3    H1 3442   2.089   2.156   6.464
17658TIP3    H2 3443   2.110   2.302   6.500
17659TIP3   OH2 3444   1.853   2.549   6.533
17659TIP3    H1 3445   1.935   2.563   6.486
17659TIP3    H2 3446   1.843   2.626   6.589
17660TIP3   OH2 3447   3.680   2.169   7.145
17660TIP3    H1 3448   3.595   2.193   7.182
17660TIP3    H2 3449   3.659   2.103   7.079
17661TIP3   OH2 3450   3.659   2.176   5.610
17661TIP3    H1 3451   3.724   2.105   5.608
17661TIP3    H2 3452   3.703   2.247   5.657
17662TIP3   OH2 3453   1.907   2.127   5.899
17662TIP3    H1 3454   1.820   2.134   5.938
17662TIP3    H2 3455   1.925   2.215   5.865
17663TIP3   OH2 3456   3.377   3.683   6.164
17663TIP3    H1 3457   3.457   3.691   6.111
17663TIP3    H2 3458   3.390   3.745   6.235
17664TIP3   OH2 3459   1.898   1.983   6.765
17664TIP3    H1 3460   1.831   1.971   6.831
17664TIP3    H2 3461   1.872   2.061   6.717
17665TIP3   OH2 3462   2.171   3.342   7.193
17665TIP3    H1 3463   2.083   3.370   7.219
17665TIP3    H2 3464   2.212   3.312   7.275
17666TIP3   OH2 3465   2.462   3.483   6.822
17666TIP3    H1 3466   2.434   3.572   6.802
17666TIP3    H2 3467   2.557   3.485   6.813
17667TIP3   OH2 3468   2.828   3.602   7.150
17667TIP3    H1 3469   2.842   3.552   7.231
17667TIP3    H2 3470   2.911   3.648   7.137
17668TIP3   OH2 3471   3.075   3.717   7.107
17668TIP3    H1 3472   3.124   3.635   7.107
17668TIP3    H2 3473   3.114   3.768   7.177
17669TIP3   OH2 3474   3.610   1.969   6.961
17669TIP3    H1 3475   3.521   1.993   6.935
17669TIP3    H2 3476   3.612   1.874   6.957
17670TIP3   OH2 3477   2.147   3.746   6.837
17670TIP3    H1 3478   2.069   3.788   6.800
17670TIP3    H2 3479   2.159   3.789   6.921
17671TIP3   OH2 3480   2.413   3.746   6.762
17671TIP3    H1 3481   2.322   3.752   6.789
17671TIP3    H2 3482   2.419   3.800   6.684
17672TIP3   OH2 3483   2.861   3.751   6.691
17672TIP3    H1 3484   2.805   3.806   6.636
17672TIP3    H2 3485   2.881   3.805   6.767
17673TIP3   OH2 3486   3.097   3.613   6.662
17673TIP3    H1 3487   3.015   3.660   6.679
17673TIP3    H2 3488   3.164   3.668   6.702
17674TIP3   OH2 3489   3.334   3.744   6.739
17674TIP3    H1 3490   3.358   3.834   6.716
17674TIP3    H2 3491   3.374   3.691   6.670
17675TIP3   OH2 3492   2.149   3.623   6.491
17675TIP3    H1 3493   2.125   3.592   6.578
17675TIP3    H2 3494   2.230   3.577   6.470
17676TIP3   OH2 3495   2.363   3.463   6.405
17676TIP3    H1 3496   2.348   3.377   6.446
17676TIP3    H2 3497   2.442   3.496   6.448
17677TIP3   OH2 3498   2.609   3.526   6.515
17677TIP3    H1 3499   2.634   3.438   6.489
17677TIP3    H2 3500   2.643   3.535   6.604
17678TIP3   OH2 3501   2.864   2.067   6.312
17678TIP3    H1 3502   2.807   2.015   6.369
17678TIP3    H2 3503   2.953   2.049   6.343
17679TIP3   OH2 3504   3.425   1.980   6.389
17679TIP3    H1 3505   3.490   2.027   6.337
17679TIP3    H2 3506   3.425   2.025   6.474
17680TIP3   OH2 3507   3.629   2.057   6.210
17680TIP3    H1 3508   3.687   1.983   6.192
17680TIP3    H2 3509   3.688   2.130   6.230
17681TIP3   OH2 3510   2.166   1.945   6.161
17681TIP3    H1 3511   2.073   1.928   6.148
17681TIP3    H2 3512   2.208   1.859   6.156
17682TIP3   OH2 3513   1.997   1.996   5.670
17682TIP3    H1 3514   2.089   2.021   5.667
17682TIP3    H2 3515   1.966   2.029   5.754
17683TIP3   OH2 3516   2.590   1.992   6.171
17683TIP3    H1 3517   2.673   2.028   6.140
17683TIP3    H2 3518   2.606   1.972   6.264
17684TIP3   OH2 3519   3.124   1.995   6.390
17684TIP3    H1 3520   3.218   1.999   6.373
17684TIP3    H2 3521   3.104   1.902   6.399
17685TIP3   OH2 3522   3.313   2.002   5.906
17685TIP3    H1 3523   3.238   2.059   5.927
17685TIP3    H2 3524   3.279   1.913   5.917
17686TIP3   OH2 3525   2.016   3.607   5.879
17686TIP3    H1 3526   1.952   3.618   5.809
17686TIP3    H2 3527   2.004   3.684   5.935
17687TIP3   OH2 3528   2.255   2.086   5.649
17687TIP3    H1 3529   2.286   2.129   5.569
17687TIP3    H2 3530   2.319   2.110   5.716
17688TIP3   OH2 3531   2.741   2.221   5.844
17688TIP3    H1 3532   2.777   2.157   5.906
17688TIP3    H2 3533   2.737   2.303   5.894
17689TIP3   OH2 3534   2.928   3.784   5.639
17689TIP3    H1 3535   3.019   3.765   5.662
17689TIP3    H2 3536   2.904   3.714   5.579
17690TIP3   OH2 3537   3.583   3.667   5.973
17690TIP3    H1 3538   3.554   3.579   5.949
17690TIP3    H2 3539   3.566   3.720   5.895
17691TIP3   OH2 3540   2.181   2.006   7.131
17691TIP3    H1 3541   2.127   1.933   7.161
17691TIP3    H2 3542   2.262   1.998   7.181
17692TIP3   OH2 3543   2.373   1.943   7.331
17692TIP3    H1 3544   2.466   1.947   7.354
17692TIP3    H2 3545   2.346   1.855   7.357
17693TIP3   OH2 3546   2.235   3.674   5.529
17693TIP3    H1 3547   2.186   3.631   5.599
17693TIP3    H2 3548   2.272   3.752   5.570
17694TIP3   OH2 3549   3.513   3.525   7.136
17694TIP3    H1 3550   3.441   3.505   7.076
17694TIP3    H2 3551   3.482   3.601   7.185
17695TIP3   OH2 3552   4.941   2.916   6.096
17695TIP3    H1 3553   4.946   3.011   6.080
17695TIP3    H2 3554   4.898   2.908   6.181
17696TIP3   OH2 3555   4.856   2.827   6.524
17696TIP3    H1 3556   4.872   2.788   6.610
17696TIP3    H2 3557   4.804   2.761   6.478
17697TIP3   OH2 3558   4.070   2.753   6.705
17697TIP3    H1 3559   4.067   2.671   6.753
17697TIP3    H2 3560   4.120   2.812   6.761
17698TIP3   OH2 3561   5.212   3.169   6.369
17698TIP3    H1 3562   5.183   3.091   6.417
17698TIP3    H2 3563   5.223   3.236   6.436
17699TIP3   OH2 3564   4.221   3.208   6.446
17699TIP3    H1 3565   4.184   3.120   6.438
17699TIP3    H2 3566   4.309   3.194   6.480
17700TIP3   OH2 3567   3.856   2.580   6.002
17700TIP3    H1 3568   3.830   2.663   6.043
17700TIP3    H2 3569   3.787   2.563   5.938
17701TIP3   OH2 3570   3.921   2.825   6.312
17701TIP3    H1 3571   3.940   2.736   6.340
17701TIP3    H2 3572   4.004   2.872   6.323
17702TIP3   OH2 3573   4.922   3.628   6.359
17702TIP3    H1 3574   4.962   3.563   6.302
17702TIP3    H2 3575   4.829   3.625   6.339
17703TIP3   OH2 3576   4.732   3.072   6.574
17703TIP3    H1 3577   4.765   2.987   6.546
17703TIP3    H2 3578   4.805   3.113   6.620
17704TIP3   OH2 3579   5.600   2.234   6.655
17704TIP3    H1 3580   5.593   2.289   6.733
17704TIP3    H2 3581   5.648   2.288   6.592
17705TIP3   OH2 3582   5.006   2.532   6.534
17705TIP3    H1 3583   5.011   2.440   6.560
17705TIP3    H2 3584   4.969   2.530   6.445
17706TIP3   OH2 3585   4.349   2.311   6.295
17706TIP3    H1 3586   4.351   2.399   6.256
17706TIP3    H2 3587   4.286   2.263   6.241
17707TIP3   OH2 3588   5.136   2.350   6.164
17707TIP3    H1 3589   5.170   2.314   6.246
17707TIP3    H2 3590   5.214   2.382   6.118
17708TIP3   OH2 3591   3.981   2.568   6.393
17708TIP3    H1 3592   4.045   2.530   6.453
17708TIP3    H2 3593   4.005   2.533   6.307
17709TIP3   OH2 3594   4.491   2.722   6.318
17709TIP3    H1 3595   4.567   2.677   6.355
17709TIP3    H2 3596   4.441   2.653   6.274
17710TIP3   OH2 3597   5.569   2.386   6.881
17710TIP3    H1 3598   5.510   2.459   6.862
17710TIP3    H2 3599   5.615   2.412   6.961
17711TIP3   OH2 3600   4.221   2.229   6.729
17711TIP3    H1 3601   4.187   2.295   6.669
17711TIP3    H2 3602   4.159   2.229   6.803
17712TIP3   OH2 3603   4.958   3.178   6.025
17712TIP3    H1 3604   4.936   3.186   5.932
17712TIP3    H2 3605   4.905   3.245   6.068
17713TIP3   OH2 3606   4.503   2.991   6.727
17713TIP3    H1 3607   4.437   3.056   6.753
17713TIP3    H2 3608   4.564   3.040   6.672
17714TIP3   OH2 3609   5.224   2.269   6.408
17714TIP3    H1 3610   5.148   2.259   6.464
17714TIP3    H2 3611   5.282   2.327   6.457
17715TIP3   OH2 3612   4.182   2.400   6.508
17715TIP3    H1 3613   4.234   2.461   6.561
17715TIP3    H2 3614   4.245   2.364   6.445
17716TIP3   OH2 3615   4.323   3.198   6.804
17716TIP3    H1 3616   4.332   3.293   6.795
17716TIP3    H2 3617   4.231   3.185   6.826
17717TIP3   OH2 3618   3.883   3.177   5.884
17717TIP3    H1 3619   3.878   3.223   5.801
17717TIP3    H2 3620   3.904   3.245   5.948
17718TIP3   OH2 3621   5.221   3.405   6.554
17718TIP3    H1 3622   5.139   3.451   6.537
17718TIP3    H2 3623   5.289   3.471   6.538
17719TIP3   OH2 3624   5.346   2.116   6.659
17719TIP3    H1 3625   5.323   2.166   6.737
17719TIP3    H2 3626   5.432   2.151   6.634
17720TIP3   OH2 3627   4.560   1.927   6.471
17720TIP3    H1 3628   4.538   1.835   6.482
17720TIP3    H2 3629   4.482   1.974   6.500
17721TIP3   OH2 3630   5.077   3.492   6.166
17721TIP3    H1 3631   5.124   3.410   6.152
17721TIP3    H2 3632   5.146   3.558   6.174
17722TIP3   OH2 3633   5.215   3.259   6.105
17722TIP3    H1 3634   5.135   3.216   6.073
17722TIP3    H2 3635   5.229   3.221   6.192
17723TIP3   OH2 3636   5.383   3.147   6.920
17723TIP3    H1 3637   5.379   3.086   6.846
17723TIP3    H2 3638   5.399   3.232   6.880
17724TIP3   OH2 3639   4.829   2.815   5.861
17724TIP3    H1 3640   4.759   2.880   5.847
17724TIP3    H2 3641   4.879   2.849   5.935
17725TIP3   OH2 3642   4.832   2.675   5.578
17725TIP3    H1 3643   4.846   2.722   5.660
17725TIP3    H2 3644   4.881   2.593   5.589
17726TIP3   OH2 3645   5.531   2.775   6.702
17726TIP3    H1 3646   5.468   2.846   6.713
17726TIP3    H2 3647   5.603   2.813   6.651
17727TIP3   OH2 3648   5.182   2.845   5.982
17727TIP3    H1 3649   5.103   2.868   6.031
17727TIP3    H2 3650   5.238   2.802   6.046
17728TIP3   OH2 3651   5.138   2.643   6.913
17728TIP3    H1 3652   5.157   2.708   6.981
17728TIP3    H2 3653   5.057   2.673   6.872
17729TIP3   OH2 3654   4.357   2.919   6.174
17729TIP3    H1 3655   4.327   2.877   6.093
17729TIP3    H2 3656   4.410   2.852   6.218
17730TIP3   OH2 3657   4.505   3.208   6.477
17730TIP3    H1 3658   4.512   3.240   6.387
17730TIP3    H2 3659   4.590   3.168   6.495
17731TIP3   OH2 3660   4.364   2.814   6.555
17731TIP3    H1 3661   4.423   2.797   6.482
17731TIP3    H2 3662   4.412   2.872   6.613
17732TIP3   OH2 3663   4.974   3.333   6.700
17732TIP3    H1 3664   4.968   3.429   6.703
17732TIP3    H2 3665   5.062   3.315   6.667
17733TIP3   OH2 3666   4.474   3.215   7.035
17733TIP3    H1 3667   4.421   3.275   7.088
17733TIP3    H2 3668   4.419   3.196   6.959
17734TIP3   OH2 3669   5.125   2.721   5.743
17734TIP3    H1 3670   5.143   2.768   5.825
17734TIP3    H2 3671   5.146   2.784   5.674
17735TIP3   OH2 3672   4.174   2.862   6.946
17735TIP3    H1 3673   4.181   2.935   7.007
17735TIP3    H2 3674   4.083   2.832   6.956
17736TIP3   OH2 3675   4.824   3.394   6.116
17736TIP3    H1 3676   4.904   3.444   6.134
17736TIP3    H2 3677   4.753   3.451   6.145
17737TIP3   OH2 3678   4.304   3.415   7.116
17737TIP3    H1 3679   4.299   3.444   7.025
17737TIP3    H2 3680   4.212   3.404   7.142
17738TIP3   OH2 3681   5.414   1.950   5.759
17738TIP3    H1 3682   5.330   1.979   5.793
17738TIP3    H2 3683   5.456   2.031   5.728
17739TIP3   OH2 3684   4.255   2.825   5.920
17739TIP3    H1 3685   4.194   2.891   5.886
17739TIP3    H2 3686   4.202   2.746   5.929
17740TIP3   OH2 3687   5.555   3.385   5.583
17740TIP3    H1 3688   5.575   3.475   5.610
17740TIP3    H2 3689   5.631   3.334   5.610
17741TIP3   OH2 3690   3.833   3.062   6.889
17741TIP3    H1 3691   3.797   3.057   6.800
17741TIP3    H2 3692   3.853   2.971   6.911
17742TIP3   OH2 3693   3.795   3.377   6.559
17742TIP3    H1 3694   3.872   3.385   6.617
17742TIP3    H2 3695   3.746   3.459   6.573
17743TIP3   OH2 3696   5.656   3.410   7.126
17743TIP3    H1 3697   5.633   3.318   7.134
17743TIP3    H2 3698   5.573   3.457   7.139
17744TIP3   OH2 3699   4.680   3.372   6.941
17744TIP3    H1 3700   4.691   3.443   7.005
17744TIP3    H2 3701   4.609   3.319   6.976
17745TIP3   OH2 3702   4.797   3.684   5.956
17745TIP3    H1 3703   4.757   3.766   5.926
17745TIP3    H2 3704   4.751   3.663   6.037
17746TIP3   OH2 3705   4.145   3.598   6.152
17746TIP3    H1 3706   4.169   3.563   6.238
17746TIP3    H2 3707   4.093   3.529   6.112
17747TIP3   OH2 3708   5.078   3.627   5.636
17747TIP3    H1 3709   5.146   3.561   5.618
17747TIP3    H2 3710   5.079   3.637   5.731
17748TIP3   OH2 3711   5.066   3.656   5.912
17748TIP3    H1 3712   4.971   3.665   5.926
17748TIP3    H2 3713   5.097   3.605   5.987
17749TIP3   OH2 3714   5.363   2.483   7.162
17749TIP3    H1 3715   5.281   2.517   7.197
17749TIP3    H2 3716   5.376   2.400   7.208
17750TIP3   OH2 3717   4.064   3.218   6.907
17750TIP3    H1 3718   4.090   3.195   6.997
17750TIP3    H2 3719   3.983   3.169   6.893
17751TIP3   OH2 3720   4.317   2.037   6.555
17751TIP3    H1 3721   4.237   2.026   6.503
17751TIP3    H2 3722   4.297   2.107   6.616
17752TIP3   OH2 3723   4.818   1.976   6.880
17752TIP3    H1 3724   4.866   1.939   6.954
17752TIP3    H2 3725   4.727   1.977   6.908
17753TIP3   OH2 3726   5.106   2.370   6.955
17753TIP3    H1 3727   5.046   2.358   7.029
17753TIP3    H2 3728   5.122   2.465   6.952
17754TIP3   OH2 3729   5.194   2.880   5.527
17754TIP3    H1 3730   5.147   2.960   5.502
17754TIP3    H2 3731   5.285   2.907   5.533
17755TIP3   OH2 3732   4.797   2.240   5.624
17755TIP3    H1 3733   4.736   2.238   5.697
17755TIP3    H2 3734   4.777   2.161   5.574
17756TIP3   OH2 3735   4.329   2.562   6.672
17756TIP3    H1 3736   4.280   2.566   6.755
17756TIP3    H2 3737   4.328   2.653   6.640
17757TIP3   OH2 3738   4.329   2.553   6.166
17757TIP3    H1 3739   4.233   2.548   6.170
17757TIP3    H2 3740   4.350   2.528   6.075
17758TIP3   OH2 3741   4.876   2.576   6.005
17758TIP3    H1 3742   4.853   2.657   5.959
17758TIP3    H2 3743   4.952   2.543   5.958
17759TIP3   OH2 3744   4.821   2.611   7.147
17759TIP3    H1 3745   4.762   2.546   7.183
17759TIP3    H2 3746   4.898   2.609   7.204
17760TIP3   OH2 3747   4.921   2.499   6.273
17760TIP3    H1 3748   4.895   2.542   6.191
17760TIP3    H2 3749   4.990   2.438   6.247
17761TIP3   OH2 3750   4.124   2.527   6.874
17761TIP3    H1 3751   4.141   2.557   6.963
17761TIP3    H2 3752   4.092   2.437   6.885
17762TIP3   OH2 3753   4.353   2.268   5.471
17762TIP3    H1 3754   4.356   2.260   5.566
17762TIP3    H2 3755   4.351   2.362   5.455
17763TIP3   OH2 3756   3.821   2.247   6.241
17763TIP3    H1 3757   3.850   2.251   6.332
17763TIP3    H2 3758   3.873   2.313   6.195
17764TIP3   OH2 3759   3.824   2.357   5.744
17764TIP3    H1 3760   3.898   2.400   5.701
17764TIP3    H2 3761   3.768   2.430   5.772
17765TIP3   OH2 3762   4.901   2.674   6.750
17765TIP3    H1 3763   4.946   2.621   6.684
17765TIP3    H2 3764   4.852   2.610   6.802
17766TIP3   OH2 3765   4.624   2.269   6.233
17766TIP3    H1 3766   4.536   2.275   6.269
17766TIP3    H2 3767   4.677   2.234   6.305
17767TIP3   OH2 3768   4.064   2.469   6.147
17767TIP3    H1 3769   3.997   2.500   6.085
17767TIP3    H2 3770   4.087   2.382   6.116
17768TIP3   OH2 3771   4.386   2.461   5.912
17768TIP3    H1 3772   4.480   2.461   5.930
17768TIP3    H2 3773   4.378   2.509   5.830
17769TIP3   OH2 3774   4.983   2.257   6.545
17769TIP3    H1 3775   4.961   2.244   6.637
17769TIP3    H2 3776   4.912   2.214   6.497
17770TIP3   OH2 3777   4.354   2.567   5.664
17770TIP3    H1 3778   4.286   2.555   5.599
17770TIP3    H2 3779   4.426   2.610   5.617
17771TIP3   OH2 3780   5.370   3.813   7.228
17771TIP3    H1 3781   5.413   3.835   7.145
17771TIP3    H2 3782   5.436   3.834   7.295
17772TIP3   OH2 3783   4.131   3.061   7.139
17772TIP3    H1 3784   4.202   3.076   7.201
17772TIP3    H2 3785   4.055   3.042   7.194
17773TIP3   OH2 3786   4.705   2.596   6.440
17773TIP3    H1 3787   4.766   2.538   6.394
17773TIP3    H2 3788   4.674   2.543   6.514
17774TIP3   OH2 3789   4.161   2.206   6.106
17774TIP3    H1 3790   4.114   2.127   6.133
17774TIP3    H2 3791   4.206   2.181   6.025
17775TIP3   OH2 3792   4.594   2.468   6.666
17775TIP3    H1 3793   4.508   2.506   6.680
17775TIP3    H2 3794   4.640   2.483   6.749
17776TIP3   OH2 3795   4.650   3.033   5.843
17776TIP3    H1 3796   4.576   2.995   5.794
17776TIP3    H2 3797   4.611   3.069   5.922
17777TIP3   OH2 3798   5.355   2.994   6.688
17777TIP3    H1 3799   5.424   3.042   6.642
17777TIP3    H2 3800   5.287   2.981   6.622
17778TIP3   OH2 3801   4.986   2.434   5.592
17778TIP3    H1 3802   4.919   2.366   5.600
17778TIP3    H2 3803   5.028   2.437   5.678
17779TIP3   OH2 3804   4.795   3.125   7.069
17779TIP3    H1 3805   4.706   3.097   7.092
17779TIP3    H2 3806   4.836   3.144   7.154
17780TIP3   OH2 3807   5.092   2.474   5.849
17780TIP3    H1 3808   5.172   2.456   5.899
17780TIP3    H2 3809   5.106   2.561   5.812
17781TIP3   OH2 3810   4.169   2.930   6.386
17781TIP3    H1 3811   4.232   2.938   6.314
17781TIP3    H2 3812   4.217   2.885   6.455
17782TIP3   OH2 3813   4.858   3.203   5.764
17782TIP3    H1 3814   4.825   3.293   5.774
17782TIP3    H2 3815   4.785   3.148   5.795
17783TIP3   OH2 3816   3.902   2.807   6.986
17783TIP3    H1 3817   3.936   2.798   7.076
17783TIP3    H2 3818   3.837   2.737   6.978
17784TIP3   OH2 3819   4.528   2.701   7.214
17784TIP3    H1 3820   4.445   2.666   7.182
17784TIP3    H2 3821   4.530   2.674   7.306
17785TIP3   OH2 3822   4.970   3.426   6.994
17785TIP3    H1 3823   4.901   3.482   7.029
17785TIP3    H2 3824   5.015   3.392   7.072
17786TIP3   OH2 3825   5.523   2.565   5.801
17786TIP3    H1 3826   5.486   2.537   5.717
17786TIP3    H2 3827   5.547   2.657   5.787
17787TIP3   OH2 3828   5.603   3.132   7.100
17787TIP3    H1 3829   5.511   3.143   7.074
17787TIP3    H2 3830   5.649   3.115   7.018
17788TIP3   OH2 3831   5.389   3.396   5.923
17788TIP3    H1 3832   5.332   3.355   5.988
17788TIP3    H2 3833   5.417   3.325   5.867
17789TIP3   OH2 3834   5.130   2.927   6.510
17789TIP3    H1 3835   5.037   2.905   6.506
17789TIP3    H2 3836   5.175   2.847   6.480
17790TIP3   OH2 3837   4.478   3.345   6.233
17790TIP3    H1 3838   4.529   3.425   6.234
17790TIP3    H2 3839   4.389   3.373   6.252
17791TIP3   OH2 3840   3.963   2.804   5.622
17791TIP3    H1 3841   4.010   2.868   5.677
17791TIP3    H2 3842   3.872   2.809   5.652
17792TIP3   OH2 3843   4.500   3.130   6.052
17792TIP3    H1 3844   4.500   3.207   6.108
17792TIP3    H2 3845   4.447   3.066   6.099
17793TIP3   OH2 3846   4.602   3.538   6.738
17793TIP3    H1 3847   4.662   3.611   6.721
17793TIP3    H2 3848   4.646   3.485   6.804
17794TIP3   OH2 3849   4.392   3.598   6.015
17794TIP3    H1 3850   4.310   3.612   6.062
17794TIP3    H2 3851   4.460   3.609   6.082
17795TIP3   OH2 3852   4.967   3.046   6.790
17795TIP3    H1 3853   5.020   3.044   6.870
17795TIP3    H2 3854   5.019   2.998   6.726
17796TIP3   OH2 3855   5.140   3.204   5.650
17796TIP3    H1 3856   5.194   3.147   5.705
17796TIP3    H2 3857   5.057   3.212   5.698
17797TIP3   OH2 3858   5.210   3.555   6.937
17797TIP3    H1 3859   5.121   3.518   6.938
17797TIP3    H2 3860   5.205   3.626   6.874
17798TIP3   OH2 3861   5.611   3.653   5.656
17798TIP3    H1 3862   5.669   3.730   5.649
17798TIP3    H2 3863   5.524   3.690   5.673
17799TIP3   OH2 3864   4.044   2.256   6.942
17799TIP3    H1 3865   3.982   2.302   6.999
17799TIP3    H2 3866   4.054   2.170   6.982
17800TIP3   OH2 3867   5.289   3.037   5.810
17800TIP3    H1 3868   5.246   2.977   5.872
17800TIP3    H2 3869   5.381   3.037   5.838
17801TIP3   OH2 3870   3.992   3.456   6.745
17801TIP3    H1 3871   4.029   3.383   6.794
17801TIP3    H2 3872   3.963   3.518   6.811
17802TIP3   OH2 3873   4.588   3.289   5.502
17802TIP3    H1 3874   4.659   3.226   5.514
17802TIP3    H2 3875   4.535   3.281   5.581
17803TIP3   OH2 3876   4.438   3.279   5.744
17803TIP3    H1 3877   4.447   3.243   5.832
17803TIP3    H2 3878   4.452   3.373   5.754
17804TIP3   OH2 3879   4.075   2.997   5.793
17804TIP3    H1 3880   4.006   3.040   5.844
17804TIP3    H2 3881   4.115   3.067   5.743
17805TIP3   OH2 3882   4.913   2.233   6.807
17805TIP3    H1 3883   4.982   2.264   6.865
17805TIP3    H2 3884   4.884   2.150   6.845
17806TIP3   OH2 3885   4.987   2.216   5.976
17806TIP3    H1 3886   4.985   2.291   5.916
17806TIP3    H2 3887   5.031   2.250   6.054
17807TIP3   OH2 3888   4.760   3.458   5.780
17807TIP3    H1 3889   4.667   3.478   5.768
17807TIP3    H2 3890   4.791   3.521   5.844
17808TIP3   OH2 3891   4.645   2.424   6.005
17808TIP3    H1 3892   4.722   2.481   6.012
17808TIP3    H2 3893   4.638   2.382   6.091
17809TIP3   OH2 3894   4.765   2.484   6.891
17809TIP3    H1 3895   4.775   2.512   6.983
17809TIP3    H2 3896   4.800   2.395   6.890
17810TIP3   OH2 3897   4.750   2.084   6.060
17810TIP3    H1 3898   4.717   2.150   6.122
17810TIP3    H2 3899   4.838   2.115   6.038
17811TIP3   OH2 3900   4.496   3.544   5.771
17811TIP3    H1 3901   4.502   3.626   5.722
17811TIP3    H2 3902   4.458   3.569   5.855
17812TIP3   OH2 3903   4.353   2.231   5.749
17812TIP3    H1 3904   4.340   2.309   5.804
17812TIP3    H2 3905   4.441   2.201   5.770
17813TIP3   OH2 3906   5.334   2.230   6.908
17813TIP3    H1 3907   5.255   2.278   6.933
17813TIP3    H2 3908   5.405   2.294   6.917
17814TIP3   OH2 3909   5.224   2.668   6.430
17814TIP3    H1 3910   5.143   2.632   6.466
17814TIP3    H2 3911   5.293   2.611   6.464
17815TIP3   OH2 3912   4.175   3.209   5.639
17815TIP3    H1 3913   4.242   3.260   5.684
17815TIP3    H2 3914   4.224   3.150   5.581
17816TIP3   OH2 3915   3.993   2.528   5.603
17816TIP3    H1 3916   3.991   2.620   5.630
17816TIP3    H2 3917   3.999   2.531   5.508
17817TIP3   OH2 3918   5.383   3.631   6.533
17817TIP3    H1 3919   5.354   3.698   6.470
17817TIP3    H2 3920   5.473   3.656   6.554
17818TIP3   OH2 3921   4.069   2.001   6.438
17818TIP3    H1 3922   4.060   1.993   6.343
17818TIP3    H2 3923   4.046   1.915   6.472
17819TIP3   OH2 3924   3.937   3.394   6.052
17819TIP3    H1 3925   3.901   3.423   6.136
17819TIP3    H2 3926   3.921   3.467   5.992
17820TIP3   OH2 3927   3.926   3.712   7.206
17820TIP3    H1 3928   3.984   3.686   7.277
17820TIP3    H2 3929   3.880   3.631   7.183
17821TIP3   OH2 3930   4.326   3.526   7.374
17821TIP3    H1 3931   4.413   3.558   7.398
17821TIP3    H2 3932   4.339   3.485   7.288
17822TIP3   OH2 3933   4.770   3.493   5.454
17822TIP3    H1 3934   4.692   3.439   5.458
17822TIP3    H2 3935   4.825   3.461   5.526
17823TIP3   OH2 3936   5.085   3.309   7.206
17823TIP3    H1 3937   5.027   3.261   7.265
17823TIP3    H2 3938   5.141   3.359   7.264
17824TIP3   OH2 3939   5.262   3.431   5.546
17824TIP3    H1 3940   5.224   3.353   5.586
17824TIP3    H2 3941   5.357   3.419   5.557
17825TIP3   OH2 3942   3.874   3.046   7.292
17825TIP3    H1 3943   3.804   2.983   7.308
17825TIP3    H2 3944   3.836   3.108   7.230
17826TIP3   OH2 3945   4.335   3.036   5.501
17826TIP3    H1 3946   4.365   2.990   5.579
17826TIP3    H2 3947   4.414   3.055   5.451
17827TIP3   OH2 3948   4.565   3.002   7.176
17827TIP3    H1 3949   4.524   3.075   7.131
17827TIP3    H2 3950   4.508   2.985   7.251
17828TIP3   OH2 3951   4.848   3.135   5.499
17828TIP3    H1 3952   4.863   3.163   5.590
17828TIP3    H2 3953   4.836   3.041   5.504
17829TIP3   OH2 3954   5.125   3.116   7.009
17829TIP3    H1 3955   5.217   3.131   6.985
17829TIP3    H2 3956   5.110   3.173   7.084
17830TIP3   OH2 3957   4.016   2.744   7.224
17830TIP3    H1 3958   4.078   2.671   7.215
17830TIP3    H2 3959   4.010   2.760   7.318
17831TIP3   OH2 3960   4.442   2.896   5.719
17831TIP3    H1 3961   4.385   2.863   5.788
17831TIP3    H2 3962   4.471   2.817   5.672
17832TIP3   OH2 3963   4.394   2.686   6.941
17832TIP3    H1 3964   4.320   2.746   6.945
17832TIP3    H2 3965   4.471   2.743   6.944
17833TIP3   OH2 3966   4.556   2.708   5.542
17833TIP3    H1 3967   4.546   2.711   5.446
17833TIP3    H2 3968   4.649   2.694   5.555
17834TIP3   OH2 3969   4.888   2.874   7.288
17834TIP3    H1 3970   4.982   2.886   7.298
17834TIP3    H2 3971   4.866   2.803   7.349
17835TIP3   OH2 3972   5.454   2.975   5.502
17835TIP3    H1 3973   5.468   2.977   5.407
17835TIP3    H2 3974   5.479   3.062   5.532
17836TIP3   OH2 3975   4.425   2.433   7.051
17836TIP3    H1 3976   4.443   2.365   6.986
17836TIP3    H2 3977   4.420   2.514   6.999
17837TIP3   OH2 3978   4.477   2.245   6.830
17837TIP3    H1 3979   4.524   2.294   6.763
17837TIP3    H2 3980   4.387   2.240   6.798
17838TIP3   OH2 3981   4.652   2.832   6.909
17838TIP3    H1 3982   4.718   2.797   6.849
17838TIP3    H2 3983   4.600   2.891   6.855
17839TIP3   OH2 3984   5.128   2.512   7.306
17839TIP3    H1 3985   5.104   2.422   7.329
17839TIP3    H2 3986   5.132   2.558   7.390
17840TIP3   OH2 3987   5.201   2.853   7.075
17840TIP3    H1 3988   5.170   2.943   7.062
17840TIP3    H2 3989   5.297   2.860   7.074
17841TIP3   OH2 3990   4.180   2.520   7.155
17841TIP3    H1 3991   4.140   2.456   7.215
17841TIP3    H2 3992   4.265   2.482   7.133
17842TIP3   OH2 3993   4.533   1.969   6.890
17842TIP3    H1 3994   4.517   2.063   6.880
17842TIP3    H2 3995   4.453   1.927   6.858
17843TIP3   OH2 3996   4.658   2.397   7.203
17843TIP3    H1 3997   4.640   2.334   7.272
17843TIP3    H2 3998   4.573   2.415   7.163
17844TIP3   OH2 3999   4.909   2.306   7.130
17844TIP3    H1 4000   4.820   2.327   7.159
17844TIP3    H2 4001   4.955   2.280   7.209
17845TIP3   OH2 4002   5.074   2.235   7.351
17845TIP3    H1 4003   5.080   2.141   7.334
17845TIP3    H2 4004   5.001   2.243   7.413
17846TIP3   OH2 4005   4.060   2.337   7.325
17846TIP3    H1 4006   4.103   2.267   7.374
17846TIP3    H2 4007   4.021   2.393   7.392
17847TIP3   OH2 4008   4.533   1.948   7.176
17847TIP3    H1 4009   4.558   1.858   7.198
17847TIP3    H2 4010   4.531   1.950   7.080
17848TIP3   OH2 4011   4.626   2.156   7.348
17848TIP3    H1 4012   4.597   2.079   7.299
17848TIP3    H2 4013   4.552   2.177   7.404
17849TIP3   OH2 4014   4.550   3.767   5.613
17849TIP3    H1 4015   4.646   3.767   5.620
17849TIP3    H2 4016   4.532   3.812   5.530
17850TIP3   OH2 4017   3.893   3.262   5.612
17850TIP3    H1 4018   3.989   3.259   5.622
17850TIP3    H2 4019   3.878   3.238   5.521
17851TIP3   OH2 4020   3.791   3.727   6.141
17851TIP3    H1 4021   3.720   3.699   6.083
17851TIP3    H2 4022   3.808   3.652   6.197
17852TIP3   OH2 4023   3.859   3.509   6.303
17852TIP3    H1 4024   3.820   3.441   6.358
17852TIP3    H2 4025   3.912   3.561   6.363
17853TIP3   OH2 4026   5.643   3.733   6.615
17853TIP3    H1 4027   5.617   3.700   6.701
17853TIP3    H2 4028   5.718   3.679   6.591
17854TIP3   OH2 4029   5.565   3.622   6.852
17854TIP3    H1 4030   5.517   3.540   6.844
17854TIP3    H2 4031   5.609   3.616   6.937
17855TIP3   OH2 4032   5.375   3.201   7.315
17855TIP3    H1 4033   5.303   3.212   7.377
17855TIP3    H2 4034   5.442   3.263   7.346
17856TIP3   OH2 4035   5.552   3.013   5.898
17856TIP3    H1 4036   5.625   3.073   5.913
17856TIP3    H2 4037   5.556   2.951   5.971
17857TIP3   OH2 4038   5.567   2.817   6.090
17857TIP3    H1 4039   5.488   2.780   6.128
17857TIP3    H2 4040   5.630   2.818   6.163
17858TIP3   OH2 4041   5.593   3.103   6.605
17858TIP3    H1 4042   5.647   3.032   6.571
17858TIP3    H2 4043   5.640   3.183   6.581
17859TIP3   OH2 4044   5.386   3.397   6.799
17859TIP3    H1 4045   5.327   3.446   6.856
17859TIP3    H2 4046   5.340   3.391   6.716
17860TIP3   OH2 4047   5.576   2.821   5.703
17860TIP3    H1 4048   5.525   2.861   5.633
17860TIP3    H2 4049   5.572   2.885   5.775
17861TIP3   OH2 4050   5.417   2.508   5.551
17861TIP3    H1 4051   5.351   2.561   5.508
17861TIP3    H2 4052   5.395   2.418   5.527
17862TIP3   OH2 4053   5.325   2.694   6.168
17862TIP3    H1 4054   5.328   2.603   6.140
17862TIP3    H2 4055   5.290   2.690   6.257
17863TIP3   OH2 4056   3.875   2.902   6.576
17863TIP3    H1 4057   3.885   2.888   6.482
17863TIP3    H2 4058   3.951   2.859   6.615
17864TIP3   OH2 4059   5.477   2.867   7.078
17864TIP3    H1 4060   5.519   2.781   7.079
17864TIP3    H2 4061   5.550   2.929   7.078
17865TIP3   OH2 4062   5.587   2.614   7.080
17865TIP3    H1 4063   5.503   2.578   7.107
17865TIP3    H2 4064   5.652   2.556   7.118
17866TIP3   OH2 4065   5.321   2.249   5.515
17866TIP3    H1 4066   5.404   2.216   5.549
17866TIP3    H2 4067   5.255   2.220   5.578
17867TIP3   OH2 4068   5.340   2.444   5.984
17867TIP3    H1 4069   5.375   2.354   5.984
17867TIP3    H2 4070   5.403   2.494   5.932
17868TIP3   OH2 4071   5.376   2.463   6.539
17868TIP3    H1 4072   5.471   2.469   6.526
17868TIP3    H2 4073   5.364   2.483   6.632
17869TIP3   OH2 4074   5.378   2.563   6.796
17869TIP3    H1 4075   5.300   2.591   6.843
17869TIP3    H2 4076   5.426   2.645   6.779
17870TIP3   OH2 4077   3.861   2.371   7.121
17870TIP3    H1 4078   3.924   2.374   7.193
17870TIP3    H2 4079   3.801   2.299   7.143
17871TIP3   OH2 4080   5.584   1.920   7.420
17871TIP3    H1 4081   5.660   1.916   7.363
17871TIP3    H2 4082   5.581   2.012   7.449
17872TIP3   OH2 4083   5.409   2.176   5.989
17872TIP3    H1 4084   5.434   2.134   6.071
17872TIP3    H2 4085   5.334   2.125   5.958
17873TIP3   OH2 4086   3.945   2.248   6.486
17873TIP3    H1 4087   3.983   2.161   6.485
17873TIP3    H2 4088   4.019   2.307   6.500
17874TIP3   OH2 4089   3.740   2.549   6.553
17874TIP3    H1 4090   3.820   2.559   6.500
17874TIP3    H2 4091   3.741   2.625   6.611
17875TIP3   OH2 4092   5.583   2.175   7.151
17875TIP3    H1 4093   5.509   2.197   7.208
17875TIP3    H2 4094   5.549   2.108   7.093
17876TIP3   OH2 4095   5.551   2.171   5.636
17876TIP3    H1 4096   5.621   2.109   5.613
17876TIP3    H2 4097   5.596   2.242   5.682
17877TIP3   OH2 4098   3.791   2.116   5.879
17877TIP3    H1 4099   3.715   2.128   5.936
17877TIP3    H2 4100   3.816   2.204   5.853
17878TIP3   OH2 4101   5.275   3.671   6.147
17878TIP3    H1 4102   5.356   3.674   6.096
17878TIP3    H2 4103   5.293   3.728   6.223
17879TIP3   OH2 4104   3.797   1.986   6.755
17879TIP3    H1 4105   3.744   1.986   6.835
17879TIP3    H2 4106   3.773   2.068   6.711
17880TIP3   OH2 4107   4.043   3.389   7.202
17880TIP3    H1 4108   3.958   3.422   7.172
17880TIP3    H2 4109   4.027   3.354   7.289
17881TIP3   OH2 4110   4.349   3.477   6.840
17881TIP3    H1 4111   4.304   3.560   6.822
17881TIP3    H2 4112   4.438   3.491   6.806
17882TIP3   OH2 4113   4.762   3.577   7.110
17882TIP3    H1 4114   4.757   3.538   7.197
17882TIP3    H2 4115   4.827   3.647   7.118
17883TIP3   OH2 4116   4.970   3.756   7.105
17883TIP3    H1 4117   5.048   3.735   7.054
17883TIP3    H2 4118   5.004   3.787   7.189
17884TIP3   OH2 4119   5.451   1.995   6.977
17884TIP3    H1 4120   5.406   2.077   6.957
17884TIP3    H2 4121   5.400   1.928   6.933
17885TIP3   OH2 4122   4.043   3.798   6.847
17885TIP3    H1 4123   3.958   3.821   6.810
17885TIP3    H2 4124   4.044   3.841   6.933
17886TIP3   OH2 4125   4.303   3.747   6.781
17886TIP3    H1 4126   4.211   3.764   6.803
17886TIP3    H2 4127   4.314   3.785   6.693
17887TIP3   OH2 4128   4.770   3.750   6.679
17887TIP3    H1 4129   4.716   3.788   6.610
17887TIP3    H2 4130   4.775   3.819   6.745
17888TIP3   OH2 4131   5.001   3.602   6.701
17888TIP3    H1 4132   4.920   3.651   6.684
17888TIP3    H2 4133   5.068   3.670   6.709
17889TIP3   OH2 4134   5.235   3.746   6.739
17889TIP3    H1 4135   5.253   3.839   6.723
17889TIP3    H2 4136   5.287   3.700   6.674
17890TIP3   OH2 4137   4.019   3.624   6.504
17890TIP3    H1 4138   4.002   3.588   6.591
17890TIP3    H2 4139   4.094   3.574   6.471
17891TIP3   OH2 4140   4.216   3.473   6.384
17891TIP3    H1 4141   4.198   3.381   6.405
17891TIP3    H2 4142   4.295   3.493   6.434
17892TIP3   OH2 4143   4.443   3.478   6.525
17892TIP3    H1 4144   4.468   3.386   6.524
17892TIP3    H2 4145   4.498   3.517   6.593
17893TIP3   OH2 4146   4.785   2.114   6.396
17893TIP3    H1 4147   4.730   2.048   6.439
17893TIP3    H2 4148   4.859   2.066   6.362
17894TIP3   OH2 4149   5.295   1.987   6.361
17894TIP3    H1 4150   5.374   2.012   6.313
17894TIP3    H2 4151   5.276   2.061   6.418
17895TIP3   OH2 4152   5.516   2.051   6.209
17895TIP3    H1 4153   5.579   1.982   6.190
17895TIP3    H2 4154   5.570   2.128   6.227
17896TIP3   OH2 4155   4.047   1.956   6.164
17896TIP3    H1 4156   3.955   1.936   6.147
17896TIP3    H2 4157   4.091   1.871   6.163
17897TIP3   OH2 4158   3.887   1.997   5.652
17897TIP3    H1 4159   3.979   2.025   5.649
17897TIP3    H2 4160   3.857   2.024   5.739
17898TIP3   OH2 4161   4.543   1.929   6.188
17898TIP3    H1 4162   4.614   1.984   6.154
17898TIP3    H2 4163   4.550   1.938   6.283
17899TIP3   OH2 4164   5.005   1.974   6.309
17899TIP3    H1 4165   5.099   1.988   6.319
17899TIP3    H2 4166   4.991   1.884   6.338
17900TIP3   OH2 4167   5.186   2.038   5.889
17900TIP3    H1 4168   5.114   2.096   5.915
17900TIP3    H2 4169   5.151   1.950   5.901
17901TIP3   OH2 4170   3.897   3.606   5.886
17901TIP3    H1 4171   3.833   3.611   5.815
17901TIP3    H2 4172   3.886   3.688   5.935
17902TIP3   OH2 4173   4.148   2.072   5.629
17902TIP3    H1 4174   4.209   2.005   5.598
17902TIP3    H2 4175   4.204   2.137   5.673
17903TIP3   OH2 4176   4.622   2.208   5.838
17903TIP3    H1 4177   4.652   2.140   5.900
17903TIP3    H2 4178   4.626   2.289   5.889
17904TIP3   OH2 4179   4.822   3.735   5.586
17904TIP3    H1 4180   4.910   3.713   5.616
17904TIP3    H2 4181   4.796   3.661   5.531
17905TIP3   OH2 4182   5.491   3.650   5.966
17905TIP3    H1 4183   5.458   3.562   5.947
17905TIP3    H2 4184   5.462   3.703   5.892
17906TIP3   OH2 4185   4.058   2.004   7.072
17906TIP3    H1 4186   4.002   1.949   7.126
17906TIP3    H2 4187   4.138   2.016   7.124
17907TIP3   OH2 4188   4.265   2.005   7.250
17907TIP3    H1 4189   4.358   1.983   7.242
17907TIP3    H2 4190   4.235   1.958   7.328
17908TIP3   OH2 4191   4.107   3.659   5.533
17908TIP3    H1 4192   4.036   3.690   5.590
17908TIP3    H2 4193   4.181   3.646   5.592
17909TIP3   OH2 4194   5.105   1.959   7.299
17909TIP3    H1 4195   5.084   1.901   7.372
17909TIP3    H2 4196   5.197   1.941   7.280
17910TIP3   OH2 4197   5.422   3.556   7.120
17910TIP3    H1 4198   5.343   3.543   7.067
17910TIP3    H2 4199   5.398   3.625   7.182
17911TIP3   OH2 4200   6.854   2.922   6.120
17911TIP3    H1 4201   6.846   3.015   6.101
17911TIP3    H2 4202   6.802   2.909   6.199
17912TIP3   OH2 4203   6.737   2.830   6.532
17912TIP3    H1 4204   6.754   2.798   6.620
17912TIP3    H2 4205   6.682   2.763   6.492
17913TIP3   OH2 4206   5.963   2.789   6.686
17913TIP3    H1 4207   5.954   2.701   6.723
17913TIP3    H2 4208   6.010   2.838   6.754
17914TIP3   OH2 4209   7.125   3.148   6.356
17914TIP3    H1 4210   7.091   3.073   6.404
17914TIP3    H2 4211   7.145   3.213   6.423
17915TIP3   OH2 4212   6.050   3.247   6.536
17915TIP3    H1 4213   6.047   3.157   6.503
17915TIP3    H2 4214   6.091   3.239   6.623
17916TIP3   OH2 4215   5.768   2.588   6.006
17916TIP3    H1 4216   5.811   2.673   6.013
17916TIP3    H2 4217   5.678   2.609   5.980
17917TIP3   OH2 4218   5.778   2.809   6.282
17917TIP3    H1 4219   5.815   2.725   6.312
17917TIP3    H2 4220   5.838   2.837   6.213
17918TIP3   OH2 4221   6.850   3.607   6.407
17918TIP3    H1 4222   6.885   3.540   6.348
17918TIP3    H2 4223   6.836   3.561   6.490
17919TIP3   OH2 4224   6.598   3.079   6.567
17919TIP3    H1 4225   6.631   2.995   6.536
17919TIP3    H2 4226   6.665   3.111   6.627
17920TIP3   OH2 4227   7.463   2.217   6.657
17920TIP3    H1 4228   7.477   2.288   6.719
17920TIP3    H2 4229   7.528   2.231   6.588
17921TIP3   OH2 4230   6.873   2.510   6.558
17921TIP3    H1 4231   6.882   2.415   6.572
17921TIP3    H2 4232   6.866   2.520   6.463
17922TIP3   OH2 4233   6.246   2.309   6.294
17922TIP3    H1 4234   6.247   2.394   6.251
17922TIP3    H2 4235   6.184   2.257   6.242
17923TIP3   OH2 4236   7.028   2.341   6.156
17923TIP3    H1 4237   7.064   2.301   6.235
17923TIP3    H2 4238   7.105   2.376   6.110
17924TIP3   OH2 4239   5.880   2.569   6.383
17924TIP3    H1 4240   5.943   2.532   6.445
17924TIP3    H2 4241   5.905   2.533   6.298
17925TIP3   OH2 4242   6.360   2.729   6.313
17925TIP3    H1 4243   6.440   2.690   6.346
17925TIP3    H2 4244   6.319   2.661   6.260
17926TIP3   OH2 4245   7.510   2.398   6.859
17926TIP3    H1 4246   7.430   2.449   6.847
17926TIP3    H2 4247   7.521   2.392   6.954
17927TIP3   OH2 4248   6.098   2.226   6.720
17927TIP3    H1 4249   6.067   2.288   6.654
17927TIP3    H2 4250   6.032   2.230   6.789
17928TIP3   OH2 4251   6.843   3.184   6.035
17928TIP3    H1 4252   6.827   3.179   5.941
17928TIP3    H2 4253   6.795   3.261   6.065
17929TIP3   OH2 4254   6.348   3.015   6.689
17929TIP3    H1 4255   6.289   3.083   6.722
17929TIP3    H2 4256   6.421   3.063   6.651
17930TIP3   OH2 4257   7.113   2.262   6.407
17930TIP3    H1 4258   7.034   2.255   6.460
17930TIP3    H2 4259   7.164   2.331   6.449
17931TIP3   OH2 4260   6.078   2.401   6.502
17931TIP3    H1 4261   6.129   2.456   6.561
17931TIP3    H2 4262   6.141   2.367   6.439
17932TIP3   OH2 4263   6.172   3.215   6.795
17932TIP3    H1 4264   6.192   3.309   6.804
17932TIP3    H2 4265   6.090   3.203   6.842
17933TIP3   OH2 4266   5.783   3.165   5.942
17933TIP3    H1 4267   5.809   3.248   5.983
17933TIP3    H2 4268   5.833   3.098   5.989
17934TIP3   OH2 4269   7.157   3.351   6.552
17934TIP3    H1 4270   7.063   3.352   6.570
17934TIP3    H2 4271   7.177   3.441   6.528
17935TIP3   OH2 4272   7.209   2.136   6.729
17935TIP3    H1 4273   7.149   2.181   6.669
17935TIP3    H2 4274   7.296   2.154   6.695
17936TIP3   OH2 4275   6.455   1.921   6.474
17936TIP3    H1 4276   6.431   1.828   6.479
17936TIP3    H2 4277   6.377   1.967   6.504
17937TIP3   OH2 4278   6.974   3.480   6.186
17937TIP3    H1 4279   7.027   3.403   6.167
17937TIP3    H2 4280   7.037   3.552   6.190
17938TIP3   OH2 4281   7.109   3.253   6.100
17938TIP3    H1 4282   7.025   3.215   6.075
17938TIP3    H2 4283   7.130   3.212   6.183
17939TIP3   OH2 4284   7.280   3.133   6.924
17939TIP3    H1 4285   7.273   3.075   6.848
17939TIP3    H2 4286   7.292   3.220   6.887
17940TIP3   OH2 4287   6.705   2.780   5.846
17940TIP3    H1 4288   6.651   2.859   5.856
17940TIP3    H2 4289   6.795   2.812   5.849
17941TIP3   OH2 4290   6.726   2.686   5.573
17941TIP3    H1 4291   6.733   2.709   5.666
17941TIP3    H2 4292   6.801   2.630   5.556
17942TIP3   OH2 4293   7.420   2.788   6.741
17942TIP3    H1 4294   7.350   2.853   6.732
17942TIP3    H2 4295   7.484   2.812   6.675
17943TIP3   OH2 4296   7.084   2.859   5.986
17943TIP3    H1 4297   7.008   2.879   6.041
17943TIP3    H2 4298   7.145   2.816   6.046
17944TIP3   OH2 4299   7.038   2.644   6.903
17944TIP3    H1 4300   7.055   2.726   6.949
17944TIP3    H2 4301   6.965   2.664   6.845
17945TIP3   OH2 4302   6.252   2.952   6.174
17945TIP3    H1 4303   6.168   2.925   6.138
17945TIP3    H2 4304   6.284   2.876   6.222
17946TIP3   OH2 4305   6.421   3.260   6.446
17946TIP3    H1 4306   6.372   3.199   6.391
17946TIP3    H2 4307   6.491   3.207   6.484
17947TIP3   OH2 4308   6.256   2.784   6.567
17947TIP3    H1 4309   6.293   2.782   6.479
17947TIP3    H2 4310   6.285   2.868   6.603
17948TIP3   OH2 4311   6.895   3.347   6.626
17948TIP3    H1 4312   6.873   3.425   6.678
17948TIP3    H2 4313   6.851   3.275   6.670
17949TIP3   OH2 4314   6.346   3.230   7.036
17949TIP3    H1 4315   6.288   3.289   7.083
17949TIP3    H2 4316   6.293   3.198   6.963
17950TIP3   OH2 4317   6.980   2.747   5.760
17950TIP3    H1 4318   7.026   2.796   5.828
17950TIP3    H2 4319   7.022   2.774   5.678
17951TIP3   OH2 4320   6.053   2.863   6.947
17951TIP3    H1 4321   6.063   2.927   7.017
17951TIP3    H2 4322   5.963   2.833   6.953
17952TIP3   OH2 4323   6.731   3.438   6.066
17952TIP3    H1 4324   6.812   3.460   6.112
17952TIP3    H2 4325   6.667   3.500   6.100
17953TIP3   OH2 4326   6.162   3.412   7.129
17953TIP3    H1 4327   6.143   3.450   7.043
17953TIP3    H2 4328   6.077   3.385   7.163
17954TIP3   OH2 4329   7.295   1.948   5.755
17954TIP3    H1 4330   7.211   1.974   5.794
17954TIP3    H2 4331   7.334   2.031   5.727
17955TIP3   OH2 4332   6.164   2.732   5.833
17955TIP3    H1 4333   6.101   2.784   5.884
17955TIP3    H2 4334   6.179   2.654   5.886
17956TIP3   OH2 4335   7.425   3.398   5.574
17956TIP3    H1 4336   7.445   3.487   5.604
17956TIP3    H2 4337   7.502   3.346   5.599
17957TIP3   OH2 4338   5.734   3.042   6.874
17957TIP3    H1 4339   5.686   3.040   6.791
17957TIP3    H2 4340   5.752   2.950   6.893
17958TIP3   OH2 4341   5.772   3.312   6.544
17958TIP3    H1 4342   5.861   3.281   6.526
17958TIP3    H2 4343   5.780   3.362   6.625
17959TIP3   OH2 4344   7.545   3.415   7.154
17959TIP3    H1 4345   7.530   3.330   7.195
17959TIP3    H2 4346   7.461   3.460   7.162
17960TIP3   OH2 4347   6.594   3.348   6.986
17960TIP3    H1 4348   6.605   3.420   7.048
17960TIP3    H2 4349   6.507   3.313   7.006
17961TIP3   OH2 4350   6.694   3.719   5.933
17961TIP3    H1 4351   6.669   3.734   5.841
17961TIP3    H2 4352   6.664   3.798   5.979
17962TIP3   OH2 4353   6.045   3.595   6.174
17962TIP3    H1 4354   6.068   3.561   6.260
17962TIP3    H2 4355   5.992   3.526   6.134
17963TIP3   OH2 4356   6.957   3.623   5.643
17963TIP3    H1 4357   7.020   3.555   5.620
17963TIP3    H2 4358   6.964   3.632   5.738
17964TIP3   OH2 4359   6.960   3.652   5.917
17964TIP3    H1 4360   6.866   3.665   5.934
17964TIP3    H2 4361   6.994   3.615   5.999
17965TIP3   OH2 4362   7.245   2.525   7.168
17965TIP3    H1 4363   7.158   2.562   7.176
17965TIP3    H2 4364   7.234   2.451   7.107
17966TIP3   OH2 4365   5.931   3.233   6.932
17966TIP3    H1 4366   5.939   3.234   7.028
17966TIP3    H2 4367   5.866   3.165   6.914
17967TIP3   OH2 4368   6.210   2.026   6.562
17967TIP3    H1 4369   6.134   2.013   6.505
17967TIP3    H2 4370   6.183   2.097   6.621
17968TIP3   OH2 4371   6.684   2.007   6.906
17968TIP3    H1 4372   6.730   1.954   6.971
17968TIP3    H2 4373   6.591   1.998   6.928
17969TIP3   OH2 4374   6.974   2.382   6.974
17969TIP3    H1 4375   6.914   2.383   7.048
17969TIP3    H2 4376   6.986   2.474   6.951
17970TIP3   OH2 4377   7.092   2.786   5.505
17970TIP3    H1 4378   7.053   2.835   5.433
17970TIP3    H2 4379   7.175   2.829   5.522
17971TIP3   OH2 4380   6.728   2.230   5.653
17971TIP3    H1 4381   6.653   2.223   5.713
17971TIP3    H2 4382   6.702   2.179   5.576
17972TIP3   OH2 4383   6.211   2.548   6.692
17972TIP3    H1 4384   6.143   2.556   6.758
17972TIP3    H2 4385   6.221   2.637   6.656
17973TIP3   OH2 4386   6.228   2.543   6.152
17973TIP3    H1 4387   6.132   2.541   6.157
17973TIP3    H2 4388   6.248   2.520   6.061
17974TIP3   OH2 4389   6.755   2.574   6.029
17974TIP3    H1 4390   6.727   2.653   5.982
17974TIP3    H2 4391   6.830   2.542   5.978
17975TIP3   OH2 4392   6.674   2.640   7.215
17975TIP3    H1 4393   6.638   2.552   7.206
17975TIP3    H2 4394   6.669   2.658   7.309
17976TIP3   OH2 4395   6.864   2.525   6.285
17976TIP3    H1 4396   6.814   2.563   6.213
17976TIP3    H2 4397   6.912   2.453   6.244
17977TIP3   OH2 4398   5.983   2.547   6.852
17977TIP3    H1 4399   5.952   2.595   6.929
17977TIP3    H2 4400   5.961   2.455   6.870
17978TIP3   OH2 4401   6.226   2.308   5.493
17978TIP3    H1 4402   6.227   2.255   5.572
17978TIP3    H2 4403   6.225   2.398   5.525
17979TIP3   OH2 4404   5.682   2.266   6.231
17979TIP3    H1 4405   5.735   2.259   6.310
17979TIP3    H2 4406   5.697   2.356   6.200
17980TIP3   OH2 4407   5.714   2.359   5.767
17980TIP3    H1 4408   5.789   2.402   5.727
17980TIP3    H2 4409   5.660   2.430   5.800
17981TIP3   OH2 4410   6.801   2.671   6.764
17981TIP3    H1 4411   6.828   2.616   6.691
17981TIP3    H2 4412   6.731   2.621   6.807
17982TIP3   OH2 4413   6.521   2.261   6.243
17982TIP3    H1 4414   6.432   2.270   6.277
17982TIP3    H2 4415   6.571   2.227   6.317
17983TIP3   OH2 4416   5.965   2.458   6.147
17983TIP3    H1 4417   5.899   2.489   6.085
17983TIP3    H2 4418   5.979   2.366   6.123
17984TIP3   OH2 4419   6.288   2.469   5.889
17984TIP3    H1 4420   6.378   2.460   5.918
17984TIP3    H2 4421   6.294   2.496   5.797
17985TIP3   OH2 4422   6.886   2.234   6.561
17985TIP3    H1 4423   6.854   2.230   6.651
17985TIP3    H2 4424   6.819   2.190   6.509
17986TIP3   OH2 4425   6.244   2.554   5.622
17986TIP3    H1 4426   6.181   2.612   5.664
17986TIP3    H2 4427   6.315   2.611   5.595
17987TIP3   OH2 4428   7.250   3.803   7.244
17987TIP3    H1 4429   7.284   3.840   7.162
17987TIP3    H2 4430   7.300   3.846   7.313
17988TIP3   OH2 4431   6.019   3.028   7.166
17988TIP3    H1 4432   6.081   3.033   7.239
17988TIP3    H2 4433   5.935   3.009   7.207
17989TIP3   OH2 4434   6.584   2.606   6.436
17989TIP3    H1 4435   6.651   2.545   6.405
17989TIP3    H2 4436   6.542   2.559   6.509
17990TIP3   OH2 4437   6.063   2.194   6.108
17990TIP3    H1 4438   6.009   2.121   6.136
17990TIP3    H2 4439   6.102   2.165   6.025
17991TIP3   OH2 4440   6.472   2.469   6.650
17991TIP3    H1 4441   6.385   2.504   6.669
17991TIP3    H2 4442   6.523   2.488   6.729
17992TIP3   OH2 4443   6.556   3.019   5.834
17992TIP3    H1 4444   6.484   2.982   5.783
17992TIP3    H2 4445   6.513   3.060   5.910
17993TIP3   OH2 4446   7.239   2.988   6.689
17993TIP3    H1 4447   7.302   3.043   6.642
17993TIP3    H2 4448   7.167   2.976   6.627
17994TIP3   OH2 4449   6.980   2.338   5.642
17994TIP3    H1 4450   6.896   2.293   5.641
17994TIP3    H2 4451   6.981   2.385   5.726
17995TIP3   OH2 4452   6.645   3.068   6.982
17995TIP3    H1 4453   6.601   3.046   7.064
17995TIP3    H2 4454   6.638   3.163   6.976
17996TIP3   OH2 4455   6.974   2.496   5.869
17996TIP3    H1 4456   7.058   2.489   5.914
17996TIP3    H2 4457   6.975   2.584   5.831
17997TIP3   OH2 4458   6.049   2.983   6.466
17997TIP3    H1 4459   6.055   2.946   6.378
17997TIP3    H2 4460   6.053   2.907   6.524
17998TIP3   OH2 4461   6.763   3.186   5.768
17998TIP3    H1 4462   6.724   3.273   5.777
17998TIP3    H2 4463   6.692   3.126   5.793
17999TIP3   OH2 4464   5.791   2.779   6.981
17999TIP3    H1 4465   5.828   2.772   7.069
17999TIP3    H2 4466   5.712   2.724   6.984
18000TIP3   OH2 4467   6.426   2.785   7.199
18000TIP3    H1 4468   6.359   2.750   7.140
18000TIP3    H2 4469   6.501   2.727   7.186
18001TIP3   OH2 4470   6.881   3.352   6.984
18001TIP3    H1 4471   6.786   3.357   6.972
18001TIP3    H2 4472   6.893   3.345   7.078
18002TIP3   OH2 4473   7.417   2.566   5.795
18002TIP3    H1 4474   7.380   2.540   5.711
18002TIP3    H2 4475   7.436   2.659   5.785
18003TIP3   OH2 4476   7.485   3.101   7.112
18003TIP3    H1 4477   7.402   3.141   7.086
18003TIP3    H2 4478   7.540   3.108   7.034
18004TIP3   OH2 4479   7.269   3.407   5.900
18004TIP3    H1 4480   7.222   3.355   5.966
18004TIP3    H2 4481   7.292   3.345   5.831
18005TIP3   OH2 4482   7.035   2.919   6.501
18005TIP3    H1 4483   6.941   2.909   6.516
18005TIP3    H2 4484   7.061   2.836   6.460
18006TIP3   OH2 4485   6.295   3.366   6.118
18006TIP3    H1 4486   6.302   3.457   6.089
18006TIP3    H2 4487   6.234   3.368   6.191
18007TIP3   OH2 4488   5.831   2.803   5.598
18007TIP3    H1 4489   5.882   2.868   5.646
18007TIP3    H2 4490   5.744   2.807   5.638
18008TIP3   OH2 4491   6.393   3.133   6.019
18008TIP3    H1 4492   6.368   3.216   6.060
18008TIP3    H2 4493   6.348   3.066   6.071
18009TIP3   OH2 4494   6.494   3.507   6.765
18009TIP3    H1 4495   6.547   3.586   6.750
18009TIP3    H2 4496   6.545   3.455   6.827
18010TIP3   OH2 4497   6.284   3.633   6.038
18010TIP3    H1 4498   6.197   3.635   6.078
18010TIP3    H2 4499   6.334   3.699   6.086
18011TIP3   OH2 4500   6.798   3.114   6.757
18011TIP3    H1 4501   6.740   3.089   6.829
18011TIP3    H2 4502   6.886   3.100   6.792
18012TIP3   OH2 4503   7.029   3.206   5.663
18012TIP3    H1 4504   7.089   3.150   5.713
18012TIP3    H2 4505   6.946   3.202   5.710
18013TIP3   OH2 4506   7.085   3.540   6.949
18013TIP3    H1 4507   7.005   3.487   6.948
18013TIP3    H2 4508   7.072   3.603   6.877
18014TIP3   OH2 4509   7.490   3.654   5.656
18014TIP3    H1 4510   7.557   3.722   5.660
18014TIP3    H2 4511   7.408   3.700   5.675
18015TIP3   OH2 4512   5.917   2.273   6.927
18015TIP3    H1 4513   5.846   2.317   6.974
18015TIP3    H2 4514   5.930   2.190   6.974
18016TIP3   OH2 4515   7.194   3.046   5.815
18016TIP3    H1 4516   7.149   2.990   5.879
18016TIP3    H2 4517   7.285   3.046   5.844
18017TIP3   OH2 4518   5.863   3.455   6.767
18017TIP3    H1 4519   5.885   3.385   6.827
18017TIP3    H2 4520   5.865   3.535   6.820
18018TIP3   OH2 4521   6.465   3.269   5.511
18018TIP3    H1 4522   6.551   3.228   5.518
18018TIP3    H2 4523   6.432   3.272   5.601
18019TIP3   OH2 4524   6.336   3.283   5.759
18019TIP3    H1 4525   6.344   3.235   5.842
18019TIP3    H2 4526   6.352   3.374   5.782
18020TIP3   OH2 4527   5.958   2.988   5.753
18020TIP3    H1 4528   5.952   2.952   5.842
18020TIP3    H2 4529   6.009   3.068   5.763
18021TIP3   OH2 4530   6.790   2.244   6.817
18021TIP3    H1 4531   6.859   2.270   6.878
18021TIP3    H2 4532   6.756   2.162   6.853
18022TIP3   OH2 4533   6.868   2.201   5.979
18022TIP3    H1 4534   6.850   2.270   5.915
18022TIP3    H2 4535   6.917   2.245   6.048
18023TIP3   OH2 4536   6.648   3.430   5.795
18023TIP3    H1 4537   6.563   3.474   5.793
18023TIP3    H2 4538   6.683   3.450   5.882
18024TIP3   OH2 4539   6.531   2.414   6.011
18024TIP3    H1 4540   6.604   2.475   6.021
18024TIP3    H2 4541   6.523   2.372   6.096
18025TIP3   OH2 4542   6.637   2.474   6.875
18025TIP3    H1 4543   6.579   2.452   6.948
18025TIP3    H2 4544   6.683   2.392   6.856
18026TIP3   OH2 4545   6.630   2.076   6.063
18026TIP3    H1 4546   6.599   2.142   6.125
18026TIP3    H2 4547   6.720   2.103   6.043
18027TIP3   OH2 4548   6.396   3.551   5.800
18027TIP3    H1 4549   6.389   3.624   5.739
18027TIP3    H2 4550   6.358   3.583   5.881
18028TIP3   OH2 4551   6.244   2.212   5.759
18028TIP3    H1 4552   6.227   2.292   5.808
18028TIP3    H2 4553   6.335   2.191   5.779
18029TIP3   OH2 4554   7.222   2.277   6.980
18029TIP3    H1 4555   7.132   2.307   6.979
18029TIP3    H2 4556   7.231   2.227   6.899
18030TIP3   OH2 4557   7.098   2.664   6.385
18030TIP3    H1 4558   7.014   2.623   6.366
18030TIP3    H2 4559   7.141   2.603   6.445
18031TIP3   OH2 4560   6.083   3.243   5.607
18031TIP3    H1 4561   6.147   3.281   5.667
18031TIP3    H2 4562   6.128   3.168   5.569
18032TIP3   OH2 4563   5.875   2.529   5.614
18032TIP3    H1 4564   5.879   2.623   5.629
18032TIP3    H2 4565   5.821   2.519   5.535
18033TIP3   OH2 4566   7.234   3.621   6.525
18033TIP3    H1 4567   7.223   3.695   6.466
18033TIP3    H2 4568   7.326   3.622   6.549
18034TIP3   OH2 4569   5.968   1.995   6.432
18034TIP3    H1 4570   5.955   1.986   6.337
18034TIP3    H2 4571   5.936   1.913   6.468
18035TIP3   OH2 4572   5.855   3.420   6.056
18035TIP3    H1 4573   5.796   3.447   6.127
18035TIP3    H2 4574   5.835   3.481   5.985
18036TIP3   OH2 4575   5.791   3.648   7.073
18036TIP3    H1 4576   5.809   3.701   7.151
18036TIP3    H2 4577   5.752   3.568   7.108
18037TIP3   OH2 4578   6.289   3.609   7.285
18037TIP3    H1 4579   6.243   3.608   7.369
18037TIP3    H2 4580   6.255   3.533   7.238
18038TIP3   OH2 4581   6.637   3.499   5.485
18038TIP3    H1 4582   6.560   3.442   5.481
18038TIP3    H2 4583   6.693   3.459   5.551
18039TIP3   OH2 4584   6.920   3.321   7.251
18039TIP3    H1 4585   6.851   3.362   7.303
18039TIP3    H2 4586   6.985   3.291   7.315
18040TIP3   OH2 4587   7.132   3.426   5.534
18040TIP3    H1 4588   7.099   3.349   5.581
18040TIP3    H2 4589   7.227   3.420   5.543
18041TIP3   OH2 4590   5.757   2.968   7.280
18041TIP3    H1 4591   5.723   2.948   7.368
18041TIP3    H2 4592   5.699   3.036   7.247
18042TIP3   OH2 4593   6.261   3.068   5.498
18042TIP3    H1 4594   6.290   3.011   5.569
18042TIP3    H2 4595   6.333   3.131   5.487
18043TIP3   OH2 4596   6.485   3.055   7.206
18043TIP3    H1 4597   6.416   3.103   7.159
18043TIP3    H2 4598   6.447   2.969   7.221
18044TIP3   OH2 4599   6.729   3.162   5.498
18044TIP3    H1 4600   6.758   3.171   5.589
18044TIP3    H2 4601   6.728   3.067   5.483
18045TIP3   OH2 4602   7.008   3.110   6.943
18045TIP3    H1 4603   7.102   3.130   6.944
18045TIP3    H2 4604   6.965   3.193   6.962
18046TIP3   OH2 4605   5.907   2.736   7.224
18046TIP3    H1 4606   5.976   2.727   7.289
18046TIP3    H2 4607   5.845   2.797   7.264
18047TIP3   OH2 4608   6.346   2.899   5.701
18047TIP3    H1 4609   6.279   2.856   5.754
18047TIP3    H2 4610   6.383   2.829   5.647
18048TIP3   OH2 4611   6.274   2.690   6.977
18048TIP3    H1 4612   6.196   2.745   6.968
18048TIP3    H2 4613   6.340   2.733   6.923
18049TIP3   OH2 4614   6.454   2.707   5.538
18049TIP3    H1 4615   6.449   2.690   5.443
18049TIP3    H2 4616   6.548   2.699   5.558
18050TIP3   OH2 4617   6.828   2.881   7.350
18050TIP3    H1 4618   6.913   2.872   7.394
18050TIP3    H2 4619   6.768   2.830   7.405
18051TIP3   OH2 4620   7.324   2.935   5.504
18051TIP3    H1 4621   7.340   2.920   5.410
18051TIP3    H2 4622   7.333   3.030   5.514
18052TIP3   OH2 4623   6.370   2.436   7.021
18052TIP3    H1 4624   6.345   2.371   6.955
18052TIP3    H2 4625   6.328   2.517   6.993
18053TIP3   OH2 4626   6.355   2.249   6.810
18053TIP3    H1 4627   6.399   2.296   6.740
18053TIP3    H2 4628   6.264   2.242   6.781
18054TIP3   OH2 4629   6.475   2.820   6.840
18054TIP3    H1 4630   6.547   2.874   6.874
18054TIP3    H2 4631   6.426   2.879   6.783
18055TIP3   OH2 4632   6.997   2.627   7.264
18055TIP3    H1 4633   6.960   2.551   7.309
18055TIP3    H2 4634   7.032   2.682   7.334
18056TIP3   OH2 4635   7.049   2.868   7.062
18056TIP3    H1 4636   7.034   2.953   7.022
18056TIP3    H2 4637   7.139   2.871   7.094
18057TIP3   OH2 4638   6.198   2.481   7.275
18057TIP3    H1 4639   6.103   2.465   7.277
18057TIP3    H2 4640   6.219   2.490   7.182
18058TIP3   OH2 4641   6.405   1.987   6.909
18058TIP3    H1 4642   6.387   2.077   6.883
18058TIP3    H2 4643   6.332   1.936   6.872
18059TIP3   OH2 4644   6.537   2.394   7.232
18059TIP3    H1 4645   6.489   2.359   7.307
18059TIP3    H2 4646   6.471   2.403   7.164
18060TIP3   OH2 4647   6.805   2.357   7.182
18060TIP3    H1 4648   6.711   2.357   7.199
18060TIP3    H2 4649   6.842   2.300   7.249
18061TIP3   OH2 4650   6.909   2.201   7.383
18061TIP3    H1 4651   6.926   2.113   7.348
18061TIP3    H2 4652   6.828   2.191   7.434
18062TIP3   OH2 4653   5.972   2.281   7.258
18062TIP3    H1 4654   5.961   2.204   7.203
18062TIP3    H2 4655   6.002   2.247   7.342
18063TIP3   OH2 4656   6.412   1.900   7.173
18063TIP3    H1 4657   6.472   1.825   7.172
18063TIP3    H2 4658   6.405   1.927   7.082
18064TIP3   OH2 4659   6.497   2.074   7.370
18064TIP3    H1 4660   6.467   2.022   7.295
18064TIP3    H2 4661   6.430   2.142   7.380
18065TIP3   OH2 4662   6.411   3.756   5.611
18065TIP3    H1 4663   6.504   3.773   5.628
18065TIP3    H2 4664   6.403   3.763   5.516
18066TIP3   OH2 4665   5.788   3.244   5.647
18066TIP3    H1 4666   5.881   3.246   5.623
18066TIP3    H2 4667   5.786   3.196   5.729
18067TIP3   OH2 4668   5.681   3.724   6.147
18067TIP3    H1 4669   5.612   3.696   6.087
18067TIP3    H2 4670   5.690   3.651   6.208
18068TIP3   OH2 4671   5.740   3.508   6.313
18068TIP3    H1 4672   5.704   3.428   6.353
18068TIP3    H2 4673   5.794   3.546   6.383
18069TIP3   OH2 4674   7.487   3.653   6.625
18069TIP3    H1 4675   7.483   3.613   6.711
18069TIP3    H2 4676   7.526   3.739   6.639
18070TIP3   OH2 4677   7.459   3.560   6.881
18070TIP3    H1 4678   7.403   3.487   6.851
18070TIP3    H2 4679   7.442   3.566   6.975
18071TIP3   OH2 4680   7.278   3.176   7.373
18071TIP3    H1 4681   7.196   3.211   7.409
18071TIP3    H2 4682   7.345   3.239   7.401
18072TIP3   OH2 4683   7.454   3.008   5.908
18072TIP3    H1 4684   7.524   3.072   5.914
18072TIP3    H2 4685   7.468   2.950   5.983
18073TIP3   OH2 4686   7.498   2.812   6.101
18073TIP3    H1 4687   7.413   2.783   6.134
18073TIP3    H2 4688   7.551   2.828   6.179
18074TIP3   OH2 4689   7.483   3.105   6.619
18074TIP3    H1 4690   7.538   3.035   6.584
18074TIP3    H2 4691   7.515   3.184   6.577
18075TIP3   OH2 4692   7.267   3.378   6.807
18075TIP3    H1 4693   7.198   3.428   6.850
18075TIP3    H2 4694   7.235   3.365   6.718
18076TIP3   OH2 4695   7.468   2.822   5.710
18076TIP3    H1 4696   7.411   2.857   5.641
18076TIP3    H2 4697   7.462   2.887   5.780
18077TIP3   OH2 4698   7.335   2.518   5.539
18077TIP3    H1 4699   7.320   2.574   5.462
18077TIP3    H2 4700   7.291   2.436   5.517
18078TIP3   OH2 4701   7.244   2.701   6.152
18078TIP3    H1 4702   7.241   2.611   6.120
18078TIP3    H2 4703   7.201   2.697   6.237
18079TIP3   OH2 4704   5.738   2.878   6.550
18079TIP3    H1 4705   5.752   2.864   6.456
18079TIP3    H2 4706   5.821   2.854   6.590
18080TIP3   OH2 4707   7.327   2.868   7.126
18080TIP3    H1 4708   7.392   2.802   7.102
18080TIP3    H2 4709   7.371   2.952   7.110
18081TIP3   OH2 4710   7.498   2.624   7.121
18081TIP3    H1 4711   7.406   2.608   7.142
18081TIP3    H2 4712   7.538   2.537   7.120
18082TIP3   OH2 4713   7.215   2.274   5.504
18082TIP3    H1 4714   7.274   2.227   5.563
18082TIP3    H2 4715   7.133   2.280   5.552
18083TIP3   OH2 4716   7.231   2.454   5.983
18083TIP3    H1 4717   7.260   2.363   5.984
18083TIP3    H2 4718   7.294   2.498   5.926
18084TIP3   OH2 4719   7.245   2.473   6.535
18084TIP3    H1 4720   7.335   2.491   6.508
18084TIP3    H2 4721   7.245   2.489   6.630
18085TIP3   OH2 4722   7.286   2.554   6.802
18085TIP3    H1 4723   7.202   2.580   6.841
18085TIP3    H2 4724   7.330   2.637   6.784
18086TIP3   OH2 4725   5.749   2.388   7.119
18086TIP3    H1 4726   5.820   2.380   7.182
18086TIP3    H2 4727   5.690   2.315   7.138
18087TIP3   OH2 4728   7.475   1.926   7.398
18087TIP3    H1 4729   7.483   1.870   7.475
18087TIP3    H2 4730   7.548   1.900   7.342
18088TIP3   OH2 4731   7.286   2.183   5.994
18088TIP3    H1 4732   7.315   2.143   6.076
18088TIP3    H2 4733   7.215   2.127   5.963
18089TIP3   OH2 4734   5.848   2.248   6.447
18089TIP3    H1 4735   5.884   2.159   6.458
18089TIP3    H2 4736   5.921   2.306   6.470
18090TIP3   OH2 4737   5.645   2.521   6.538
18090TIP3    H1 4738   5.722   2.541   6.484
18090TIP3    H2 4739   5.638   2.596   6.598
18091TIP3   OH2 4740   7.395   2.168   7.159
18091TIP3    H1 4741   7.331   2.210   7.101
18091TIP3    H2 4742   7.410   2.082   7.119
18092TIP3   OH2 4743   7.437   2.169   5.628
18092TIP3    H1 4744   7.499   2.096   5.624
18092TIP3    H2 4745   7.486   2.240   5.670
18093TIP3   OH2 4746   5.687   2.113   5.896
18093TIP3    H1 4747   5.605   2.125   5.944
18093TIP3    H2 4748   5.713   2.202   5.871
18094TIP3   OH2 4749   7.143   3.690   6.156
18094TIP3    H1 4750   7.219   3.687   6.099
18094TIP3    H2 4751   7.171   3.741   6.232
18095TIP3   OH2 4752   5.663   1.986   6.762
18095TIP3    H1 4753   5.606   1.986   6.839
18095TIP3    H2 4754   5.649   2.072   6.721
18096TIP3   OH2 4755   5.908   3.333   7.210
18096TIP3    H1 4756   5.824   3.368   7.179
18096TIP3    H2 4757   5.889   3.299   7.297
18097TIP3   OH2 4758   6.228   3.479   6.835
18097TIP3    H1 4759   6.196   3.568   6.819
18097TIP3    H2 4760   6.322   3.484   6.818
18098TIP3   OH2 4761   6.654   3.566   7.142
18098TIP3    H1 4762   6.586   3.632   7.157
18098TIP3    H2 4763   6.730   3.616   7.114
18099TIP3   OH2 4764   6.858   3.738   7.073
18099TIP3    H1 4765   6.937   3.703   7.033
18099TIP3    H2 4766   6.887   3.776   7.156
18100TIP3   OH2 4767   7.352   1.927   6.985
18100TIP3    H1 4768   7.273   1.923   6.931
18100TIP3    H2 4769   7.395   1.842   6.972
18101TIP3   OH2 4770   5.898   3.736   6.841
18101TIP3    H1 4771   5.852   3.819   6.829
18101TIP3    H2 4772   5.872   3.707   6.928
18102TIP3   OH2 4773   6.172   3.743   6.781
18102TIP3    H1 4774   6.080   3.753   6.801
18102TIP3    H2 4775   6.188   3.805   6.710
18103TIP3   OH2 4776   6.628   3.739   6.687
18103TIP3    H1 4777   6.579   3.778   6.616
18103TIP3    H2 4778   6.637   3.809   6.752
18104TIP3   OH2 4779   6.857   3.595   6.731
18104TIP3    H1 4780   6.778   3.648   6.718
18104TIP3    H2 4781   6.928   3.658   6.730
18105TIP3   OH2 4782   7.100   3.727   6.743
18105TIP3    H1 4783   7.128   3.819   6.741
18105TIP3    H2 4784   7.144   3.687   6.668
18106TIP3   OH2 4785   5.896   3.601   6.532
18106TIP3    H1 4786   5.889   3.558   6.617
18106TIP3    H2 4787   5.978   3.570   6.495
18107TIP3   OH2 4788   6.121   3.486   6.416
18107TIP3    H1 4789   6.101   3.401   6.453
18107TIP3    H2 4790   6.207   3.509   6.450
18108TIP3   OH2 4791   6.382   3.527   6.509
18108TIP3    H1 4792   6.403   3.440   6.475
18108TIP3    H2 4793   6.411   3.525   6.600
18109TIP3   OH2 4794   6.685   2.103   6.408
18109TIP3    H1 4795   6.623   2.034   6.434
18109TIP3    H2 4796   6.754   2.056   6.361
18110TIP3   OH2 4797   7.202   1.975   6.379
18110TIP3    H1 4798   7.278   2.015   6.337
18110TIP3    H2 4799   7.143   2.048   6.397
18111TIP3   OH2 4800   7.402   2.064   6.212
18111TIP3    H1 4801   7.456   1.987   6.196
18111TIP3    H2 4802   7.464   2.134   6.231
18112TIP3   OH2 4803   5.931   1.956   6.160
18112TIP3    H1 4804   5.839   1.937   6.140
18112TIP3    H2 4805   5.974   1.871   6.152
18113TIP3   OH2 4806   5.777   1.997   5.664
18113TIP3    H1 4807   5.870   2.021   5.663
18113TIP3    H2 4808   5.746   2.024   5.751
18114TIP3   OH2 4809   6.424   1.922   6.189
18114TIP3    H1 4810   6.495   1.976   6.153
18114TIP3    H2 4811   6.436   1.928   6.284
18115TIP3   OH2 4812   6.893   1.967   6.288
18115TIP3    H1 4813   6.966   1.947   6.230
18115TIP3    H2 4814   6.880   1.887   6.339
18116TIP3   OH2 4815   7.073   2.025   5.903
18116TIP3    H1 4816   6.998   2.081   5.922
18116TIP3    H2 4817   7.040   1.936   5.914
18117TIP3   OH2 4818   5.797   3.614   5.864
18117TIP3    H1 4819   5.730   3.601   5.797
18117TIP3    H2 4820   5.761   3.684   5.919
18118TIP3   OH2 4821   6.040   2.057   5.644
18118TIP3    H1 4822   6.092   1.989   5.602
18118TIP3    H2 4823   6.104   2.112   5.690
18119TIP3   OH2 4824   6.516   2.202   5.837
18119TIP3    H1 4825   6.541   2.134   5.898
18119TIP3    H2 4826   6.520   2.283   5.888
18120TIP3   OH2 4827   6.692   3.733   5.638
18120TIP3    H1 4828   6.786   3.717   5.648
18120TIP3    H2 4829   6.661   3.662   5.581
18121TIP3   OH2 4830   7.351   3.662   5.970
18121TIP3    H1 4831   7.327   3.573   5.943
18121TIP3    H2 4832   7.337   3.715   5.891
18122TIP3   OH2 4833   5.930   2.043   7.096
18122TIP3    H1 4834   5.860   1.995   7.140
18122TIP3    H2 4835   6.011   2.007   7.132
18123TIP3   OH2 4836   6.135   1.928   7.230
18123TIP3    H1 4837   6.230   1.913   7.226
18123TIP3    H2 4838   6.110   1.900   7.318
18124TIP3   OH2 4839   6.009   3.743   5.600
18124TIP3    H1 4840   5.944   3.702   5.657
18124TIP3    H2 4841   6.082   3.681   5.599
18125TIP3   OH2 4842   6.955   1.937   7.318
18125TIP3    H1 4843   6.916   1.903   7.398
18125TIP3    H2 4844   7.046   1.907   7.320
18126TIP3   OH2 4845   7.309   3.558   7.121
18126TIP3    H1 4846   7.226   3.542   7.076
18126TIP3    H2 4847   7.290   3.628   7.183
18127TIP3   OH2 4848   7.860   2.776   6.693
18127TIP3    H1 4849   7.866   2.687   6.727
18127TIP3    H2 4850   7.882   2.833   6.767
18128TIP3   OH2 4851   7.876   3.204   6.509
18128TIP3    H1 4852   7.881   3.117   6.471
18128TIP3    H2 4853   7.928   3.198   6.590
18129TIP3   OH2 4854   7.625   2.588   5.989
18129TIP3    H1 4855   7.601   2.668   6.036
18129TIP3    H2 4856   7.549   2.568   5.934
18130TIP3   OH2 4857   7.682   2.824   6.308
18130TIP3    H1 4858   7.710   2.733   6.320
18130TIP3    H2 4859   7.760   2.876   6.328
18131TIP3   OH2 4860   8.059   2.296   6.354
18131TIP3    H1 4861   8.087   2.367   6.296
18131TIP3    H2 4862   8.140   2.261   6.390
18132TIP3   OH2 4863   7.753   2.563   6.356
18132TIP3    H1 4864   7.810   2.526   6.424
18132TIP3    H2 4865   7.789   2.530   6.274
18133TIP3   OH2 4866   7.998   2.236   6.730
18133TIP3    H1 4867   7.990   2.315   6.676
18133TIP3    H2 4868   7.923   2.241   6.789
18134TIP3   OH2 4869   7.923   2.434   6.539
18134TIP3    H1 4870   7.986   2.505   6.553
18134TIP3    H2 4871   7.965   2.379   6.473
18135TIP3   OH2 4872   8.024   3.200   6.745
18135TIP3    H1 4873   8.063   3.287   6.755
18135TIP3    H2 4874   7.957   3.195   6.813
18136TIP3   OH2 4875   7.670   3.181   5.894
18136TIP3    H1 4876   7.661   3.228   5.812
18136TIP3    H2 4877   7.693   3.248   5.959
18137TIP3   OH2 4878   8.067   2.878   6.211
18137TIP3    H1 4879   8.043   2.864   6.120
18137TIP3    H2 4880   0.015   2.851   6.216
18138TIP3   OH2 4881   7.879   2.890   6.944
18138TIP3    H1 4882   7.902   2.948   7.017
18138TIP3    H2 4883   7.788   2.866   6.960
18139TIP3   OH2 4884   7.959   3.539   7.041
18139TIP3    H1 4885   8.002   3.483   6.977
18139TIP3    H2 4886   7.919   3.479   7.103
18140TIP3   OH2 4887   7.983   2.795   5.949
18140TIP3    H1 4888   7.942   2.863   5.894
18140TIP3    H2 4889   7.909   2.741   5.979
18141TIP3   OH2 4890   7.613   3.083   6.870
18141TIP3    H1 4891   7.563   3.097   6.789
18141TIP3    H2 4892   7.618   2.988   6.878
18142TIP3   OH2 4893   7.626   3.324   6.520
18142TIP3    H1 4894   7.711   3.282   6.507
18142TIP3    H2 4895   7.639   3.382   6.595
18143TIP3   OH2 4896   7.923   3.586   6.182
18143TIP3    H1 4897   7.951   3.547   6.264
18143TIP3    H2 4898   7.877   3.516   6.136
18144TIP3   OH2 4899   7.832   3.235   6.937
18144TIP3    H1 4900   7.861   3.199   7.021
18144TIP3    H2 4901   7.753   3.186   6.916
18145TIP3   OH2 4902   8.050   2.027   6.553
18145TIP3    H1 4903   7.971   2.030   6.500
18145TIP3    H2 4904   8.046   2.106   6.607
18146TIP3   OH2 4905   0.013   2.591   6.820
18146TIP3    H1 4906   8.064   2.575   6.835
18146TIP3    H2 4907   0.022   2.592   6.725
18147TIP3   OH2 4908   8.124   2.472   6.154
18147TIP3    H1 4909   8.033   2.483   6.126
18147TIP3    H2 4910   0.011   2.397   6.103
18148TIP3   OH2 4911   7.887   2.542   6.867
18148TIP3    H1 4912   7.890   2.568   6.959
18148TIP3    H2 4913   7.849   2.455   6.868
18149TIP3   OH2 4914   7.602   2.244   6.243
18149TIP3    H1 4915   7.622   2.265   6.334
18149TIP3    H2 4916   7.688   2.233   6.202
18150TIP3   OH2 4917   7.604   2.363   5.751
18150TIP3    H1 4918   7.692   2.401   5.746
18150TIP3    H2 4919   7.547   2.437   5.772
18151TIP3   OH2 4920   7.848   2.471   6.107
18151TIP3    H1 4921   7.769   2.496   6.060
18151TIP3    H2 4922   7.854   2.376   6.095
18152TIP3   OH2 4923   8.076   2.542   5.629
18152TIP3    H1 4924   7.981   2.538   5.619
18152TIP3    H2 4925   8.091   2.622   5.681
18153TIP3   OH2 4926   7.909   3.066   7.163
18153TIP3    H1 4927   7.982   3.073   7.225
18153TIP3    H2 4928   7.832   3.053   7.218
18154TIP3   OH2 4929   7.910   2.203   6.123
18154TIP3    H1 4930   7.883   2.111   6.123
18154TIP3    H2 4931   7.974   2.209   6.194
18155TIP3   OH2 4932   7.908   2.940   6.424
18155TIP3    H1 4933   7.971   2.924   6.354
18155TIP3    H2 4934   7.943   2.892   6.499
18156TIP3   OH2 4935   7.605   2.809   6.944
18156TIP3    H1 4936   7.582   2.740   7.006
18156TIP3    H2 4937   7.547   2.794   6.869
18157TIP3   OH2 4938   7.719   2.809   5.600
18157TIP3    H1 4939   7.770   2.868   5.655
18157TIP3    H2 4940   7.631   2.812   5.636
18158TIP3   OH2 4941   7.764   2.281   6.872
18158TIP3    H1 4942   7.681   2.325   6.855
18158TIP3    H2 4943   7.740   2.193   6.902
18159TIP3   OH2 4944   7.731   3.457   6.747
18159TIP3    H1 4945   7.787   3.398   6.797
18159TIP3    H2 4946   7.672   3.495   6.811
18160TIP3   OH2 4947   7.840   2.983   5.788
18160TIP3    H1 4948   7.778   3.032   5.842
18160TIP3    H2 4949   7.890   3.050   5.741
18161TIP3   OH2 4950   8.069   2.259   5.643
18161TIP3    H1 4951   8.076   2.354   5.649
18161TIP3    H2 4952   8.110   2.226   5.723
18162TIP3   OH2 4953   7.955   3.200   5.650
18162TIP3    H1 4954   8.003   3.263   5.703
18162TIP3    H2 4955   8.022   3.158   5.596
18163TIP3   OH2 4956   7.800   2.546   5.605
18163TIP3    H1 4957   7.776   2.638   5.609
18163TIP3    H2 4958   7.733   2.505   5.551
18164TIP3   OH2 4959   7.799   2.008   6.441
18164TIP3    H1 4960   7.800   1.994   6.346
18164TIP3    H2 4961   7.781   1.922   6.478
18165TIP3   OH2 4962   7.725   3.404   6.061
18165TIP3    H1 4963   7.682   3.433   6.141
18165TIP3    H2 4964   7.703   3.470   5.996
18166TIP3   OH2 4965   7.679   3.663   7.101
18166TIP3    H1 4966   7.636   3.722   7.163
18166TIP3    H2 4967   7.641   3.577   7.119
18167TIP3   OH2 4968   7.674   3.001   7.293
18167TIP3    H1 4969   7.668   2.906   7.280
18167TIP3    H2 4970   7.599   3.036   7.245
18168TIP3   OH2 4971   0.021   3.085   5.508
18168TIP3    H1 4972   0.059   2.998   5.516
18168TIP3    H2 4973   0.037   3.111   5.417
18169TIP3   OH2 4974   7.725   2.699   7.264
18169TIP3    H1 4975   7.802   2.660   7.223
18169TIP3    H2 4976   7.652   2.674   7.208
18170TIP3   OH2 4977   7.937   2.520   7.178
18170TIP3    H1 4978   7.895   2.436   7.195
18170TIP3    H2 4979   8.031   2.499   7.172
18171TIP3   OH2 4980   7.824   2.268   7.219
18171TIP3    H1 4981   7.831   2.187   7.167
18171TIP3    H2 4982   7.846   2.241   7.308
18172TIP3   OH2 4983   7.674   3.256   5.617
18172TIP3    H1 4984   7.768   3.249   5.629
18172TIP3    H2 4985   7.658   3.218   5.531
18173TIP3   OH2 4986   7.564   3.729   6.134
18173TIP3    H1 4987   7.493   3.700   6.077
18173TIP3    H2 4988   7.578   3.655   6.194
18174TIP3   OH2 4989   7.628   3.517   6.305
18174TIP3    H1 4990   7.594   3.445   6.359
18174TIP3    H2 4991   7.679   3.570   6.366
18175TIP3   OH2 4992   7.623   2.864   6.575
18175TIP3    H1 4993   7.634   2.855   6.481
18175TIP3    H2 4994   7.709   2.842   6.612
18176TIP3   OH2 4995   7.583   2.367   7.129
18176TIP3    H1 4996   7.669   2.338   7.158
18176TIP3    H2 4997   7.524   2.296   7.152
18177TIP3   OH2 4998   7.695   2.257   6.504
18177TIP3    H1 4999   7.736   2.171   6.494
18177TIP3    H2 5000   7.765   2.314   6.534
18178TIP3   OH2 5001   7.509   2.548   6.501
18178TIP3    H1 5002   7.582   2.543   6.439
18178TIP3    H2 5003   7.544   2.595   6.577
18179TIP3   OH2 5004   7.564   2.134   5.908
18179TIP3    H1 5005   7.481   2.147   5.954
18179TIP3    H2 5006   7.587   2.222   5.877
18180TIP3   OH2 5007   7.578   2.042   6.844
18180TIP3    H1 5008   7.504   2.003   6.890
18180TIP3    H2 5009   7.540   2.088   6.769
18181TIP3   OH2 5010   7.812   3.408   7.235
18181TIP3    H1 5011   7.725   3.412   7.195
18181TIP3    H2 5012   7.802   3.348   7.308
18182TIP3   OH2 5013   8.100   3.459   6.807
18182TIP3    H1 5014   8.069   3.547   6.788
18182TIP3    H2 5015   0.051   3.467   6.807
18183TIP3   OH2 5016   7.774   3.765   6.866
18183TIP3    H1 5017   7.713   3.818   6.815
18183TIP3    H2 5018   7.718   3.714   6.924
18184TIP3   OH2 5019   8.026   3.722   6.758
18184TIP3    H1 5020   7.933   3.732   6.779
18184TIP3    H2 5021   8.037   3.768   6.675
18185TIP3   OH2 5022   7.791   3.628   6.510
18185TIP3    H1 5023   7.761   3.590   6.593
18185TIP3    H2 5024   7.867   3.576   6.486
18186TIP3   OH2 5025   7.983   3.447   6.426
18186TIP3    H1 5026   7.938   3.364   6.442
18186TIP3    H2 5027   8.069   3.436   6.467
18187TIP3   OH2 5028   7.804   1.950   6.169
18187TIP3    H1 5029   7.713   1.927   6.152
18187TIP3    H2 5030   7.850   1.866   6.167
18188TIP3   OH2 5031   7.641   1.986   5.694
18188TIP3    H1 5032   7.725   2.021   5.665
18188TIP3    H2 5033   7.624   2.030   5.777
18189TIP3   OH2 5034   7.665   3.591   5.872
18189TIP3    H1 5035   7.598   3.594   5.803
18189TIP3    H2 5036   7.669   3.681   5.906
18190TIP3   OH2 5037   7.867   2.077   5.574
18190TIP3    H1 5038   7.916   1.998   5.548
18190TIP3    H2 5039   7.934   2.140   5.597
18191TIP3   OH2 5040   7.838   1.998   7.128
18191TIP3    H1 5041   7.769   1.943   7.165
18191TIP3    H2 5042   7.916   1.978   7.179
18192TIP3   OH2 5043   8.018   1.917   7.339
18192TIP3    H1 5044   8.095   1.875   7.302
18192TIP3    H2 5045   7.971   1.847   7.384
18193TIP3   OH2 5046   7.884   3.637   5.522
18193TIP3    H1 5047   7.812   3.669   5.578
18193TIP3    H2 5048   7.958   3.629   5.582
18194TIP3   OH2 5049   1.188   4.803   6.127
18194TIP3    H1 5050   1.162   4.895   6.130
18194TIP3    H2 5051   1.125   4.762   6.069
18195TIP3   OH2 5052   1.064   4.727   6.533
18195TIP3    H1 5053   1.091   4.686   6.615
18195TIP3    H2 5054   1.018   4.658   6.485
18196TIP3   OH2 5055   0.327   4.675   6.730
18196TIP3    H1 5056   0.322   4.588   6.770
18196TIP3    H2 5057   0.398   4.669   6.666
18197TIP3   OH2 5058   1.448   5.040   6.358
18197TIP3    H1 5059   1.416   4.963   6.407
18197TIP3    H2 5060   1.478   5.100   6.426
18198TIP3   OH2 5061   0.457   5.119   6.442
18198TIP3    H1 5062   0.422   5.032   6.426
18198TIP3    H2 5063   0.550   5.105   6.459
18199TIP3   OH2 5064   0.078   4.550   5.996
18199TIP3    H1 5065   0.126   4.597   6.065
18199TIP3    H2 5066   0.003   4.606   5.976
18200TIP3   OH2 5067   0.187   4.682   6.222
18200TIP3    H1 5068   0.196   4.604   6.277
18200TIP3    H2 5069   0.246   4.747   6.261
18201TIP3   OH2 5070   1.198   5.481   6.412
18201TIP3    H1 5071   1.226   5.437   6.332
18201TIP3    H2 5072   1.191   5.411   6.477
18202TIP3   OH2 5073   0.936   4.973   6.579
18202TIP3    H1 5074   0.972   4.891   6.545
18202TIP3    H2 5075   1.008   5.012   6.630
18203TIP3   OH2 5076   1.805   4.094   6.647
18203TIP3    H1 5077   1.800   4.158   6.718
18203TIP3    H2 5078   1.876   4.125   6.592
18204TIP3   OH2 5079   1.221   4.399   6.553
18204TIP3    H1 5080   1.244   4.309   6.576
18204TIP3    H2 5081   1.199   4.396   6.460
18205TIP3   OH2 5082   0.566   4.204   6.307
18205TIP3    H1 5083   0.574   4.287   6.259
18205TIP3    H2 5084   0.526   4.144   6.244
18206TIP3   OH2 5085   1.353   4.228   6.140
18206TIP3    H1 5086   1.396   4.202   6.222
18206TIP3    H2 5087   1.423   4.268   6.088
18207TIP3   OH2 5088   0.226   4.444   6.355
18207TIP3    H1 5089   0.286   4.405   6.418
18207TIP3    H2 5090   0.237   4.392   6.275
18208TIP3   OH2 5091   0.690   4.602   6.341
18208TIP3    H1 5092   0.774   4.566   6.370
18208TIP3    H2 5093   0.653   4.535   6.285
18209TIP3   OH2 5094   1.781   4.268   6.860
18209TIP3    H1 5095   1.732   4.348   6.845
18209TIP3    H2 5096   1.843   4.291   6.929
18210TIP3   OH2 5097   0.435   4.124   6.735
18210TIP3    H1 5098   0.407   4.185   6.667
18210TIP3    H2 5099   0.369   4.133   6.804
18211TIP3   OH2 5100   1.119   5.064   6.067
18211TIP3    H1 5101   1.212   5.085   6.075
18211TIP3    H2 5102   1.075   5.150   6.067
18212TIP3   OH2 5103   0.698   4.885   6.694
18212TIP3    H1 5104   0.651   4.953   6.742
18212TIP3    H2 5105   0.775   4.930   6.659
18213TIP3   OH2 5106   1.461   4.191   6.386
18213TIP3    H1 5107   1.396   4.167   6.452
18213TIP3    H2 5108   1.522   4.248   6.432
18214TIP3   OH2 5109   0.405   4.292   6.510
18214TIP3    H1 5110   0.460   4.347   6.566
18214TIP3    H2 5111   0.465   4.254   6.446
18215TIP3   OH2 5112   0.543   5.074   6.842
18215TIP3    H1 5113   0.577   5.163   6.837
18215TIP3    H2 5114   0.448   5.084   6.836
18216TIP3   OH2 5115   0.175   5.076   5.926
18216TIP3    H1 5116   0.150   5.124   5.847
18216TIP3    H2 5117   0.192   5.144   5.991
18217TIP3   OH2 5118   1.482   5.245   6.555
18217TIP3    H1 5119   1.387   5.257   6.558
18217TIP3    H2 5120   1.516   5.330   6.527
18218TIP3   OH2 5121   1.549   3.979   6.630
18218TIP3    H1 5122   1.494   4.056   6.646
18218TIP3    H2 5123   1.639   4.012   6.638
18219TIP3   OH2 5124   0.780   3.809   6.464
18219TIP3    H1 5125   0.759   3.716   6.475
18219TIP3    H2 5126   0.704   3.855   6.500
18220TIP3   OH2 5127   1.297   5.363   6.182
18220TIP3    H1 5128   1.336   5.279   6.160
18220TIP3    H2 5129   1.371   5.424   6.182
18221TIP3   OH2 5130   1.388   5.115   6.104
18221TIP3    H1 5131   1.448   5.073   6.042
18221TIP3    H2 5132   1.415   5.083   6.190
18222TIP3   OH2 5133   1.600   5.016   6.910
18222TIP3    H1 5134   1.599   4.963   6.831
18222TIP3    H2 5135   1.612   5.106   6.880
18223TIP3   OH2 5136   1.055   4.706   5.902
18223TIP3    H1 5137   0.992   4.775   5.881
18223TIP3    H2 5138   1.125   4.717   5.838
18224TIP3   OH2 5139   1.103   4.551   5.566
18224TIP3    H1 5140   1.147   4.606   5.632
18224TIP3    H2 5141   1.167   4.482   5.547
18225TIP3   OH2 5142   1.754   4.682   6.735
18225TIP3    H1 5143   1.690   4.752   6.724
18225TIP3    H2 5144   1.830   4.711   6.685
18226TIP3   OH2 5145   1.410   4.747   5.976
18226TIP3    H1 5146   1.339   4.768   6.037
18226TIP3    H2 5147   1.471   4.693   6.026
18227TIP3   OH2 5148   1.354   4.542   6.928
18227TIP3    H1 5149   1.360   4.603   7.001
18227TIP3    H2 5150   1.284   4.578   6.873
18228TIP3   OH2 5151   0.584   4.803   6.173
18228TIP3    H1 5152   0.568   4.759   6.089
18228TIP3    H2 5153   0.634   4.740   6.224
18229TIP3   OH2 5154   0.739   5.133   6.448
18229TIP3    H1 5155   0.761   5.136   6.355
18229TIP3    H2 5156   0.811   5.084   6.488
18230TIP3   OH2 5157   0.549   4.694   6.561
18230TIP3    H1 5158   0.604   4.664   6.488
18230TIP3    H2 5159   0.603   4.760   6.606
18231TIP3   OH2 5160   1.210   5.269   6.599
18231TIP3    H1 5161   1.199   5.331   6.671
18231TIP3    H2 5162   1.194   5.183   6.639
18232TIP3   OH2 5163   0.645   5.183   7.108
18232TIP3    H1 5164   0.692   5.185   7.191
18232TIP3    H2 5165   0.686   5.252   7.055
18233TIP3   OH2 5166   1.285   4.682   5.737
18233TIP3    H1 5167   1.338   4.717   5.809
18233TIP3    H2 5168   1.339   4.697   5.659
18234TIP3   OH2 5169   0.439   4.776   6.971
18234TIP3    H1 5170   0.364   4.758   7.028
18234TIP3    H2 5171   0.405   4.762   6.882
18235TIP3   OH2 5172   1.054   5.338   6.058
18235TIP3    H1 5173   1.133   5.345   6.112
18235TIP3    H2 5174   1.032   5.428   6.037
18236TIP3   OH2 5175   0.410   5.414   7.048
18236TIP3    H1 5176   0.481   5.393   6.988
18236TIP3    H2 5177   0.363   5.331   7.059
18237TIP3   OH2 5178   1.660   3.851   5.759
18237TIP3    H1 5179   1.573   3.868   5.794
18237TIP3    H2 5180   1.702   3.937   5.754
18238TIP3   OH2 5181   0.512   4.712   5.908
18238TIP3    H1 5182   0.443   4.773   5.880
18238TIP3    H2 5183   0.467   4.628   5.916
18239TIP3   OH2 5184   1.774   5.283   5.621
18239TIP3    H1 5185   1.801   5.375   5.619
18239TIP3    H2 5186   1.857   5.234   5.626
18240TIP3   OH2 5187   0.103   4.948   6.838
18240TIP3    H1 5188   0.014   4.963   6.807
18240TIP3    H2 5189   0.101   4.860   6.876
18241TIP3   OH2 5190   0.067   5.271   6.536
18241TIP3    H1 5191   0.055   5.179   6.562
18241TIP3    H2 5192   0.124   5.307   6.604
18242TIP3   OH2 5193   1.857   5.318   7.127
18242TIP3    H1 5194   1.853   5.222   7.129
18242TIP3    H2 5195   1.770   5.347   7.153
18243TIP3   OH2 5196   0.930   5.266   6.985
18243TIP3    H1 5197   0.931   5.341   7.045
18243TIP3    H2 5198   0.938   5.190   7.041
18244TIP3   OH2 5199   1.034   5.584   5.938
18244TIP3    H1 5200   1.020   5.596   5.844
18244TIP3    H2 5201   1.015   5.669   5.976
18245TIP3   OH2 5202   0.392   5.501   6.169
18245TIP3    H1 5203   0.412   5.471   6.257
18245TIP3    H2 5204   0.339   5.431   6.131
18246TIP3   OH2 5205   1.302   5.506   5.640
18246TIP3    H1 5206   1.362   5.436   5.614
18246TIP3    H2 5207   1.316   5.516   5.734
18247TIP3   OH2 5208   1.312   5.544   5.915
18247TIP3    H1 5209   1.220   5.541   5.940
18247TIP3    H2 5210   1.359   5.521   5.996
18248TIP3   OH2 5211   1.549   4.394   7.262
18248TIP3    H1 5212   1.625   4.450   7.249
18248TIP3    H2 5213   1.557   4.325   7.196
18249TIP3   OH2 5214   0.281   5.139   6.911
18249TIP3    H1 5215   0.293   5.107   7.000
18249TIP3    H2 5216   0.216   5.079   6.873
18250TIP3   OH2 5217   0.545   3.928   6.565
18250TIP3    H1 5218   0.473   3.923   6.501
18250TIP3    H2 5219   0.522   4.001   6.622
18251TIP3   OH2 5220   1.051   3.879   6.915
18251TIP3    H1 5221   1.103   3.833   6.981
18251TIP3    H2 5222   0.961   3.877   6.949
18252TIP3   OH2 5223   1.322   4.266   6.951
18252TIP3    H1 5224   1.268   4.253   7.029
18252TIP3    H2 5225   1.334   4.361   6.945
18253TIP3   OH2 5226   1.417   4.672   5.483
18253TIP3    H1 5227   1.405   4.689   5.390
18253TIP3    H2 5228   1.501   4.713   5.505
18254TIP3   OH2 5229   1.015   4.093   5.614
18254TIP3    H1 5230   0.953   4.105   5.686
18254TIP3    H2 5231   1.044   4.002   5.621
18255TIP3   OH2 5232   0.560   4.438   6.683
18255TIP3    H1 5233   0.507   4.439   6.763
18255TIP3    H2 5234   0.571   4.530   6.661
18256TIP3   OH2 5235   0.552   4.438   6.160
18256TIP3    H1 5236   0.458   4.420   6.154
18256TIP3    H2 5237   0.585   4.420   6.072
18257TIP3   OH2 5238   1.105   4.466   6.023
18257TIP3    H1 5239   1.082   4.553   5.989
18257TIP3    H2 5240   1.181   4.440   5.971
18258TIP3   OH2 5241   1.031   4.476   7.158
18258TIP3    H1 5242   0.989   4.404   7.205
18258TIP3    H2 5243   1.115   4.488   7.202
18259TIP3   OH2 5244   1.176   4.395   6.284
18259TIP3    H1 5245   1.142   4.442   6.209
18259TIP3    H2 5246   1.234   4.328   6.247
18260TIP3   OH2 5247   0.353   4.430   6.871
18260TIP3    H1 5248   0.378   4.427   6.963
18260TIP3    H2 5249   0.287   4.361   6.862
18261TIP3   OH2 5250   0.542   4.178   5.487
18261TIP3    H1 5251   0.577   4.183   5.576
18261TIP3    H2 5252   0.550   4.267   5.453
18262TIP3   OH2 5253   0.089   4.068   6.147
18262TIP3    H1 5254   0.109   4.118   6.226
18262TIP3    H2 5255   0.150   3.994   6.149
18263TIP3   OH2 5256   0.176   4.322   5.872
18263TIP3    H1 5257   0.200   4.348   5.783
18263TIP3    H2 5258   0.135   4.400   5.910
18264TIP3   OH2 5259   1.124   4.565   6.749
18264TIP3    H1 5260   1.167   4.509   6.684
18264TIP3    H2 5261   1.079   4.504   6.806
18265TIP3   OH2 5262   0.841   4.194   6.241
18265TIP3    H1 5263   0.759   4.191   6.290
18265TIP3    H2 5264   0.894   4.125   6.280
18266TIP3   OH2 5265   0.307   4.314   6.120
18266TIP3    H1 5266   0.256   4.317   6.039
18266TIP3    H2 5267   0.346   4.227   6.121
18267TIP3   OH2 5268   0.624   4.368   5.904
18267TIP3    H1 5269   0.717   4.362   5.924
18267TIP3    H2 5270   0.621   4.405   5.816
18268TIP3   OH2 5271   1.266   4.121   6.566
18268TIP3    H1 5272   1.215   4.115   6.646
18268TIP3    H2 5273   1.242   4.043   6.516
18269TIP3   OH2 5274   0.603   4.448   5.641
18269TIP3    H1 5275   0.545   4.454   5.566
18269TIP3    H2 5276   0.684   4.491   5.612
18270TIP3   OH2 5277   1.600   5.675   7.222
18270TIP3    H1 5278   1.625   5.705   7.134
18270TIP3    H2 5279   1.676   5.696   7.277
18271TIP3   OH2 5280   0.324   5.001   7.150
18271TIP3    H1 5281   0.381   5.001   7.227
18271TIP3    H2 5282   0.247   4.951   7.176
18272TIP3   OH2 5283   0.923   4.486   6.445
18272TIP3    H1 5284   0.991   4.436   6.399
18272TIP3    H2 5285   0.900   4.431   6.520
18273TIP3   OH2 5286   0.435   4.068   6.100
18273TIP3    H1 5287   0.381   3.990   6.112
18273TIP3    H2 5288   0.487   4.050   6.021
18274TIP3   OH2 5289   0.826   4.342   6.675
18274TIP3    H1 5290   0.745   4.390   6.688
18274TIP3    H2 5291   0.880   4.366   6.751
18275TIP3   OH2 5292   0.876   4.906   5.837
18275TIP3    H1 5293   0.807   4.884   5.775
18275TIP3    H2 5294   0.831   4.948   5.910
18276TIP3   OH2 5295   1.577   4.885   6.670
18276TIP3    H1 5296   1.640   4.935   6.619
18276TIP3    H2 5297   1.507   4.865   6.608
18277TIP3   OH2 5298   1.274   4.183   5.713
18277TIP3    H1 5299   1.190   4.182   5.668
18277TIP3    H2 5300   1.281   4.271   5.749
18278TIP3   OH2 5301   1.023   4.993   7.089
18278TIP3    H1 5302   1.058   4.924   7.146
18278TIP3    H2 5303   1.100   5.039   7.057
18279TIP3   OH2 5304   1.317   4.419   5.846
18279TIP3    H1 5305   1.400   4.402   5.891
18279TIP3    H2 5306   1.326   4.508   5.814
18280TIP3   OH2 5307   0.387   4.838   6.371
18280TIP3    H1 5308   0.452   4.838   6.301
18280TIP3    H2 5309   0.428   4.787   6.441
18281TIP3   OH2 5310   1.101   5.062   5.749
18281TIP3    H1 5311   1.067   5.149   5.768
18281TIP3    H2 5312   1.048   5.003   5.803
18282TIP3   OH2 5313   0.111   4.702   6.975
18282TIP3    H1 5314   0.147   4.652   7.048
18282TIP3    H2 5315   0.081   4.636   6.913
18283TIP3   OH2 5316   0.803   4.635   7.185
18283TIP3    H1 5317   0.749   4.582   7.125
18283TIP3    H2 5318   0.889   4.592   7.183
18284TIP3   OH2 5319   1.210   5.206   7.026
18284TIP3    H1 5320   1.134   5.256   6.995
18284TIP3    H2 5321   1.227   5.241   7.113
18285TIP3   OH2 5322   1.679   4.474   5.775
18285TIP3    H1 5323   1.676   4.452   5.682
18285TIP3    H2 5324   1.739   4.548   5.781
18286TIP3   OH2 5325   1.817   4.960   7.070
18286TIP3    H1 5326   1.735   4.988   7.029
18286TIP3    H2 5327   1.879   4.953   6.998
18287TIP3   OH2 5328   1.627   5.305   5.855
18287TIP3    H1 5329   1.592   5.220   5.881
18287TIP3    H2 5330   1.677   5.287   5.776
18288TIP3   OH2 5331   1.351   4.811   6.501
18288TIP3    H1 5332   1.258   4.792   6.492
18288TIP3    H2 5333   1.394   4.734   6.463
18289TIP3   OH2 5334   0.658   5.237   6.181
18289TIP3    H1 5335   0.673   5.322   6.140
18289TIP3    H2 5336   0.581   5.249   6.236
18290TIP3   OH2 5337   0.157   4.722   5.644
18290TIP3    H1 5338   0.227   4.771   5.687
18290TIP3    H2 5339   0.093   4.706   5.714
18291TIP3   OH2 5340   0.696   5.020   6.017
18291TIP3    H1 5341   0.693   5.096   6.074
18291TIP3    H2 5342   0.659   4.949   6.069
18292TIP3   OH2 5343   0.852   5.388   6.749
18292TIP3    H1 5344   0.905   5.466   6.735
18292TIP3    H2 5345   0.895   5.342   6.822
18293TIP3   OH2 5346   0.644   5.496   6.057
18293TIP3    H1 5347   0.553   5.503   6.086
18293TIP3    H2 5348   0.687   5.573   6.093
18294TIP3   OH2 5349   1.193   5.008   6.707
18294TIP3    H1 5350   1.223   4.992   6.797
18294TIP3    H2 5351   1.247   4.951   6.653
18295TIP3   OH2 5352   1.372   5.096   5.689
18295TIP3    H1 5353   1.425   5.057   5.759
18295TIP3    H2 5354   1.282   5.081   5.717
18296TIP3   OH2 5355   1.420   5.449   6.939
18296TIP3    H1 5356   1.333   5.422   6.910
18296TIP3    H2 5357   1.444   5.521   6.880
18297TIP3   OH2 5358   1.847   5.549   5.651
18297TIP3    H1 5359   1.912   5.619   5.641
18297TIP3    H2 5360   1.767   5.594   5.677
18298TIP3   OH2 5361   0.208   4.179   6.902
18298TIP3    H1 5362   0.162   4.218   6.977
18298TIP3    H2 5363   0.164   4.096   6.886
18299TIP3   OH2 5364   1.527   4.983   5.893
18299TIP3    H1 5365   1.484   4.902   5.919
18299TIP3    H2 5366   1.620   4.963   5.893
18300TIP3   OH2 5367   0.224   5.368   6.755
18300TIP3    H1 5368   0.262   5.297   6.805
18300TIP3    H2 5369   0.254   5.448   6.799
18301TIP3   OH2 5370   0.777   5.143   5.505
18301TIP3    H1 5371   0.868   5.113   5.498
18301TIP3    H2 5372   0.761   5.148   5.599
18302TIP3   OH2 5373   0.663   5.161   5.768
18302TIP3    H1 5374   0.679   5.116   5.851
18302TIP3    H2 5375   0.687   5.252   5.786
18303TIP3   OH2 5376   0.321   4.884   5.797
18303TIP3    H1 5377   0.268   4.933   5.860
18303TIP3    H2 5378   0.367   4.952   5.748
18304TIP3   OH2 5379   1.137   4.120   6.807
18304TIP3    H1 5380   1.208   4.157   6.860
18304TIP3    H2 5381   1.112   4.040   6.853
18305TIP3   OH2 5382   1.221   4.067   5.960
18305TIP3    H1 5383   1.241   4.112   5.878
18305TIP3    H2 5384   1.260   4.123   6.028
18306TIP3   OH2 5385   0.975   5.299   5.794
18306TIP3    H1 5386   0.893   5.348   5.792
18306TIP3    H2 5387   1.008   5.311   5.883
18307TIP3   OH2 5388   0.877   4.317   6.001
18307TIP3    H1 5389   0.955   4.371   6.009
18307TIP3    H2 5390   0.865   4.279   6.088
18308TIP3   OH2 5391   0.993   4.377   6.899
18308TIP3    H1 5392   1.004   4.408   6.988
18308TIP3    H2 5393   1.033   4.291   6.898
18309TIP3   OH2 5394   0.993   3.944   6.048
18309TIP3    H1 5395   0.994   3.959   6.142
18309TIP3    H2 5396   1.073   3.985   6.016
18310TIP3   OH2 5397   0.729   5.428   5.802
18310TIP3    H1 5398   0.725   5.506   5.747
18310TIP3    H2 5399   0.701   5.458   5.888
18311TIP3   OH2 5400   0.587   4.116   5.787
18311TIP3    H1 5401   0.580   4.201   5.830
18311TIP3    H2 5402   0.678   4.090   5.798
18312TIP3   OH2 5403   1.576   4.212   7.049
18312TIP3    H1 5404   1.490   4.220   7.008
18312TIP3    H2 5405   1.638   4.221   6.977
18313TIP3   OH2 5406   1.441   4.555   6.395
18313TIP3    H1 5407   1.356   4.512   6.402
18313TIP3    H2 5408   1.500   4.502   6.449
18314TIP3   OH2 5409   0.419   5.104   5.649
18314TIP3    H1 5410   0.491   5.138   5.701
18314TIP3    H2 5411   0.461   5.056   5.578
18315TIP3   OH2 5412   0.182   4.442   5.620
18315TIP3    H1 5413   0.196   4.536   5.617
18315TIP3    H2 5414   0.087   4.432   5.616
18316TIP3   OH2 5415   1.576   5.503   6.515
18316TIP3    H1 5416   1.565   5.577   6.455
18316TIP3    H2 5417   1.667   5.509   6.544
18317TIP3   OH2 5418   0.316   3.899   6.412
18317TIP3    H1 5419   0.303   3.879   6.320
18317TIP3    H2 5420   0.284   3.822   6.459
18318TIP3   OH2 5421   0.209   5.318   6.063
18318TIP3    H1 5422   0.157   5.350   6.137
18318TIP3    H2 5423   0.186   5.376   5.990
18319TIP3   OH2 5424   0.119   5.569   7.243
18319TIP3    H1 5425   0.054   5.623   7.288
18319TIP3    H2 5426   0.068   5.499   7.202
18320TIP3   OH2 5427   0.520   5.369   7.368
18320TIP3    H1 5428   0.548   5.386   7.458
18320TIP3    H2 5429   0.588   5.312   7.331
18321TIP3   OH2 5430   0.973   5.379   5.483
18321TIP3    H1 5431   0.892   5.326   5.480
18321TIP3    H2 5432   1.037   5.321   5.523
18322TIP3   OH2 5433   1.252   5.270   7.293
18322TIP3    H1 5434   1.235   5.185   7.332
18322TIP3    H2 5435   1.336   5.297   7.329
18323TIP3   OH2 5436   1.469   5.301   5.538
18323TIP3    H1 5437   1.439   5.229   5.593
18323TIP3    H2 5438   1.564   5.300   5.546
18324TIP3   OH2 5439   0.101   4.854   7.228
18324TIP3    H1 5440   0.143   4.769   7.244
18324TIP3    H2 5441   0.052   4.842   7.146
18325TIP3   OH2 5442   0.572   4.962   5.469
18325TIP3    H1 5443   0.599   4.896   5.533
18325TIP3    H2 5444   0.646   5.023   5.464
18326TIP3   OH2 5445   0.766   4.893   7.112
18326TIP3    H1 5446   0.853   4.932   7.103
18326TIP3    H2 5447   0.783   4.806   7.149
18327TIP3   OH2 5448   1.045   5.078   5.484
18327TIP3    H1 5449   1.071   5.062   5.575
18327TIP3    H2 5450   1.125   5.062   5.434
18328TIP3   OH2 5451   1.333   4.973   6.957
18328TIP3    H1 5452   1.428   4.984   6.947
18328TIP3    H2 5453   1.302   5.059   6.986
18329TIP3   OH2 5454   0.228   4.596   7.202
18329TIP3    H1 5455   0.295   4.532   7.178
18329TIP3    H2 5456   0.188   4.560   7.282
18330TIP3   OH2 5457   0.666   4.790   5.675
18330TIP3    H1 5458   0.623   4.757   5.754
18330TIP3    H2 5459   0.718   4.716   5.644
18331TIP3   OH2 5460   0.634   4.546   6.976
18331TIP3    H1 5461   0.571   4.618   6.983
18331TIP3    H2 5462   0.696   4.574   6.909
18332TIP3   OH2 5463   0.822   4.584   5.544
18332TIP3    H1 5464   0.822   4.574   5.449
18332TIP3    H2 5465   0.913   4.573   5.570
18333TIP3   OH2 5466   1.133   4.804   7.265
18333TIP3    H1 5467   1.216   4.776   7.226
18333TIP3    H2 5468   1.115   4.740   7.333
18334TIP3   OH2 5469   1.653   4.818   5.496
18334TIP3    H1 5470   1.682   4.792   5.409
18334TIP3    H2 5471   1.666   4.913   5.499
18335TIP3   OH2 5472   0.658   4.291   7.085
18335TIP3    H1 5473   0.678   4.230   7.015
18335TIP3    H2 5474   0.660   4.377   7.043
18336TIP3   OH2 5475   0.694   4.141   6.839
18336TIP3    H1 5476   0.746   4.192   6.776
18336TIP3    H2 5477   0.606   4.142   6.803
18337TIP3   OH2 5478   0.803   4.643   6.787
18337TIP3    H1 5479   0.899   4.646   6.791
18337TIP3    H2 5480   0.778   4.731   6.759
18338TIP3   OH2 5481   1.271   4.426   7.316
18338TIP3    H1 5482   1.257   4.332   7.306
18338TIP3    H2 5483   1.365   4.438   7.301
18339TIP3   OH2 5484   1.373   4.745   7.118
18339TIP3    H1 5485   1.361   4.825   7.067
18339TIP3    H2 5486   1.465   4.744   7.142
18340TIP3   OH2 5487   0.395   4.377   7.146
18340TIP3    H1 5488   0.350   4.306   7.191
18340TIP3    H2 5489   0.487   4.349   7.141
18341TIP3   OH2 5490   0.759   3.878   6.905
18341TIP3    H1 5491   0.742   3.970   6.885
18341TIP3    H2 5492   0.685   3.831   6.865
18342TIP3   OH2 5493   0.905   4.256   7.261
18342TIP3    H1 5494   0.909   4.229   7.353
18342TIP3    H2 5495   0.812   4.253   7.239
18343TIP3   OH2 5496   1.151   4.194   7.150
18343TIP3    H1 5497   1.061   4.208   7.181
18343TIP3    H2 5498   1.190   4.137   7.217
18344TIP3   OH2 5499   1.241   4.056   7.366
18344TIP3    H1 5500   1.282   3.971   7.354
18344TIP3    H2 5501   1.189   4.047   7.446
18345TIP3   OH2 5502   0.274   4.155   7.277
18345TIP3    H1 5503   0.281   4.071   7.232
18345TIP3    H2 5504   0.292   4.136   7.369
18346TIP3   OH2 5505   0.773   3.810   7.168
18346TIP3    H1 5506   0.836   3.738   7.169
18346TIP3    H2 5507   0.767   3.836   7.076
18347TIP3   OH2 5508   0.769   3.952   7.405
18347TIP3    H1 5509   0.776   3.912   7.318
18347TIP3    H2 5510   0.713   4.028   7.392
18348TIP3   OH2 5511   0.757   5.639   5.613
18348TIP3    H1 5512   0.850   5.648   5.635
18348TIP3    H2 5513   0.755   5.643   5.517
18349TIP3   OH2 5514   0.144   5.169   5.663
18349TIP3    H1 5515   0.240   5.166   5.661
18349TIP3    H2 5516   0.117   5.095   5.609
18350TIP3   OH2 5517   0.022   5.606   6.121
18350TIP3    H1 5518   8.073   5.587   6.112
18350TIP3    H2 5519   0.053   5.546   6.188
18351TIP3   OH2 5520   0.114   5.426   6.306
18351TIP3    H1 5521   0.086   5.351   6.359
18351TIP3    H2 5522   0.158   5.484   6.368
18352TIP3   OH2 5523   1.821   5.547   6.628
18352TIP3    H1 5524   1.817   5.506   6.715
18352TIP3    H2 5525   1.875   5.625   6.641
18353TIP3   OH2 5526   1.775   5.466   6.891
18353TIP3    H1 5527   1.721   5.392   6.862
18353TIP3    H2 5528   1.829   5.430   6.961
18354TIP3   OH2 5529   1.787   4.896   5.905
18354TIP3    H1 5530   1.862   4.955   5.914
18354TIP3    H2 5531   1.802   4.829   5.973
18355TIP3   OH2 5532   1.811   4.684   6.082
18355TIP3    H1 5533   1.725   4.652   6.108
18355TIP3    H2 5534   1.858   4.696   6.164
18356TIP3   OH2 5535   1.795   5.010   6.561
18356TIP3    H1 5536   1.859   4.939   6.562
18356TIP3    H2 5537   1.848   5.089   6.548
18357TIP3   OH2 5538   1.597   5.270   6.809
18357TIP3    H1 5539   1.526   5.320   6.849
18357TIP3    H2 5540   1.568   5.255   6.719
18358TIP3   OH2 5541   1.812   4.712   5.701
18358TIP3    H1 5542   1.750   4.742   5.635
18358TIP3    H2 5543   1.804   4.776   5.772
18359TIP3   OH2 5544   1.665   4.416   5.505
18359TIP3    H1 5545   1.670   4.425   5.410
18359TIP3    H2 5546   1.620   4.333   5.519
18360TIP3   OH2 5547   1.558   4.581   6.140
18360TIP3    H1 5548   1.561   4.490   6.111
18360TIP3    H2 5549   1.523   4.576   6.229
18361TIP3   OH2 5550   0.113   4.737   6.556
18361TIP3    H1 5551   0.149   4.814   6.511
18361TIP3    H2 5552   0.172   4.723   6.630
18362TIP3   OH2 5553   1.656   4.740   7.153
18362TIP3    H1 5554   1.707   4.659   7.155
18362TIP3    H2 5555   1.716   4.805   7.117
18363TIP3   OH2 5556   1.814   4.504   7.188
18363TIP3    H1 5557   1.879   4.541   7.248
18363TIP3    H2 5558   1.854   4.422   7.158
18364TIP3   OH2 5559   1.522   4.190   5.568
18364TIP3    H1 5560   1.602   4.148   5.602
18364TIP3    H2 5561   1.453   4.162   5.628
18365TIP3   OH2 5562   1.554   4.341   5.979
18365TIP3    H1 5563   1.589   4.252   5.983
18365TIP3    H2 5564   1.609   4.386   5.915
18366TIP3   OH2 5565   1.595   4.375   6.544
18366TIP3    H1 5566   1.689   4.384   6.527
18366TIP3    H2 5567   1.585   4.395   6.637
18367TIP3   OH2 5568   1.600   4.468   6.808
18367TIP3    H1 5569   1.522   4.499   6.853
18367TIP3    H2 5570   1.651   4.547   6.791
18368TIP3   OH2 5571   0.057   4.259   7.132
18368TIP3    H1 5572   0.124   4.231   7.194
18368TIP3    H2 5573   8.119   4.226   7.169
18369TIP3   OH2 5574   1.845   3.880   7.377
18369TIP3    H1 5575   1.853   3.812   7.443
18369TIP3    H2 5576   1.909   3.857   7.310
18370TIP3   OH2 5577   1.607   4.072   5.999
18370TIP3    H1 5578   1.653   4.030   6.072
18370TIP3    H2 5579   1.546   4.005   5.968
18371TIP3   OH2 5580   0.183   4.138   6.415
18371TIP3    H1 5581   0.223   4.052   6.428
18371TIP3    H2 5582   0.242   4.199   6.459
18372TIP3   OH2 5583   8.143   4.488   6.528
18372TIP3    H1 5584   0.058   4.456   6.459
18372TIP3    H2 5585   0.021   4.581   6.536
18373TIP3   OH2 5586   1.797   4.040   7.092
18373TIP3    H1 5587   1.709   4.075   7.107
18373TIP3    H2 5588   1.782   3.953   7.054
18374TIP3   OH2 5589   1.780   4.095   5.649
18374TIP3    H1 5590   1.853   4.036   5.630
18374TIP3    H2 5591   1.818   4.164   5.702
18375TIP3   OH2 5592   0.071   4.064   5.866
18375TIP3    H1 5593   0.042   4.047   5.956
18375TIP3    H2 5594   0.119   4.146   5.871
18376TIP3   OH2 5595   1.482   5.562   6.151
18376TIP3    H1 5596   1.563   5.561   6.101
18376TIP3    H2 5597   1.499   5.623   6.223
18377TIP3   OH2 5598   0.044   3.948   6.830
18377TIP3    H1 5599   8.142   3.867   6.812
18377TIP3    H2 5600   8.126   4.017   6.806
18378TIP3   OH2 5601   0.224   5.279   7.211
18378TIP3    H1 5602   0.134   5.293   7.183
18378TIP3    H2 5603   0.228   5.188   7.239
18379TIP3   OH2 5604   0.596   5.357   6.840
18379TIP3    H1 5605   0.565   5.442   6.809
18379TIP3    H2 5606   0.688   5.354   6.813
18380TIP3   OH2 5607   0.946   5.498   7.133
18380TIP3    H1 5608   0.952   5.457   7.219
18380TIP3    H2 5609   1.028   5.545   7.122
18381TIP3   OH2 5610   1.189   5.626   7.107
18381TIP3    H1 5611   1.264   5.589   7.060
18381TIP3    H2 5612   1.226   5.656   7.190
18382TIP3   OH2 5613   1.725   3.804   6.944
18382TIP3    H1 5614   1.630   3.805   6.959
18382TIP3    H2 5615   1.747   3.711   6.942
18383TIP3   OH2 5616   0.270   5.628   6.840
18383TIP3    H1 5617   0.190   5.674   6.813
18383TIP3    H2 5618   0.285   5.658   6.929
18384TIP3   OH2 5619   0.532   5.615   6.756
18384TIP3    H1 5620   0.443   5.623   6.788
18384TIP3    H2 5621   0.536   5.672   6.679
18385TIP3   OH2 5622   0.979   5.624   6.684
18385TIP3    H1 5623   0.936   5.673   6.614
18385TIP3    H2 5624   0.995   5.690   6.752
18386TIP3   OH2 5625   1.204   5.487   6.765
18386TIP3    H1 5626   1.126   5.534   6.736
18386TIP3    H2 5627   1.277   5.545   6.744
18387TIP3   OH2 5628   1.447   5.623   6.727
18387TIP3    H1 5629   1.474   5.713   6.711
18387TIP3    H2 5630   1.489   5.573   6.657
18388TIP3   OH2 5631   0.255   5.543   6.514
18388TIP3    H1 5632   0.233   5.511   6.602
18388TIP3    H2 5633   0.332   5.491   6.489
18389TIP3   OH2 5634   0.460   5.391   6.413
18389TIP3    H1 5635   0.445   5.298   6.430
18389TIP3    H2 5636   0.545   5.408   6.452
18390TIP3   OH2 5637   0.718   5.409   6.510
18390TIP3    H1 5638   0.732   5.320   6.479
18390TIP3    H2 5639   0.761   5.413   6.595
18391TIP3   OH2 5640   0.977   3.964   6.323
18391TIP3    H1 5641   0.927   3.911   6.385
18391TIP3    H2 5642   1.068   3.952   6.350
18392TIP3   OH2 5643   1.533   3.854   6.380
18392TIP3    H1 5644   1.601   3.894   6.325
18392TIP3    H2 5645   1.538   3.901   6.463
18393TIP3   OH2 5646   1.734   3.930   6.205
18393TIP3    H1 5647   1.798   3.861   6.186
18393TIP3    H2 5648   1.788   4.006   6.231
18394TIP3   OH2 5649   0.269   3.844   6.141
18394TIP3    H1 5650   0.182   3.810   6.121
18394TIP3    H2 5651   0.326   3.767   6.139
18395TIP3   OH2 5652   0.185   3.840   5.731
18395TIP3    H1 5653   0.258   3.895   5.701
18395TIP3    H2 5654   0.131   3.899   5.783
18396TIP3   OH2 5655   0.754   3.816   6.174
18396TIP3    H1 5656   0.825   3.869   6.138
18396TIP3    H2 5657   0.765   3.822   6.269
18397TIP3   OH2 5658   1.241   3.905   6.388
18397TIP3    H1 5659   1.335   3.908   6.368
18397TIP3    H2 5660   1.219   3.812   6.383
18398TIP3   OH2 5661   1.424   3.892   5.889
18398TIP3    H1 5662   1.351   3.948   5.914
18398TIP3    H2 5663   1.390   3.803   5.897
18399TIP3   OH2 5664   0.160   5.470   5.838
18399TIP3    H1 5665   0.098   5.436   5.774
18399TIP3    H2 5666   0.155   5.565   5.828
18400TIP3   OH2 5667   0.395   3.988   5.629
18400TIP3    H1 5668   0.429   4.044   5.559
18400TIP3    H2 5669   0.449   4.009   5.705
18401TIP3   OH2 5670   0.860   4.092   5.846
18401TIP3    H1 5671   0.893   4.027   5.909
18401TIP3    H2 5672   0.868   4.176   5.892
18402TIP3   OH2 5673   1.036   5.600   5.648
18402TIP3    H1 5674   1.131   5.588   5.652
18402TIP3    H2 5675   1.004   5.527   5.595
18403TIP3   OH2 5676   1.692   5.546   5.970
18403TIP3    H1 5677   1.672   5.459   5.936
18403TIP3    H2 5678   1.686   5.604   5.894
18404TIP3   OH2 5679   0.284   3.893   7.143
18404TIP3    H1 5680   0.228   3.824   7.177
18404TIP3    H2 5681   0.371   3.873   7.177
18405TIP3   OH2 5682   0.512   3.801   7.253
18405TIP3    H1 5683   0.603   3.808   7.223
18405TIP3    H2 5684   0.510   3.719   7.303
18406TIP3   OH2 5685   0.341   5.581   5.583
18406TIP3    H1 5686   0.276   5.616   5.644
18406TIP3    H2 5687   0.387   5.514   5.632
18407TIP3   OH2 5688   1.351   3.803   7.320
18407TIP3    H1 5689   1.362   3.739   7.390
18407TIP3    H2 5690   1.440   3.824   7.292
18408TIP3   OH2 5691   1.594   5.410   7.152
18408TIP3    H1 5692   1.534   5.413   7.078
18408TIP3    H2 5693   1.597   5.500   7.184
18409TIP3   OH2 5694   3.097   4.811   6.129
18409TIP3    H1 5695   3.085   4.906   6.125
18409TIP3    H2 5696   3.024   4.776   6.078
18410TIP3   OH2 5697   2.970   4.728   6.550
18410TIP3    H1 5698   2.997   4.686   6.631
18410TIP3    H2 5699   2.917   4.661   6.505
18411TIP3   OH2 5700   2.161   4.635   6.699
18411TIP3    H1 5701   2.167   4.562   6.761
18411TIP3    H2 5702   2.250   4.668   6.690
18412TIP3   OH2 5703   3.362   5.033   6.357
18412TIP3    H1 5704   3.324   4.957   6.403
18412TIP3    H2 5705   3.373   5.099   6.425
18413TIP3   OH2 5706   2.284   5.121   6.502
18413TIP3    H1 5707   2.273   5.035   6.462
18413TIP3    H2 5708   2.351   5.108   6.569
18414TIP3   OH2 5709   2.002   4.489   5.976
18414TIP3    H1 5710   2.079   4.535   6.012
18414TIP3    H2 5711   1.928   4.546   5.998
18415TIP3   OH2 5712   1.973   4.696   6.309
18415TIP3    H1 5713   1.988   4.608   6.345
18415TIP3    H2 5714   2.049   4.713   6.254
18416TIP3   OH2 5715   3.088   5.489   6.421
18416TIP3    H1 5716   3.120   5.432   6.351
18416TIP3    H2 5717   3.068   5.428   6.493
18417TIP3   OH2 5718   2.819   4.971   6.577
18417TIP3    H1 5719   2.864   4.892   6.546
18417TIP3    H2 5720   2.879   5.008   6.642
18418TIP3   OH2 5721   3.703   4.117   6.653
18418TIP3    H1 5722   3.700   4.175   6.730
18418TIP3    H2 5723   3.748   4.168   6.586
18419TIP3   OH2 5724   3.103   4.390   6.552
18419TIP3    H1 5725   3.110   4.295   6.566
18419TIP3    H2 5726   3.104   4.400   6.457
18420TIP3   OH2 5727   2.464   4.210   6.306
18420TIP3    H1 5728   2.471   4.294   6.261
18420TIP3    H2 5729   2.415   4.155   6.245
18421TIP3   OH2 5730   3.251   4.225   6.139
18421TIP3    H1 5731   3.287   4.195   6.223
18421TIP3    H2 5732   3.324   4.269   6.096
18422TIP3   OH2 5733   2.096   4.454   6.376
18422TIP3    H1 5734   2.163   4.405   6.424
18422TIP3    H2 5735   2.144   4.495   6.303
18423TIP3   OH2 5736   2.595   4.608   6.348
18423TIP3    H1 5737   2.678   4.574   6.380
18423TIP3    H2 5738   2.564   4.542   6.285
18424TIP3   OH2 5739   3.705   4.276   6.879
18424TIP3    H1 5740   3.638   4.343   6.862
18424TIP3    H2 5741   3.740   4.299   6.965
18425TIP3   OH2 5742   2.331   4.116   6.720
18425TIP3    H1 5743   2.299   4.183   6.659
18425TIP3    H2 5744   2.268   4.118   6.793
18426TIP3   OH2 5745   3.070   5.074   6.040
18426TIP3    H1 5746   3.050   5.068   5.946
18426TIP3    H2 5747   3.023   5.151   6.069
18427TIP3   OH2 5748   2.586   4.886   6.702
18427TIP3    H1 5749   2.533   4.961   6.731
18427TIP3    H2 5750   2.662   4.926   6.659
18428TIP3   OH2 5751   3.340   4.173   6.389
18428TIP3    H1 5752   3.266   4.146   6.443
18428TIP3    H2 5753   3.391   4.231   6.444
18429TIP3   OH2 5754   2.287   4.293   6.507
18429TIP3    H1 5755   2.339   4.351   6.563
18429TIP3    H2 5756   2.350   4.260   6.443
18430TIP3   OH2 5757   2.429   5.103   6.786
18430TIP3    H1 5758   2.442   5.197   6.792
18430TIP3    H2 5759   2.343   5.089   6.826
18431TIP3   OH2 5760   2.002   5.069   5.904
18431TIP3    H1 5761   2.004   5.117   5.821
18431TIP3    H2 5762   2.029   5.134   5.969
18432TIP3   OH2 5763   3.374   5.239   6.549
18432TIP3    H1 5764   3.281   5.238   6.574
18432TIP3    H2 5765   3.392   5.330   6.526
18433TIP3   OH2 5766   3.453   3.986   6.652
18433TIP3    H1 5767   3.423   4.034   6.728
18433TIP3    H2 5768   3.539   4.022   6.631
18434TIP3   OH2 5769   2.669   3.808   6.454
18434TIP3    H1 5770   2.654   3.715   6.472
18434TIP3    H2 5771   2.592   3.852   6.488
18435TIP3   OH2 5772   3.204   5.369   6.201
18435TIP3    H1 5773   3.251   5.290   6.175
18435TIP3    H2 5774   3.269   5.439   6.197
18436TIP3   OH2 5775   3.335   5.145   6.106
18436TIP3    H1 5776   3.252   5.105   6.079
18436TIP3    H2 5777   3.357   5.100   6.187
18437TIP3   OH2 5778   3.489   5.027   6.924
18437TIP3    H1 5779   3.484   4.958   6.858
18437TIP3    H2 5780   3.504   5.107   6.873
18438TIP3   OH2 5781   2.947   4.711   5.912
18438TIP3    H1 5782   2.880   4.773   5.884
18438TIP3    H2 5783   3.014   4.715   5.843
18439TIP3   OH2 5784   2.976   4.557   5.562
18439TIP3    H1 5785   3.023   4.614   5.622
18439TIP3    H2 5786   3.045   4.503   5.522
18440TIP3   OH2 5787   3.660   4.673   6.742
18440TIP3    H1 5788   3.587   4.735   6.743
18440TIP3    H2 5789   3.720   4.706   6.675
18441TIP3   OH2 5790   3.314   4.741   5.982
18441TIP3    H1 5791   3.245   4.767   6.043
18441TIP3    H2 5792   3.378   4.696   6.037
18442TIP3   OH2 5793   3.266   4.524   6.943
18442TIP3    H1 5794   3.274   4.595   7.007
18442TIP3    H2 5795   3.197   4.554   6.883
18443TIP3   OH2 5796   2.502   4.803   6.158
18443TIP3    H1 5797   2.416   4.762   6.146
18443TIP3    H2 5798   2.544   4.752   6.227
18444TIP3   OH2 5799   2.635   5.152   6.451
18444TIP3    H1 5800   2.637   5.132   6.357
18444TIP3    H2 5801   2.700   5.093   6.490
18445TIP3   OH2 5802   2.442   4.695   6.564
18445TIP3    H1 5803   2.497   4.674   6.488
18445TIP3    H2 5804   2.492   4.761   6.612
18446TIP3   OH2 5805   3.117   5.245   6.643
18446TIP3    H1 5806   3.104   5.321   6.698
18446TIP3    H2 5807   3.073   5.174   6.689
18447TIP3   OH2 5808   2.596   5.115   7.024
18447TIP3    H1 5809   2.531   5.169   7.068
18447TIP3    H2 5810   2.555   5.089   6.942
18448TIP3   OH2 5811   3.182   4.672   5.750
18448TIP3    H1 5812   3.226   4.708   5.827
18448TIP3    H2 5813   3.250   4.672   5.682
18449TIP3   OH2 5814   2.295   4.736   6.984
18449TIP3    H1 5815   2.301   4.814   7.039
18449TIP3    H2 5816   2.202   4.714   6.985
18450TIP3   OH2 5817   2.960   5.323   6.081
18450TIP3    H1 5818   3.035   5.349   6.134
18450TIP3    H2 5819   2.930   5.404   6.040
18451TIP3   OH2 5820   2.386   5.270   7.103
18451TIP3    H1 5821   2.379   5.327   7.027
18451TIP3    H2 5822   2.304   5.282   7.150
18452TIP3   OH2 5823   3.529   3.831   5.746
18452TIP3    H1 5824   3.447   3.856   5.790
18452TIP3    H2 5825   3.571   3.914   5.725
18453TIP3   OH2 5826   2.358   4.684   5.836
18453TIP3    H1 5827   2.295   4.754   5.820
18453TIP3    H2 5828   2.339   4.655   5.925
18454TIP3   OH2 5829   3.661   5.281   5.582
18454TIP3    H1 5830   3.681   5.372   5.606
18454TIP3    H2 5831   3.739   5.232   5.608
18455TIP3   OH2 5832   1.990   4.908   6.860
18455TIP3    H1 5833   1.983   4.882   6.768
18455TIP3    H2 5834   2.007   4.825   6.906
18456TIP3   OH2 5835   2.001   5.211   6.533
18456TIP3    H1 5836   2.087   5.173   6.518
18456TIP3    H2 5837   2.013   5.269   6.608
18457TIP3   OH2 5838   3.729   5.333   7.132
18457TIP3    H1 5839   3.732   5.238   7.126
18457TIP3    H2 5840   3.641   5.353   7.162
18458TIP3   OH2 5841   2.825   5.271   6.976
18458TIP3    H1 5842   2.817   5.349   7.030
18458TIP3    H2 5843   2.751   5.216   7.000
18459TIP3   OH2 5844   2.930   5.576   5.953
18459TIP3    H1 5845   2.897   5.592   5.865
18459TIP3    H2 5846   2.907   5.656   6.001
18460TIP3   OH2 5847   2.261   5.476   6.161
18460TIP3    H1 5848   2.288   5.444   6.247
18460TIP3    H2 5849   2.211   5.404   6.122
18461TIP3   OH2 5850   3.202   5.517   5.646
18461TIP3    H1 5851   3.265   5.450   5.620
18461TIP3    H2 5852   3.214   5.526   5.741
18462TIP3   OH2 5853   3.205   5.544   5.923
18462TIP3    H1 5854   3.111   5.543   5.944
18462TIP3    H2 5855   3.248   5.519   6.004
18463TIP3   OH2 5856   3.496   4.376   7.116
18463TIP3    H1 5857   3.407   4.409   7.104
18463TIP3    H2 5858   3.487   4.309   7.184
18464TIP3   OH2 5859   2.183   5.102   6.916
18464TIP3    H1 5860   2.214   5.073   7.001
18464TIP3    H2 5861   2.113   5.041   6.894
18465TIP3   OH2 5862   2.430   3.920   6.550
18465TIP3    H1 5863   2.350   3.916   6.497
18465TIP3    H2 5864   2.415   3.994   6.609
18466TIP3   OH2 5865   2.936   3.877   6.924
18466TIP3    H1 5866   2.984   3.826   6.989
18466TIP3    H2 5867   2.846   3.880   6.957
18467TIP3   OH2 5868   3.218   4.251   6.959
18467TIP3    H1 5869   3.152   4.240   7.027
18467TIP3    H2 5870   3.229   4.346   6.950
18468TIP3   OH2 5871   3.203   4.785   5.399
18468TIP3    H1 5872   3.230   4.759   5.311
18468TIP3    H2 5873   3.271   4.749   5.456
18469TIP3   OH2 5874   2.930   4.074   5.622
18469TIP3    H1 5875   2.866   4.091   5.691
18469TIP3    H2 5876   2.939   3.978   5.621
18470TIP3   OH2 5877   2.447   4.444   6.675
18470TIP3    H1 5878   2.435   4.460   6.769
18470TIP3    H2 5879   2.444   4.531   6.635
18471TIP3   OH2 5880   2.473   4.437   6.157
18471TIP3    H1 5881   2.400   4.498   6.156
18471TIP3    H2 5882   2.480   4.406   6.067
18472TIP3   OH2 5883   2.990   4.462   6.023
18472TIP3    H1 5884   2.967   4.550   5.995
18472TIP3    H2 5885   3.064   4.438   5.968
18473TIP3   OH2 5886   2.904   4.496   7.170
18473TIP3    H1 5887   2.857   4.422   7.209
18473TIP3    H2 5888   2.988   4.499   7.217
18474TIP3   OH2 5889   3.095   4.411   6.281
18474TIP3    H1 5890   3.045   4.451   6.210
18474TIP3    H2 5891   3.139   4.336   6.240
18475TIP3   OH2 5892   2.190   4.424   6.882
18475TIP3    H1 5893   2.254   4.448   6.950
18475TIP3    H2 5894   2.178   4.329   6.894
18476TIP3   OH2 5895   2.418   4.167   5.494
18476TIP3    H1 5896   2.458   4.150   5.579
18476TIP3    H2 5897   2.418   4.262   5.487
18477TIP3   OH2 5898   1.919   4.119   6.252
18477TIP3    H1 5899   1.952   4.137   6.341
18477TIP3    H2 5900   1.978   4.166   6.194
18478TIP3   OH2 5901   1.956   4.267   5.794
18478TIP3    H1 5902   2.004   4.310   5.723
18478TIP3    H2 5903   1.959   4.330   5.866
18479TIP3   OH2 5904   3.050   4.558   6.759
18479TIP3    H1 5905   3.077   4.500   6.689
18479TIP3    H2 5906   2.988   4.507   6.811
18480TIP3   OH2 5907   2.735   4.150   6.232
18480TIP3    H1 5908   2.650   4.169   6.271
18480TIP3    H2 5909   2.787   4.114   6.303
18481TIP3   OH2 5910   2.100   4.230   6.083
18481TIP3    H1 5911   2.099   4.322   6.056
18481TIP3    H2 5912   2.193   4.205   6.083
18482TIP3   OH2 5913   2.510   4.330   5.900
18482TIP3    H1 5914   2.603   4.336   5.923
18482TIP3    H2 5915   2.504   4.374   5.815
18483TIP3   OH2 5916   3.107   4.114   6.526
18483TIP3    H1 5917   3.098   4.094   6.620
18483TIP3    H2 5918   3.030   4.076   6.486
18484TIP3   OH2 5919   2.488   4.418   5.638
18484TIP3    H1 5920   2.414   4.477   5.632
18484TIP3    H2 5921   2.562   4.469   5.604
18485TIP3   OH2 5922   3.484   5.659   7.199
18485TIP3    H1 5923   3.503   5.688   7.110
18485TIP3    H2 5924   3.551   5.701   7.253
18486TIP3   OH2 5925   2.248   4.955   7.154
18486TIP3    H1 5926   2.313   4.952   7.224
18486TIP3    H2 5927   2.164   4.948   7.199
18487TIP3   OH2 5928   2.824   4.491   6.459
18487TIP3    H1 5929   2.903   4.444   6.431
18487TIP3    H2 5930   2.791   4.440   6.533
18488TIP3   OH2 5931   2.334   4.061   6.112
18488TIP3    H1 5932   2.269   3.993   6.129
18488TIP3    H2 5933   2.403   4.018   6.061
18489TIP3   OH2 5934   2.719   4.357   6.683
18489TIP3    H1 5935   2.635   4.401   6.692
18489TIP3    H2 5936   2.768   4.381   6.762
18490TIP3   OH2 5937   2.766   4.905   5.825
18490TIP3    H1 5938   2.698   4.872   5.766
18490TIP3    H2 5939   2.717   4.946   5.897
18491TIP3   OH2 5940   3.468   4.866   6.695
18491TIP3    H1 5941   3.530   4.925   6.651
18491TIP3    H2 5942   3.398   4.852   6.632
18492TIP3   OH2 5943   3.191   4.197   5.670
18492TIP3    H1 5944   3.101   4.171   5.650
18492TIP3    H2 5945   3.182   4.271   5.729
18493TIP3   OH2 5946   2.908   4.932   7.019
18493TIP3    H1 5947   2.956   4.884   7.087
18493TIP3    H2 5948   2.841   4.981   7.067
18494TIP3   OH2 5949   3.207   4.407   5.849
18494TIP3    H1 5950   3.292   4.399   5.892
18494TIP3    H2 5951   3.207   4.495   5.811
18495TIP3   OH2 5952   2.265   4.856   6.414
18495TIP3    H1 5953   2.257   4.810   6.330
18495TIP3    H2 5954   2.316   4.796   6.469
18496TIP3   OH2 5955   2.985   5.069   5.771
18496TIP3    H1 5956   2.944   5.155   5.774
18496TIP3    H2 5957   2.914   5.008   5.791
18497TIP3   OH2 5958   2.024   4.682   7.022
18497TIP3    H1 5959   2.031   4.668   7.117
18497TIP3    H2 5960   1.991   4.599   6.988
18498TIP3   OH2 5961   2.709   4.698   7.179
18498TIP3    H1 5962   2.649   4.658   7.117
18498TIP3    H2 5963   2.788   4.644   7.174
18499TIP3   OH2 5964   3.099   5.230   7.005
18499TIP3    H1 5965   3.012   5.237   6.967
18499TIP3    H2 5966   3.084   5.232   7.100
18500TIP3   OH2 5967   3.665   4.439   5.818
18500TIP3    H1 5968   3.641   4.409   5.730
18500TIP3    H2 5969   3.679   4.533   5.808
18501TIP3   OH2 5970   3.711   5.060   7.085
18501TIP3    H1 5971   3.623   5.040   7.054
18501TIP3    H2 5972   3.769   5.031   7.014
18502TIP3   OH2 5973   3.504   5.281   5.915
18502TIP3    H1 5974   3.452   5.236   5.982
18502TIP3    H2 5975   3.500   5.223   5.839
18503TIP3   OH2 5976   3.266   4.805   6.502
18503TIP3    H1 5977   3.170   4.798   6.511
18503TIP3    H2 5978   3.292   4.725   6.458
18504TIP3   OH2 5979   2.536   5.232   6.176
18504TIP3    H1 5980   2.552   5.318   6.136
18504TIP3    H2 5981   2.471   5.250   6.245
18505TIP3   OH2 5982   2.070   4.699   5.605
18505TIP3    H1 5983   2.118   4.759   5.662
18505TIP3    H2 5984   1.981   4.698   5.641
18506TIP3   OH2 5985   2.591   5.019   6.008
18506TIP3    H1 5986   2.579   5.092   6.069
18506TIP3    H2 5987   2.559   4.943   6.055
18507TIP3   OH2 5988   2.722   5.402   6.757
18507TIP3    H1 5989   2.780   5.475   6.738
18507TIP3    H2 5990   2.770   5.350   6.822
18508TIP3   OH2 5991   2.522   5.493   6.066
18508TIP3    H1 5992   2.431   5.502   6.092
18508TIP3    H2 5993   2.566   5.568   6.106
18509TIP3   OH2 5994   3.013   5.014   6.776
18509TIP3    H1 5995   2.969   4.996   6.859
18509TIP3    H2 5996   3.091   4.959   6.777
18510TIP3   OH2 5997   3.260   5.114   5.686
18510TIP3    H1 5998   3.319   5.054   5.733
18510TIP3    H2 5999   3.174   5.100   5.728
18511TIP3   OH2 6000   3.315   5.391   6.943
18511TIP3    H1 6001   3.238   5.336   6.960
18511TIP3    H2 6002   3.282   5.460   6.886
18512TIP3   OH2 6003   3.728   5.539   5.663
18512TIP3    H1 6004   3.788   5.613   5.662
18512TIP3    H2 6005   3.642   5.578   5.680
18513TIP3   OH2 6006   2.148   4.136   6.931
18513TIP3    H1 6007   2.074   4.174   6.978
18513TIP3    H2 6008   2.165   4.053   6.975
18514TIP3   OH2 6009   3.427   4.951   5.834
18514TIP3    H1 6010   3.381   4.884   5.886
18514TIP3    H2 6011   3.519   4.942   5.858
18515TIP3   OH2 6012   2.107   5.374   6.744
18515TIP3    H1 6013   2.141   5.304   6.800
18515TIP3    H2 6014   2.122   5.454   6.794
18516TIP3   OH2 6015   2.700   5.137   5.518
18516TIP3    H1 6016   2.786   5.095   5.528
18516TIP3    H2 6017   2.668   5.148   5.607
18517TIP3   OH2 6018   2.556   5.162   5.766
18517TIP3    H1 6019   2.569   5.115   5.848
18517TIP3    H2 6020   2.571   5.254   5.789
18518TIP3   OH2 6021   2.178   4.888   5.776
18518TIP3    H1 6022   2.121   4.927   5.842
18518TIP3    H2 6023   2.229   4.962   5.741
18519TIP3   OH2 6024   3.074   4.078   6.791
18519TIP3    H1 6025   3.123   4.131   6.854
18519TIP3    H2 6026   3.028   4.013   6.845
18520TIP3   OH2 6027   3.106   4.075   5.963
18520TIP3    H1 6028   3.115   4.134   5.888
18520TIP3    H2 6029   3.147   4.122   6.036
18521TIP3   OH2 6030   2.853   5.304   5.757
18521TIP3    H1 6031   2.768   5.332   5.792
18521TIP3    H2 6032   2.898   5.385   5.734
18522TIP3   OH2 6033   2.768   4.301   5.998
18522TIP3    H1 6034   2.841   4.362   6.009
18522TIP3    H2 6035   2.755   4.263   6.085
18523TIP3   OH2 6036   2.888   4.392   6.910
18523TIP3    H1 6037   2.883   4.437   6.994
18523TIP3    H2 6038   2.909   4.302   6.932
18524TIP3   OH2 6039   2.863   3.965   6.060
18524TIP3    H1 6040   2.830   4.030   6.123
18524TIP3    H2 6041   2.954   3.991   6.045
18525TIP3   OH2 6042   2.612   5.429   5.815
18525TIP3    H1 6043   2.616   5.511   5.766
18525TIP3    H2 6044   2.582   5.455   5.902
18526TIP3   OH2 6045   2.485   4.085   5.763
18526TIP3    H1 6046   2.457   4.162   5.812
18526TIP3    H2 6047   2.578   4.076   5.784
18527TIP3   OH2 6048   3.447   4.111   6.901
18527TIP3    H1 6049   3.365   4.154   6.925
18527TIP3    H2 6050   3.515   4.176   6.920
18528TIP3   OH2 6051   3.331   4.552   6.381
18528TIP3    H1 6052   3.246   4.512   6.362
18528TIP3    H2 6053   3.373   4.490   6.442
18529TIP3   OH2 6054   2.304   5.106   5.658
18529TIP3    H1 6055   2.376   5.141   5.710
18529TIP3    H2 6056   2.347   5.064   5.583
18530TIP3   OH2 6057   2.060   4.418   5.588
18530TIP3    H1 6058   2.095   4.504   5.611
18530TIP3    H2 6059   1.984   4.437   5.533
18531TIP3   OH2 6060   3.455   5.506   6.527
18531TIP3    H1 6061   3.439   5.579   6.468
18531TIP3    H2 6062   3.548   5.513   6.550
18532TIP3   OH2 6063   2.180   3.896   6.432
18532TIP3    H1 6064   2.175   3.891   6.337
18532TIP3    H2 6065   2.158   3.808   6.462
18533TIP3   OH2 6066   2.062   5.293   6.064
18533TIP3    H1 6067   2.019   5.322   6.145
18533TIP3    H2 6068   2.038   5.359   5.999
18534TIP3   OH2 6069   2.008   5.555   7.209
18534TIP3    H1 6070   2.081   5.504   7.244
18534TIP3    H2 6071   1.946   5.489   7.178
18535TIP3   OH2 6072   2.874   5.357   5.442
18535TIP3    H1 6073   2.795   5.307   5.463
18535TIP3    H2 6074   2.945   5.293   5.448
18536TIP3   OH2 6075   3.059   5.206   7.278
18536TIP3    H1 6076   3.076   5.112   7.281
18536TIP3    H2 6077   3.134   5.246   7.321
18537TIP3   OH2 6078   3.371   5.319   5.542
18537TIP3    H1 6079   3.331   5.245   5.589
18537TIP3    H2 6080   3.465   5.306   5.551
18538TIP3   OH2 6081   2.001   4.916   7.279
18538TIP3    H1 6082   2.006   4.823   7.298
18538TIP3    H2 6083   1.928   4.924   7.217
18539TIP3   OH2 6084   2.469   4.981   5.474
18539TIP3    H1 6085   2.494   4.910   5.534
18539TIP3    H2 6086   2.546   5.037   5.471
18540TIP3   OH2 6087   2.656   4.966   7.247
18540TIP3    H1 6088   2.633   5.004   7.163
18540TIP3    H2 6089   2.681   4.876   7.227
18541TIP3   OH2 6090   2.999   5.048   5.491
18541TIP3    H1 6091   3.010   5.059   5.585
18541TIP3    H2 6092   3.039   4.963   5.472
18542TIP3   OH2 6093   3.235   4.979   7.018
18542TIP3    H1 6094   3.324   5.003   6.992
18542TIP3    H2 6095   3.184   5.059   7.005
18543TIP3   OH2 6096   2.043   4.621   7.312
18543TIP3    H1 6097   2.118   4.567   7.288
18543TIP3    H2 6098   2.038   4.615   7.407
18544TIP3   OH2 6099   2.560   4.786   5.667
18544TIP3    H1 6100   2.498   4.750   5.731
18544TIP3    H2 6101   2.605   4.710   5.632
18545TIP3   OH2 6102   2.467   4.529   6.937
18545TIP3    H1 6103   2.408   4.599   6.965
18545TIP3    H2 6104   2.547   4.574   6.912
18546TIP3   OH2 6105   2.694   4.574   5.538
18546TIP3    H1 6106   2.685   4.571   5.443
18546TIP3    H2 6107   2.788   4.567   5.554
18547TIP3   OH2 6108   3.015   4.820   7.250
18547TIP3    H1 6109   3.102   4.831   7.289
18547TIP3    H2 6110   2.970   4.761   7.311
18548TIP3   OH2 6111   3.653   4.766   5.403
18548TIP3    H1 6112   3.590   4.718   5.455
18548TIP3    H2 6113   3.637   4.858   5.423
18549TIP3   OH2 6114   2.596   4.297   7.045
18549TIP3    H1 6115   2.590   4.234   6.973
18549TIP3    H2 6116   2.540   4.370   7.018
18550TIP3   OH2 6117   2.591   4.134   6.811
18550TIP3    H1 6118   2.640   4.192   6.752
18550TIP3    H2 6119   2.501   4.136   6.777
18551TIP3   OH2 6120   2.681   4.676   6.858
18551TIP3    H1 6121   2.769   4.703   6.884
18551TIP3    H2 6122   2.648   4.749   6.806
18552TIP3   OH2 6123   3.131   4.436   7.369
18552TIP3    H1 6124   3.154   4.345   7.350
18552TIP3    H2 6125   3.204   4.470   7.421
18553TIP3   OH2 6126   3.311   4.733   7.119
18553TIP3    H1 6127   3.270   4.813   7.086
18553TIP3    H2 6128   3.405   4.748   7.110
18554TIP3   OH2 6129   2.245   4.441   7.249
18554TIP3    H1 6130   2.225   4.347   7.248
18554TIP3    H2 6131   2.317   4.449   7.312
18555TIP3   OH2 6132   2.642   3.870   6.886
18555TIP3    H1 6133   2.627   3.962   6.864
18555TIP3    H2 6134   2.567   3.824   6.849
18556TIP3   OH2 6135   2.778   4.263   7.248
18556TIP3    H1 6136   2.735   4.236   7.328
18556TIP3    H2 6137   2.707   4.270   7.184
18557TIP3   OH2 6138   3.025   4.200   7.141
18557TIP3    H1 6139   2.938   4.211   7.180
18557TIP3    H2 6140   3.076   4.155   7.208
18558TIP3   OH2 6141   3.209   4.113   7.339
18558TIP3    H1 6142   3.209   4.018   7.325
18558TIP3    H2 6143   3.170   4.124   7.425
18559TIP3   OH2 6144   2.164   4.171   7.249
18559TIP3    H1 6145   2.211   4.095   7.214
18559TIP3    H2 6146   2.163   4.157   7.344
18560TIP3   OH2 6147   2.647   3.814   7.154
18560TIP3    H1 6148   2.699   3.735   7.163
18560TIP3    H2 6149   2.646   3.832   7.060
18561TIP3   OH2 6150   2.722   3.914   7.409
18561TIP3    H1 6151   2.692   3.898   7.319
18561TIP3    H2 6152   2.693   4.003   7.429
18562TIP3   OH2 6153   2.675   5.660   5.663
18562TIP3    H1 6154   2.765   5.629   5.653
18562TIP3    H2 6155   2.679   5.752   5.637
18563TIP3   OH2 6156   2.028   5.153   5.630
18563TIP3    H1 6157   2.123   5.156   5.646
18563TIP3    H2 6158   2.019   5.105   5.548
18564TIP3   OH2 6159   1.899   5.612   6.143
18564TIP3    H1 6160   1.834   5.580   6.081
18564TIP3    H2 6161   1.915   5.538   6.202
18565TIP3   OH2 6162   1.967   5.400   6.311
18565TIP3    H1 6163   1.943   5.324   6.364
18565TIP3    H2 6164   2.017   5.455   6.370
18566TIP3   OH2 6165   3.712   5.524   6.631
18566TIP3    H1 6166   3.719   5.479   6.715
18566TIP3    H2 6167   3.741   5.613   6.649
18567TIP3   OH2 6168   3.747   5.376   6.860
18567TIP3    H1 6169   3.667   5.329   6.836
18567TIP3    H2 6170   3.748   5.374   6.955
18568TIP3   OH2 6171   3.566   4.995   7.370
18568TIP3    H1 6172   3.491   5.013   7.427
18568TIP3    H2 6173   3.591   5.081   7.335
18569TIP3   OH2 6174   3.690   4.890   5.911
18569TIP3    H1 6175   3.759   4.955   5.921
18569TIP3    H2 6176   3.703   4.830   5.984
18570TIP3   OH2 6177   3.733   4.696   6.105
18570TIP3    H1 6178   3.648   4.666   6.136
18570TIP3    H2 6179   3.783   4.711   6.185
18571TIP3   OH2 6180   3.706   5.003   6.632
18571TIP3    H1 6181   3.760   4.938   6.588
18571TIP3    H2 6182   3.726   5.085   6.588
18572TIP3   OH2 6183   3.508   5.266   6.791
18572TIP3    H1 6184   3.440   5.312   6.840
18572TIP3    H2 6185   3.469   5.251   6.705
18573TIP3   OH2 6186   3.696   4.695   5.718
18573TIP3    H1 6187   3.609   4.688   5.678
18573TIP3    H2 6188   3.687   4.768   5.781
18574TIP3   OH2 6189   3.625   4.380   5.548
18574TIP3    H1 6190   3.574   4.460   5.539
18574TIP3    H2 6191   3.562   4.309   5.534
18575TIP3   OH2 6192   3.477   4.584   6.148
18575TIP3    H1 6193   3.470   4.493   6.118
18575TIP3    H2 6194   3.432   4.584   6.233
18576TIP3   OH2 6195   1.965   4.786   6.583
18576TIP3    H1 6196   1.970   4.774   6.488
18576TIP3    H2 6197   2.040   4.738   6.617
18577TIP3   OH2 6198   3.581   4.770   7.110
18577TIP3    H1 6199   3.634   4.691   7.115
18577TIP3    H2 6200   3.617   4.827   7.178
18578TIP3   OH2 6201   3.721   4.531   7.113
18578TIP3    H1 6202   3.636   4.487   7.118
18578TIP3    H2 6203   3.785   4.464   7.135
18579TIP3   OH2 6204   3.444   4.172   5.545
18579TIP3    H1 6205   3.505   4.114   5.590
18579TIP3    H2 6206   3.362   4.163   5.594
18580TIP3   OH2 6207   3.460   4.334   5.982
18580TIP3    H1 6208   3.488   4.243   5.983
18580TIP3    H2 6209   3.528   4.379   5.932
18581TIP3   OH2 6210   3.476   4.365   6.537
18581TIP3    H1 6211   3.570   4.368   6.520
18581TIP3    H2 6212   3.467   4.384   6.630
18582TIP3   OH2 6213   3.503   4.451   6.802
18582TIP3    H1 6214   3.426   4.475   6.855
18582TIP3    H2 6215   3.551   4.532   6.791
18583TIP3   OH2 6216   1.948   4.266   7.101
18583TIP3    H1 6217   2.021   4.252   7.161
18583TIP3    H2 6218   1.896   4.185   7.107
18584TIP3   OH2 6219   3.706   3.821   7.335
18584TIP3    H1 6220   3.788   3.799   7.289
18584TIP3    H2 6221   3.716   3.914   7.358
18585TIP3   OH2 6222   3.523   4.059   5.988
18585TIP3    H1 6223   3.546   4.025   6.074
18585TIP3    H2 6224   3.449   4.006   5.959
18586TIP3   OH2 6225   2.047   4.134   6.500
18586TIP3    H1 6226   2.092   4.050   6.489
18586TIP3    H2 6227   2.118   4.198   6.507
18587TIP3   OH2 6228   1.863   4.426   6.529
18587TIP3    H1 6229   1.938   4.421   6.470
18587TIP3    H2 6230   1.894   4.480   6.602
18588TIP3   OH2 6231   3.688   4.073   7.142
18588TIP3    H1 6232   3.614   4.100   7.197
18588TIP3    H2 6233   3.655   4.000   7.091
18589TIP3   OH2 6234   3.676   4.043   5.633
18589TIP3    H1 6235   3.746   3.979   5.625
18589TIP3    H2 6236   3.716   4.118   5.676
18590TIP3   OH2 6237   1.951   4.008   5.896
18590TIP3    H1 6238   1.946   4.011   5.991
18590TIP3    H2 6239   1.961   4.100   5.870
18591TIP3   OH2 6240   3.383   5.566   6.155
18591TIP3    H1 6241   3.465   5.566   6.105
18591TIP3    H2 6242   3.398   5.630   6.225
18592TIP3   OH2 6243   1.910   3.860   6.748
18592TIP3    H1 6244   1.853   3.851   6.824
18592TIP3    H2 6245   1.887   3.944   6.710
18593TIP3   OH2 6246   2.130   5.299   7.234
18593TIP3    H1 6247   2.050   5.294   7.182
18593TIP3    H2 6248   2.112   5.248   7.313
18594TIP3   OH2 6249   2.459   5.374   6.831
18594TIP3    H1 6250   2.430   5.463   6.812
18594TIP3    H2 6251   2.553   5.375   6.816
18595TIP3   OH2 6252   2.823   5.505   7.126
18595TIP3    H1 6253   2.824   5.470   7.215
18595TIP3    H2 6254   2.904   5.555   7.118
18596TIP3   OH2 6255   3.060   5.644   7.103
18596TIP3    H1 6256   3.135   5.605   7.059
18596TIP3    H2 6257   3.097   5.689   7.179
18597TIP3   OH2 6258   3.575   3.876   6.963
18597TIP3    H1 6259   3.521   3.950   6.936
18597TIP3    H2 6260   3.537   3.800   6.919
18598TIP3   OH2 6261   2.151   5.631   6.855
18598TIP3    H1 6262   2.076   5.680   6.820
18598TIP3    H2 6263   2.167   5.671   6.941
18599TIP3   OH2 6264   2.413   5.638   6.767
18599TIP3    H1 6265   2.321   5.643   6.795
18599TIP3    H2 6266   2.416   5.689   6.686
18600TIP3   OH2 6267   2.870   5.619   6.677
18600TIP3    H1 6268   2.817   5.662   6.610
18600TIP3    H2 6269   2.881   5.685   6.745
18601TIP3   OH2 6270   3.106   5.495   6.757
18601TIP3    H1 6271   3.024   5.536   6.729
18601TIP3    H2 6272   3.172   5.564   6.745
18602TIP3   OH2 6273   3.349   5.634   6.749
18602TIP3    H1 6274   3.364   5.723   6.716
18602TIP3    H2 6275   3.381   5.577   6.679
18603TIP3   OH2 6276   2.136   5.520   6.500
18603TIP3    H1 6277   2.113   5.481   6.584
18603TIP3    H2 6278   2.214   5.473   6.472
18604TIP3   OH2 6279   2.349   5.371   6.400
18604TIP3    H1 6280   2.328   5.284   6.436
18604TIP3    H2 6281   2.431   5.395   6.443
18605TIP3   OH2 6282   2.599   5.419   6.512
18605TIP3    H1 6283   2.620   5.330   6.481
18605TIP3    H2 6284   2.632   5.421   6.601
18606TIP3   OH2 6285   2.889   3.985   6.391
18606TIP3    H1 6286   2.830   3.916   6.419
18606TIP3    H2 6287   2.964   3.939   6.353
18607TIP3   OH2 6288   3.411   3.862   6.383
18607TIP3    H1 6289   3.479   3.905   6.331
18607TIP3    H2 6290   3.402   3.917   6.460
18608TIP3   OH2 6291   3.620   3.936   6.215
18608TIP3    H1 6292   3.680   3.864   6.198
18608TIP3    H2 6293   3.677   4.011   6.235
18609TIP3   OH2 6294   2.170   3.840   6.159
18609TIP3    H1 6295   2.077   3.821   6.145
18609TIP3    H2 6296   2.212   3.754   6.159
18610TIP3   OH2 6297   2.004   3.900   5.650
18610TIP3    H1 6298   2.097   3.920   5.642
18610TIP3    H2 6299   1.982   3.926   5.740
18611TIP3   OH2 6300   2.648   3.806   6.170
18611TIP3    H1 6301   2.719   3.861   6.138
18611TIP3    H2 6302   2.654   3.813   6.266
18612TIP3   OH2 6303   3.113   3.863   6.291
18612TIP3    H1 6304   3.204   3.880   6.314
18612TIP3    H2 6305   3.099   3.772   6.318
18613TIP3   OH2 6306   3.311   3.897   5.899
18613TIP3    H1 6307   3.238   3.955   5.923
18613TIP3    H2 6308   3.277   3.809   5.913
18614TIP3   OH2 6309   2.004   5.484   5.877
18614TIP3    H1 6310   1.947   5.492   5.801
18614TIP3    H2 6311   2.015   5.574   5.908
18615TIP3   OH2 6312   2.272   3.960   5.618
18615TIP3    H1 6313   2.298   4.026   5.553
18615TIP3    H2 6314   2.324   3.981   5.696
18616TIP3   OH2 6315   2.753   4.082   5.835
18616TIP3    H1 6316   2.784   4.023   5.903
18616TIP3    H2 6317   2.755   4.169   5.875
18617TIP3   OH2 6318   2.928   5.548   5.642
18617TIP3    H1 6319   3.023   5.556   5.644
18617TIP3    H2 6320   2.909   5.496   5.564
18618TIP3   OH2 6321   3.595   5.536   5.973
18618TIP3    H1 6322   3.569   5.446   5.952
18618TIP3    H2 6323   3.573   5.587   5.896
18619TIP3   OH2 6324   2.177   3.891   7.075
18619TIP3    H1 6325   2.105   3.847   7.122
18619TIP3    H2 6326   2.256   3.861   7.121
18620TIP3   OH2 6327   2.381   3.779   7.221
18620TIP3    H1 6328   2.471   3.804   7.198
18620TIP3    H2 6329   2.391   3.719   7.295
18621TIP3   OH2 6330   2.201   5.593   5.500
18621TIP3    H1 6331   2.173   5.522   5.557
18621TIP3    H2 6332   2.251   5.652   5.557
18622TIP3   OH2 6333   3.219   3.840   7.307
18622TIP3    H1 6334   3.214   3.794   7.391
18622TIP3    H2 6335   3.307   3.821   7.274
18623TIP3   OH2 6336   3.461   5.385   7.185
18623TIP3    H1 6337   3.413   5.378   7.103
18623TIP3    H2 6338   3.467   5.479   7.202
18624TIP3   OH2 6339   4.979   4.816   6.119
18624TIP3    H1 6340   4.964   4.908   6.096
18624TIP3    H2 6341   4.916   4.798   6.189
18625TIP3   OH2 6342   4.852   4.714   6.531
18625TIP3    H1 6343   4.876   4.681   6.618
18625TIP3    H2 6344   4.800   4.644   6.492
18626TIP3   OH2 6345   4.062   4.653   6.695
18626TIP3    H1 6346   4.060   4.565   6.730
18626TIP3    H2 6347   4.102   4.706   6.764
18627TIP3   OH2 6348   5.238   5.036   6.359
18627TIP3    H1 6349   5.203   4.960   6.406
18627TIP3    H2 6350   5.256   5.100   6.427
18628TIP3   OH2 6351   4.214   5.099   6.500
18628TIP3    H1 6352   4.181   5.017   6.463
18628TIP3    H2 6353   4.239   5.077   6.590
18629TIP3   OH2 6354   3.869   4.467   6.013
18629TIP3    H1 6355   3.843   4.550   6.053
18629TIP3    H2 6356   3.798   4.446   5.953
18630TIP3   OH2 6357   3.924   4.707   6.312
18630TIP3    H1 6358   3.949   4.618   6.335
18630TIP3    H2 6359   4.003   4.759   6.326
18631TIP3   OH2 6360   4.988   5.481   6.417
18631TIP3    H1 6361   5.012   5.429   6.341
18631TIP3    H2 6362   4.969   5.417   6.486
18632TIP3   OH2 6363   4.714   4.962   6.561
18632TIP3    H1 6364   4.750   4.878   6.532
18632TIP3    H2 6365   4.780   4.997   6.620
18633TIP3   OH2 6366   5.560   4.148   6.636
18633TIP3    H1 6367   5.551   4.178   6.727
18633TIP3    H2 6368   5.584   4.227   6.587
18634TIP3   OH2 6369   4.998   4.402   6.561
18634TIP3    H1 6370   5.012   4.307   6.571
18634TIP3    H2 6371   4.982   4.413   6.467
18635TIP3   OH2 6372   4.373   4.216   6.309
18635TIP3    H1 6373   4.367   4.298   6.261
18635TIP3    H2 6374   4.324   4.153   6.256
18636TIP3   OH2 6375   5.136   4.231   6.149
18636TIP3    H1 6376   5.175   4.198   6.230
18636TIP3    H2 6377   5.209   4.273   6.103
18637TIP3   OH2 6378   3.991   4.449   6.383
18637TIP3    H1 6379   4.057   4.412   6.443
18637TIP3    H2 6380   4.010   4.407   6.299
18638TIP3   OH2 6381   4.493   4.610   6.318
18638TIP3    H1 6382   4.568   4.565   6.356
18638TIP3    H2 6383   4.445   4.542   6.271
18639TIP3   OH2 6384   5.530   4.261   6.883
18639TIP3    H1 6385   5.476   4.338   6.864
18639TIP3    H2 6386   5.578   4.284   6.963
18640TIP3   OH2 6387   4.220   4.107   6.714
18640TIP3    H1 6388   4.194   4.171   6.647
18640TIP3    H2 6389   4.149   4.107   6.777
18641TIP3   OH2 6390   4.947   5.074   6.030
18641TIP3    H1 6391   4.928   5.070   5.936
18641TIP3    H2 6392   4.898   5.151   6.060
18642TIP3   OH2 6393   4.483   4.883   6.701
18642TIP3    H1 6394   4.424   4.953   6.728
18642TIP3    H2 6395   4.554   4.927   6.655
18643TIP3   OH2 6396   5.244   4.170   6.389
18643TIP3    H1 6397   5.170   4.143   6.444
18643TIP3    H2 6398   5.288   4.238   6.441
18644TIP3   OH2 6399   4.193   4.292   6.507
18644TIP3    H1 6400   4.242   4.351   6.564
18644TIP3    H2 6401   4.258   4.260   6.444
18645TIP3   OH2 6402   4.307   5.084   6.784
18645TIP3    H1 6403   4.327   5.178   6.787
18645TIP3    H2 6404   4.222   5.076   6.827
18646TIP3   OH2 6405   3.906   5.067   5.909
18646TIP3    H1 6406   3.894   5.116   5.827
18646TIP3    H2 6407   3.926   5.134   5.974
18647TIP3   OH2 6408   5.263   5.239   6.555
18647TIP3    H1 6409   5.169   5.241   6.570
18647TIP3    H2 6410   5.286   5.329   6.531
18648TIP3   OH2 6411   5.315   3.996   6.656
18648TIP3    H1 6412   5.242   4.054   6.677
18648TIP3    H2 6413   5.389   4.055   6.642
18649TIP3   OH2 6414   4.604   3.835   6.470
18649TIP3    H1 6415   4.599   3.767   6.404
18649TIP3    H2 6416   4.513   3.855   6.492
18650TIP3   OH2 6417   5.089   5.382   6.173
18650TIP3    H1 6418   5.136   5.301   6.156
18650TIP3    H2 6419   5.157   5.449   6.177
18651TIP3   OH2 6420   5.210   5.144   6.104
18651TIP3    H1 6421   5.126   5.106   6.078
18651TIP3    H2 6422   5.231   5.101   6.187
18652TIP3   OH2 6423   5.369   5.026   6.915
18652TIP3    H1 6424   5.367   4.962   6.844
18652TIP3    H2 6425   5.380   5.110   6.871
18653TIP3   OH2 6426   4.809   4.675   5.866
18653TIP3    H1 6427   4.758   4.756   5.870
18653TIP3    H2 6428   4.896   4.703   5.837
18654TIP3   OH2 6429   4.844   4.540   5.563
18654TIP3    H1 6430   4.892   4.593   5.626
18654TIP3    H2 6431   4.834   4.454   5.605
18655TIP3   OH2 6432   5.550   4.679   6.753
18655TIP3    H1 6433   5.476   4.740   6.750
18655TIP3    H2 6434   5.610   4.711   6.685
18656TIP3   OH2 6435   5.197   4.733   5.979
18656TIP3    H1 6436   5.124   4.761   6.033
18656TIP3    H2 6437   5.259   4.694   6.040
18657TIP3   OH2 6438   5.135   4.540   6.947
18657TIP3    H1 6439   5.138   4.609   7.013
18657TIP3    H2 6440   5.067   4.568   6.886
18658TIP3   OH2 6441   4.353   4.805   6.173
18658TIP3    H1 6442   4.322   4.760   6.094
18658TIP3    H2 6443   4.407   4.739   6.217
18659TIP3   OH2 6444   4.561   5.176   6.446
18659TIP3    H1 6445   4.534   5.153   6.357
18659TIP3    H2 6446   4.613   5.101   6.475
18660TIP3   OH2 6447   4.354   4.693   6.546
18660TIP3    H1 6448   4.413   4.675   6.472
18660TIP3    H2 6449   4.402   4.757   6.599
18661TIP3   OH2 6450   4.999   5.246   6.621
18661TIP3    H1 6451   4.978   5.317   6.681
18661TIP3    H2 6452   4.963   5.168   6.662
18662TIP3   OH2 6453   4.478   5.100   7.031
18662TIP3    H1 6454   4.419   5.166   7.068
18662TIP3    H2 6455   4.428   5.063   6.958
18663TIP3   OH2 6456   5.070   4.644   5.752
18663TIP3    H1 6457   5.119   4.686   5.823
18663TIP3    H2 6458   5.121   4.663   5.674
18664TIP3   OH2 6459   4.141   4.727   6.959
18664TIP3    H1 6460   4.153   4.792   7.028
18664TIP3    H2 6461   4.047   4.706   6.962
18665TIP3   OH2 6462   4.837   5.322   6.081
18665TIP3    H1 6463   4.916   5.351   6.125
18665TIP3    H2 6464   4.799   5.403   6.045
18666TIP3   OH2 6465   4.316   5.309   7.102
18666TIP3    H1 6466   4.308   5.329   7.009
18666TIP3    H2 6467   4.227   5.288   7.130
18667TIP3   OH2 6468   5.411   3.821   5.758
18667TIP3    H1 6469   5.328   3.844   5.801
18667TIP3    H2 6470   5.444   3.904   5.724
18668TIP3   OH2 6471   4.256   4.710   5.918
18668TIP3    H1 6472   4.192   4.771   5.881
18668TIP3    H2 6473   4.211   4.626   5.920
18669TIP3   OH2 6474   5.543   5.277   5.584
18669TIP3    H1 6475   5.563   5.369   5.604
18669TIP3    H2 6476   5.623   5.230   5.606
18670TIP3   OH2 6477   3.855   4.962   6.872
18670TIP3    H1 6478   3.799   4.968   6.795
18670TIP3    H2 6479   3.861   4.868   6.890
18671TIP3   OH2 6480   3.791   5.261   6.540
18671TIP3    H1 6481   3.868   5.267   6.595
18671TIP3    H2 6482   3.740   5.338   6.561
18672TIP3   OH2 6483   5.641   5.337   7.144
18672TIP3    H1 6484   5.628   5.243   7.130
18672TIP3    H2 6485   5.556   5.369   7.173
18673TIP3   OH2 6486   4.716   5.230   6.982
18673TIP3    H1 6487   4.723   5.308   7.038
18673TIP3    H2 6488   4.629   5.195   7.000
18674TIP3   OH2 6489   4.799   5.589   5.956
18674TIP3    H1 6490   4.744   5.594   5.878
18674TIP3    H2 6491   4.775   5.667   6.006
18675TIP3   OH2 6492   4.151   5.472   6.174
18675TIP3    H1 6493   4.177   5.434   6.258
18675TIP3    H2 6494   4.094   5.405   6.134
18676TIP3   OH2 6495   5.091   5.518   5.629
18676TIP3    H1 6496   5.153   5.448   5.608
18676TIP3    H2 6497   5.096   5.526   5.724
18677TIP3   OH2 6498   5.067   5.540   5.909
18677TIP3    H1 6499   4.974   5.552   5.924
18677TIP3    H2 6500   5.096   5.484   5.981
18678TIP3   OH2 6501   5.348   4.380   7.133
18678TIP3    H1 6502   5.264   4.421   7.112
18678TIP3    H2 6503   5.327   4.310   7.194
18679TIP3   OH2 6504   4.066   5.135   6.909
18679TIP3    H1 6505   4.064   5.160   7.001
18679TIP3    H2 6506   3.996   5.070   6.900
18680TIP3   OH2 6507   4.333   3.906   6.552
18680TIP3    H1 6508   4.256   3.894   6.496
18680TIP3    H2 6509   4.309   3.977   6.611
18681TIP3   OH2 6510   4.804   3.896   6.917
18681TIP3    H1 6511   4.845   3.850   6.990
18681TIP3    H2 6512   4.710   3.886   6.933
18682TIP3   OH2 6513   5.103   4.264   6.965
18682TIP3    H1 6514   5.034   4.255   7.030
18682TIP3    H2 6515   5.111   4.359   6.952
18683TIP3   OH2 6516   5.205   4.675   5.512
18683TIP3    H1 6517   5.158   4.730   5.450
18683TIP3    H2 6518   5.289   4.720   5.526
18684TIP3   OH2 6519   4.844   4.140   5.643
18684TIP3    H1 6520   4.769   4.132   5.702
18684TIP3    H2 6521   4.818   4.094   5.564
18685TIP3   OH2 6522   4.331   4.453   6.682
18685TIP3    H1 6523   4.267   4.453   6.753
18685TIP3    H2 6524   4.325   4.541   6.645
18686TIP3   OH2 6525   4.331   4.445   6.164
18686TIP3    H1 6526   4.237   4.429   6.170
18686TIP3    H2 6527   4.353   4.423   6.073
18687TIP3   OH2 6528   4.875   4.467   6.031
18687TIP3    H1 6529   4.846   4.546   5.987
18687TIP3    H2 6530   4.946   4.433   5.976
18688TIP3   OH2 6531   4.788   4.488   7.197
18688TIP3    H1 6532   4.734   4.413   7.220
18688TIP3    H2 6533   4.867   4.480   7.250
18689TIP3   OH2 6534   4.976   4.415   6.287
18689TIP3    H1 6535   4.925   4.452   6.214
18689TIP3    H2 6536   5.021   4.340   6.248
18690TIP3   OH2 6537   4.102   4.418   6.846
18690TIP3    H1 6538   4.097   4.460   6.932
18690TIP3    H2 6539   4.071   4.329   6.861
18691TIP3   OH2 6540   4.352   4.144   5.461
18691TIP3    H1 6541   4.356   4.144   5.557
18691TIP3    H2 6542   4.344   4.236   5.437
18692TIP3   OH2 6543   3.811   4.126   6.236
18692TIP3    H1 6544   3.847   4.139   6.324
18692TIP3    H2 6545   3.884   4.145   6.177
18693TIP3   OH2 6546   3.839   4.228   5.765
18693TIP3    H1 6547   3.894   4.271   5.700
18693TIP3    H2 6548   3.789   4.298   5.806
18694TIP3   OH2 6549   4.918   4.565   6.762
18694TIP3    H1 6550   4.952   4.507   6.694
18694TIP3    H2 6551   4.860   4.511   6.815
18695TIP3   OH2 6552   4.646   4.178   6.246
18695TIP3    H1 6553   4.557   4.180   6.282
18695TIP3    H2 6554   4.698   4.134   6.313
18696TIP3   OH2 6555   4.076   4.339   6.143
18696TIP3    H1 6556   4.008   4.374   6.087
18696TIP3    H2 6557   4.104   4.259   6.099
18697TIP3   OH2 6558   4.386   4.367   5.907
18697TIP3    H1 6559   4.479   4.362   5.926
18697TIP3    H2 6560   4.381   4.408   5.821
18698TIP3   OH2 6561   5.021   4.127   6.543
18698TIP3    H1 6562   4.998   4.110   6.634
18698TIP3    H2 6563   4.947   4.092   6.493
18699TIP3   OH2 6564   4.365   4.465   5.653
18699TIP3    H1 6565   4.309   4.440   5.580
18699TIP3    H2 6566   4.441   4.507   5.612
18700TIP3   OH2 6567   5.380   5.696   7.223
18700TIP3    H1 6568   5.414   5.725   7.138
18700TIP3    H2 6569   5.445   5.729   7.286
18701TIP3   OH2 6570   4.137   4.914   7.165
18701TIP3    H1 6571   4.195   4.918   7.241
18701TIP3    H2 6572   4.050   4.931   7.201
18702TIP3   OH2 6573   4.702   4.481   6.453
18702TIP3    H1 6574   4.759   4.414   6.414
18702TIP3    H2 6575   4.667   4.439   6.532
18703TIP3   OH2 6576   4.233   4.059   6.128
18703TIP3    H1 6577   4.162   3.995   6.135
18703TIP3    H2 6578   4.312   4.006   6.116
18704TIP3   OH2 6579   4.597   4.369   6.687
18704TIP3    H1 6580   4.508   4.403   6.695
18704TIP3    H2 6581   4.638   4.390   6.771
18705TIP3   OH2 6582   4.660   4.912   5.848
18705TIP3    H1 6583   4.590   4.873   5.795
18705TIP3    H2 6584   4.614   4.953   5.922
18706TIP3   OH2 6585   5.354   4.864   6.689
18706TIP3    H1 6586   5.415   4.923   6.644
18706TIP3    H2 6587   5.283   4.851   6.626
18707TIP3   OH2 6588   5.106   4.230   5.630
18707TIP3    H1 6589   5.020   4.188   5.627
18707TIP3    H2 6590   5.107   4.277   5.714
18708TIP3   OH2 6591   4.782   4.955   6.978
18708TIP3    H1 6592   4.794   4.924   7.068
18708TIP3    H2 6593   4.751   5.045   6.988
18709TIP3   OH2 6594   5.090   4.388   5.859
18709TIP3    H1 6595   5.172   4.385   5.909
18709TIP3    H2 6596   5.086   4.477   5.825
18710TIP3   OH2 6597   4.166   4.832   6.388
18710TIP3    H1 6598   4.227   4.835   6.315
18710TIP3    H2 6599   4.209   4.778   6.454
18711TIP3   OH2 6600   4.872   5.068   5.759
18711TIP3    H1 6601   4.834   5.155   5.762
18711TIP3    H2 6602   4.801   5.009   5.784
18712TIP3   OH2 6603   3.861   4.689   6.936
18712TIP3    H1 6604   3.831   4.642   7.014
18712TIP3    H2 6605   3.794   4.672   6.871
18713TIP3   OH2 6606   4.596   4.700   7.171
18713TIP3    H1 6607   4.585   4.700   7.076
18713TIP3    H2 6608   4.669   4.640   7.187
18714TIP3   OH2 6609   5.001   5.229   6.995
18714TIP3    H1 6610   4.907   5.232   6.982
18714TIP3    H2 6611   5.013   5.242   7.090
18715TIP3   OH2 6612   5.525   4.452   5.802
18715TIP3    H1 6613   5.486   4.428   5.718
18715TIP3    H2 6614   5.548   4.544   5.792
18716TIP3   OH2 6615   5.576   5.075   7.087
18716TIP3    H1 6616   5.492   5.060   7.042
18716TIP3    H2 6617   5.641   5.038   7.029
18717TIP3   OH2 6618   5.405   5.297   5.894
18717TIP3    H1 6619   5.352   5.240   5.950
18717TIP3    H2 6620   5.416   5.248   5.813
18718TIP3   OH2 6621   5.145   4.807   6.501
18718TIP3    H1 6622   5.051   4.797   6.514
18718TIP3    H2 6623   5.171   4.726   6.457
18719TIP3   OH2 6624   4.417   5.230   6.191
18719TIP3    H1 6625   4.431   5.315   6.149
18719TIP3    H2 6626   4.347   5.246   6.255
18720TIP3   OH2 6627   3.948   4.696   5.597
18720TIP3    H1 6628   4.001   4.748   5.657
18720TIP3    H2 6629   3.860   4.698   5.634
18721TIP3   OH2 6630   4.478   5.016   6.031
18721TIP3    H1 6631   4.465   5.093   6.087
18721TIP3    H2 6632   4.435   4.945   6.078
18722TIP3   OH2 6633   4.609   5.403   6.777
18722TIP3    H1 6634   4.663   5.481   6.764
18722TIP3    H2 6635   4.665   5.344   6.828
18723TIP3   OH2 6636   4.408   5.489   6.079
18723TIP3    H1 6637   4.317   5.497   6.105
18723TIP3    H2 6638   4.452   5.562   6.121
18724TIP3   OH2 6639   4.920   5.004   6.747
18724TIP3    H1 6640   4.867   4.986   6.824
18724TIP3    H2 6641   5.005   4.963   6.767
18725TIP3   OH2 6642   5.154   5.097   5.668
18725TIP3    H1 6643   5.210   5.037   5.718
18725TIP3    H2 6644   5.067   5.087   5.706
18726TIP3   OH2 6645   5.185   5.436   6.964
18726TIP3    H1 6646   5.112   5.375   6.954
18726TIP3    H2 6647   5.178   5.495   6.890
18727TIP3   OH2 6648   5.606   5.540   5.660
18727TIP3    H1 6649   5.667   5.613   5.650
18727TIP3    H2 6650   5.521   5.581   5.676
18728TIP3   OH2 6651   4.012   4.151   6.898
18728TIP3    H1 6652   3.919   4.175   6.901
18728TIP3    H2 6653   4.024   4.088   6.969
18729TIP3   OH2 6654   5.313   4.926   5.816
18729TIP3    H1 6655   5.267   4.868   5.876
18729TIP3    H2 6656   5.404   4.926   5.846
18730TIP3   OH2 6657   3.984   5.335   6.730
18730TIP3    H1 6658   4.031   5.270   6.782
18730TIP3    H2 6659   3.907   5.357   6.782
18731TIP3   OH2 6660   4.582   5.145   5.527
18731TIP3    H1 6661   4.518   5.080   5.497
18731TIP3    H2 6662   4.553   5.168   5.616
18732TIP3   OH2 6663   4.432   5.170   5.777
18732TIP3    H1 6664   4.446   5.120   5.857
18732TIP3    H2 6665   4.453   5.261   5.801
18733TIP3   OH2 6666   4.074   4.880   5.783
18733TIP3    H1 6667   4.013   4.925   5.841
18733TIP3    H2 6668   4.122   4.950   5.738
18734TIP3   OH2 6669   4.956   4.093   6.800
18734TIP3    H1 6670   5.002   4.142   6.868
18734TIP3    H2 6671   4.902   4.030   6.847
18735TIP3   OH2 6672   4.987   4.080   5.976
18735TIP3    H1 6673   4.962   4.144   5.910
18735TIP3    H2 6674   5.032   4.131   6.044
18736TIP3   OH2 6675   4.750   5.309   5.763
18736TIP3    H1 6676   4.667   5.335   5.804
18736TIP3    H2 6677   4.784   5.391   5.726
18737TIP3   OH2 6678   4.642   4.321   6.008
18737TIP3    H1 6679   4.717   4.379   6.018
18737TIP3    H2 6680   4.635   4.276   6.092
18738TIP3   OH2 6681   4.766   4.401   6.924
18738TIP3    H1 6682   4.766   4.441   7.011
18738TIP3    H2 6683   4.789   4.310   6.939
18739TIP3   OH2 6684   4.727   3.995   6.047
18739TIP3    H1 6685   4.707   4.053   6.121
18739TIP3    H2 6686   4.821   4.008   6.032
18740TIP3   OH2 6687   4.509   5.428   5.834
18740TIP3    H1 6688   4.513   5.511   5.786
18740TIP3    H2 6689   4.474   5.451   5.920
18741TIP3   OH2 6690   4.356   4.133   5.740
18741TIP3    H1 6691   4.334   4.202   5.802
18741TIP3    H2 6692   4.445   4.108   5.762
18742TIP3   OH2 6693   5.317   4.091   6.948
18742TIP3    H1 6694   5.238   4.145   6.958
18742TIP3    H2 6695   5.388   4.155   6.936
18743TIP3   OH2 6696   5.206   4.558   6.377
18743TIP3    H1 6697   5.121   4.518   6.357
18743TIP3    H2 6698   5.246   4.498   6.441
18744TIP3   OH2 6699   4.200   5.093   5.638
18744TIP3    H1 6700   4.262   5.137   5.697
18744TIP3    H2 6701   4.254   5.037   5.583
18745TIP3   OH2 6702   3.911   4.413   5.572
18745TIP3    H1 6703   3.936   4.505   5.577
18745TIP3    H2 6704   3.819   4.415   5.548
18746TIP3   OH2 6705   5.349   5.503   6.534
18746TIP3    H1 6706   5.334   5.578   6.476
18746TIP3    H2 6707   5.441   5.509   6.559
18747TIP3   OH2 6708   4.082   3.887   6.433
18747TIP3    H1 6709   4.068   3.882   6.339
18747TIP3    H2 6710   4.050   3.803   6.467
18748TIP3   OH2 6711   3.956   5.298   6.065
18748TIP3    H1 6712   3.905   5.326   6.141
18748TIP3    H2 6713   3.933   5.361   5.996
18749TIP3   OH2 6714   3.939   5.513   7.108
18749TIP3    H1 6715   3.924   5.598   7.150
18749TIP3    H2 6716   3.859   5.464   7.125
18750TIP3   OH2 6717   4.470   5.459   7.275
18750TIP3    H1 6718   4.479   5.403   7.353
18750TIP3    H2 6719   4.423   5.405   7.212
18751TIP3   OH2 6720   4.764   5.346   5.439
18751TIP3    H1 6721   4.684   5.301   5.467
18751TIP3    H2 6722   4.832   5.279   5.442
18752TIP3   OH2 6723   5.066   5.240   7.267
18752TIP3    H1 6724   5.005   5.176   7.303
18752TIP3    H2 6725   5.151   5.194   7.266
18753TIP3   OH2 6726   5.257   5.311   5.531
18753TIP3    H1 6727   5.221   5.237   5.579
18753TIP3    H2 6728   5.352   5.304   5.542
18754TIP3   OH2 6729   3.882   4.962   7.279
18754TIP3    H1 6730   3.836   4.887   7.316
18754TIP3    H2 6731   3.821   4.998   7.214
18755TIP3   OH2 6732   4.390   4.942   5.509
18755TIP3    H1 6733   4.415   4.889   5.584
18755TIP3    H2 6734   4.367   4.878   5.441
18756TIP3   OH2 6735   4.549   4.965   7.264
18756TIP3    H1 6736   4.528   5.004   7.180
18756TIP3    H2 6737   4.574   4.875   7.243
18757TIP3   OH2 6738   4.859   5.085   5.480
18757TIP3    H1 6739   4.882   5.068   5.571
18757TIP3    H2 6740   4.763   5.084   5.478
18758TIP3   OH2 6741   5.114   4.970   6.997
18758TIP3    H1 6742   5.206   4.991   6.979
18758TIP3    H2 6743   5.069   5.055   6.994
18759TIP3   OH2 6744   4.060   4.578   7.244
18759TIP3    H1 6745   4.055   4.500   7.299
18759TIP3    H2 6746   4.021   4.648   7.298
18760TIP3   OH2 6747   4.451   4.780   5.723
18760TIP3    H1 6748   4.391   4.747   5.790
18760TIP3    H2 6749   4.482   4.701   5.677
18761TIP3   OH2 6750   4.362   4.548   6.976
18761TIP3    H1 6751   4.286   4.606   6.978
18761TIP3    H2 6752   4.433   4.602   6.942
18762TIP3   OH2 6753   4.569   4.602   5.534
18762TIP3    H1 6754   4.553   4.595   5.440
18762TIP3    H2 6755   4.663   4.593   5.544
18763TIP3   OH2 6756   4.912   4.804   7.362
18763TIP3    H1 6757   4.964   4.750   7.302
18763TIP3    H2 6758   4.881   4.743   7.429
18764TIP3   OH2 6759   5.444   4.814   5.513
18764TIP3    H1 6760   5.460   4.800   5.419
18764TIP3    H2 6761   5.447   4.910   5.523
18765TIP3   OH2 6762   4.445   4.292   7.038
18765TIP3    H1 6763   4.449   4.235   6.961
18765TIP3    H2 6764   4.414   4.376   7.004
18766TIP3   OH2 6765   4.475   4.132   6.811
18766TIP3    H1 6766   4.522   4.185   6.747
18766TIP3    H2 6767   4.386   4.124   6.776
18767TIP3   OH2 6768   4.578   4.699   6.887
18767TIP3    H1 6769   4.671   4.698   6.863
18767TIP3    H2 6770   4.539   4.763   6.828
18768TIP3   OH2 6771   5.000   4.393   7.398
18768TIP3    H1 6772   5.006   4.301   7.371
18768TIP3    H2 6773   5.044   4.396   7.483
18769TIP3   OH2 6774   5.170   4.742   7.141
18769TIP3    H1 6775   5.139   4.821   7.098
18769TIP3    H2 6776   5.264   4.739   7.122
18770TIP3   OH2 6777   4.297   4.352   7.261
18770TIP3    H1 6778   4.214   4.306   7.269
18770TIP3    H2 6779   4.337   4.317   7.181
18771TIP3   OH2 6780   4.524   3.871   6.906
18771TIP3    H1 6781   4.507   3.961   6.877
18771TIP3    H2 6782   4.454   3.820   6.865
18772TIP3   OH2 6783   4.645   4.252   7.218
18772TIP3    H1 6784   4.619   4.177   7.271
18772TIP3    H2 6785   4.573   4.265   7.157
18773TIP3   OH2 6786   4.901   4.201   7.132
18773TIP3    H1 6787   4.812   4.212   7.163
18773TIP3    H2 6788   4.946   4.154   7.203
18774TIP3   OH2 6789   5.035   4.096   7.357
18774TIP3    H1 6790   5.060   4.004   7.349
18774TIP3    H2 6791   4.955   4.095   7.410
18775TIP3   OH2 6792   4.072   4.179   7.254
18775TIP3    H1 6793   4.069   4.093   7.212
18775TIP3    H2 6794   4.047   4.162   7.345
18776TIP3   OH2 6795   4.551   3.790   7.167
18776TIP3    H1 6796   4.601   3.709   7.156
18776TIP3    H2 6797   4.533   3.820   7.078
18777TIP3   OH2 6798   4.570   4.010   7.337
18777TIP3    H1 6799   4.560   3.935   7.278
18777TIP3    H2 6800   4.483   4.023   7.374
18778TIP3   OH2 6801   4.571   5.654   5.687
18778TIP3    H1 6802   4.657   5.625   5.657
18778TIP3    H2 6803   4.543   5.719   5.622
18779TIP3   OH2 6804   3.911   5.137   5.634
18779TIP3    H1 6805   4.007   5.146   5.630
18779TIP3    H2 6806   3.893   5.055   5.588
18780TIP3   OH2 6807   3.790   5.621   6.146
18780TIP3    H1 6808   3.727   5.590   6.081
18780TIP3    H2 6809   3.805   5.547   6.204
18781TIP3   OH2 6810   3.860   5.408   6.308
18781TIP3    H1 6811   3.817   5.338   6.358
18781TIP3    H2 6812   3.916   5.453   6.371
18782TIP3   OH2 6813   5.604   5.522   6.640
18782TIP3    H1 6814   5.590   5.496   6.731
18782TIP3    H2 6815   5.647   5.608   6.646
18783TIP3   OH2 6816   5.554   5.463   6.902
18783TIP3    H1 6817   5.493   5.393   6.877
18783TIP3    H2 6818   5.594   5.432   6.983
18784TIP3   OH2 6819   5.302   5.100   7.314
18784TIP3    H1 6820   5.300   5.008   7.342
18784TIP3    H2 6821   5.393   5.127   7.326
18785TIP3   OH2 6822   5.573   4.890   5.910
18785TIP3    H1 6823   5.643   4.955   5.916
18785TIP3    H2 6824   5.588   4.833   5.986
18786TIP3   OH2 6825   5.618   4.698   6.106
18786TIP3    H1 6826   5.532   4.670   6.138
18786TIP3    H2 6827   5.669   4.714   6.185
18787TIP3   OH2 6828   5.586   5.007   6.630
18787TIP3    H1 6829   5.644   4.943   6.588
18787TIP3    H2 6830   5.613   5.092   6.594
18788TIP3   OH2 6831   5.372   5.279   6.810
18788TIP3    H1 6832   5.298   5.322   6.854
18788TIP3    H2 6833   5.340   5.263   6.721
18789TIP3   OH2 6834   5.596   4.702   5.714
18789TIP3    H1 6835   5.542   4.735   5.642
18789TIP3    H2 6836   5.588   4.769   5.782
18790TIP3   OH2 6837   5.439   4.400   5.548
18790TIP3    H1 6838   5.403   4.468   5.491
18790TIP3    H2 6839   5.406   4.318   5.512
18791TIP3   OH2 6840   5.363   4.587   6.152
18791TIP3    H1 6841   5.355   4.497   6.121
18791TIP3    H2 6842   5.314   4.587   6.235
18792TIP3   OH2 6843   3.848   4.773   6.568
18792TIP3    H1 6844   3.861   4.756   6.475
18792TIP3    H2 6845   3.928   4.739   6.610
18793TIP3   OH2 6846   5.439   4.732   7.092
18793TIP3    H1 6847   5.491   4.652   7.081
18793TIP3    H2 6848   5.487   4.783   7.157
18794TIP3   OH2 6849   5.588   4.500   7.087
18794TIP3    H1 6850   5.504   4.462   7.112
18794TIP3    H2 6851   5.652   4.434   7.112
18795TIP3   OH2 6852   5.348   4.146   5.479
18795TIP3    H1 6853   5.399   4.105   5.549
18795TIP3    H2 6854   5.261   4.158   5.518
18796TIP3   OH2 6855   5.342   4.340   5.988
18796TIP3    H1 6856   5.371   4.249   5.990
18796TIP3    H2 6857   5.405   4.384   5.931
18797TIP3   OH2 6858   5.352   4.380   6.538
18797TIP3    H1 6859   5.446   4.390   6.523
18797TIP3    H2 6860   5.340   4.403   6.630
18798TIP3   OH2 6861   5.370   4.469   6.802
18798TIP3    H1 6862   5.295   4.497   6.854
18798TIP3    H2 6863   5.427   4.546   6.800
18799TIP3   OH2 6864   3.852   4.289   7.123
18799TIP3    H1 6865   3.934   4.270   7.169
18799TIP3    H2 6866   3.796   4.213   7.140
18800TIP3   OH2 6867   5.576   3.861   7.405
18800TIP3    H1 6868   5.567   3.778   7.451
18800TIP3    H2 6869   5.664   3.858   7.368
18801TIP3   OH2 6870   5.403   4.067   5.997
18801TIP3    H1 6871   5.426   4.030   6.082
18801TIP3    H2 6872   5.331   4.012   5.966
18802TIP3   OH2 6873   3.961   4.137   6.465
18802TIP3    H1 6874   3.998   4.049   6.470
18802TIP3    H2 6875   4.034   4.195   6.484
18803TIP3   OH2 6876   3.753   4.397   6.532
18803TIP3    H1 6877   3.827   4.409   6.474
18803TIP3    H2 6878   3.766   4.460   6.603
18804TIP3   OH2 6879   5.542   4.098   7.160
18804TIP3    H1 6880   5.459   4.114   7.206
18804TIP3    H2 6881   5.525   4.020   7.108
18805TIP3   OH2 6882   5.538   4.046   5.645
18805TIP3    H1 6883   5.611   3.983   5.639
18805TIP3    H2 6884   5.577   4.123   5.687
18806TIP3   OH2 6885   3.802   3.990   5.902
18806TIP3    H1 6886   3.721   4.005   5.949
18806TIP3    H2 6887   3.829   4.077   5.871
18807TIP3   OH2 6888   5.270   5.580   6.156
18807TIP3    H1 6889   5.348   5.578   6.101
18807TIP3    H2 6890   5.296   5.628   6.234
18808TIP3   OH2 6891   3.790   3.880   6.766
18808TIP3    H1 6892   3.731   3.877   6.841
18808TIP3    H2 6893   3.767   3.962   6.722
18809TIP3   OH2 6894   4.055   5.252   7.166
18809TIP3    H1 6895   4.010   5.336   7.163
18809TIP3    H2 6896   4.025   5.211   7.248
18810TIP3   OH2 6897   4.346   5.353   6.830
18810TIP3    H1 6898   4.303   5.430   6.794
18810TIP3    H2 6899   4.439   5.369   6.815
18811TIP3   OH2 6900   4.767   5.448   7.132
18811TIP3    H1 6901   4.763   5.440   7.227
18811TIP3    H2 6902   4.839   5.509   7.116
18812TIP3   OH2 6903   4.990   5.610   7.103
18812TIP3    H1 6904   5.061   5.558   7.066
18812TIP3    H2 6905   5.029   5.651   7.181
18813TIP3   OH2 6906   5.489   3.883   6.977
18813TIP3    H1 6907   5.417   3.939   6.949
18813TIP3    H2 6908   5.477   3.802   6.927
18814TIP3   OH2 6909   4.014   5.646   6.873
18814TIP3    H1 6910   3.941   5.692   6.833
18814TIP3    H2 6911   3.973   5.584   6.933
18815TIP3   OH2 6912   4.254   5.595   6.743
18815TIP3    H1 6913   4.161   5.606   6.764
18815TIP3    H2 6914   4.268   5.652   6.668
18816TIP3   OH2 6915   4.741   5.638   6.716
18816TIP3    H1 6916   4.697   5.689   6.648
18816TIP3    H2 6917   4.757   5.700   6.787
18817TIP3   OH2 6918   4.964   5.481   6.754
18817TIP3    H1 6919   4.887   5.535   6.737
18817TIP3    H2 6920   5.038   5.540   6.742
18818TIP3   OH2 6921   5.209   5.608   6.747
18818TIP3    H1 6922   5.242   5.698   6.747
18818TIP3    H2 6923   5.251   5.567   6.672
18819TIP3   OH2 6924   4.037   5.499   6.509
18819TIP3    H1 6925   4.012   5.456   6.591
18819TIP3    H2 6926   4.113   5.449   6.479
18820TIP3   OH2 6927   4.251   5.353   6.406
18820TIP3    H1 6928   4.236   5.266   6.442
18820TIP3    H2 6929   4.331   5.383   6.450
18821TIP3   OH2 6930   4.500   5.430   6.522
18821TIP3    H1 6931   4.528   5.347   6.484
18821TIP3    H2 6932   4.528   5.426   6.613
18822TIP3   OH2 6933   4.805   4.016   6.403
18822TIP3    H1 6934   4.738   3.954   6.431
18822TIP3    H2 6935   4.875   3.961   6.368
18823TIP3   OH2 6936   5.310   3.835   6.364
18823TIP3    H1 6937   5.369   3.903   6.333
18823TIP3    H2 6938   5.227   3.880   6.379
18824TIP3   OH2 6939   5.521   3.948   6.215
18824TIP3    H1 6940   5.578   3.873   6.198
18824TIP3    H2 6941   5.582   4.021   6.231
18825TIP3   OH2 6942   4.043   3.856   6.160
18825TIP3    H1 6943   3.950   3.837   6.145
18825TIP3    H2 6944   4.087   3.772   6.149
18826TIP3   OH2 6945   3.901   3.874   5.671
18826TIP3    H1 6946   3.990   3.908   5.659
18826TIP3    H2 6947   3.876   3.901   5.759
18827TIP3   OH2 6948   4.470   3.906   6.127
18827TIP3    H1 6949   4.554   3.934   6.090
18827TIP3    H2 6950   4.490   3.822   6.169
18828TIP3   OH2 6951   5.025   3.873   6.309
18828TIP3    H1 6952   5.033   3.860   6.215
18828TIP3    H2 6953   4.995   3.789   6.343
18829TIP3   OH2 6954   5.192   3.903   5.906
18829TIP3    H1 6955   5.119   3.963   5.922
18829TIP3    H2 6956   5.153   3.816   5.912
18830TIP3   OH2 6957   3.909   5.481   5.868
18830TIP3    H1 6958   3.838   5.473   5.804
18830TIP3    H2 6959   3.914   5.575   5.886
18831TIP3   OH2 6960   4.155   3.966   5.631
18831TIP3    H1 6961   4.208   3.962   5.552
18831TIP3    H2 6962   4.206   4.020   5.691
18832TIP3   OH2 6963   4.628   4.120   5.820
18832TIP3    H1 6964   4.648   4.050   5.882
18832TIP3    H2 6965   4.627   4.199   5.874
18833TIP3   OH2 6966   4.814   5.545   5.624
18833TIP3    H1 6967   4.910   5.555   5.626
18833TIP3    H2 6968   4.798   5.487   5.549
18834TIP3   OH2 6969   5.484   5.549   5.974
18834TIP3    H1 6970   5.461   5.460   5.948
18834TIP3    H2 6971   5.462   5.603   5.898
18835TIP3   OH2 6972   4.057   3.933   7.103
18835TIP3    H1 6973   3.996   3.865   7.133
18835TIP3    H2 6974   4.140   3.911   7.144
18836TIP3   OH2 6975   4.266   3.849   7.264
18836TIP3    H1 6976   4.346   3.800   7.246
18836TIP3    H2 6977   4.216   3.793   7.322
18837TIP3   OH2 6978   4.130   5.574   5.548
18837TIP3    H1 6979   4.042   5.580   5.586
18837TIP3    H2 6980   4.177   5.514   5.607
18838TIP3   OH2 6981   5.114   3.828   7.332
18838TIP3    H1 6982   5.113   3.766   7.405
18838TIP3    H2 6983   5.204   3.823   7.298
18839TIP3   OH2 6984   5.382   5.426   7.167
18839TIP3    H1 6985   5.311   5.415   7.103
18839TIP3    H2 6986   5.375   5.518   7.195
18840TIP3   OH2 6987   6.865   4.804   6.126
18840TIP3    H1 6988   6.842   4.896   6.131
18840TIP3    H2 6989   6.793   4.764   6.076
18841TIP3   OH2 6990   6.754   4.727   6.551
18841TIP3    H1 6991   6.778   4.680   6.631
18841TIP3    H2 6992   6.701   4.664   6.502
18842TIP3   OH2 6993   5.936   4.665   6.709
18842TIP3    H1 6994   5.943   4.577   6.745
18842TIP3    H2 6995   5.980   4.721   6.774
18843TIP3   OH2 6996   7.132   5.034   6.365
18843TIP3    H1 6997   7.092   4.960   6.409
18843TIP3    H2 6998   7.147   5.099   6.434
18844TIP3   OH2 6999   6.111   5.110   6.448
18844TIP3    H1 7000   6.071   5.025   6.430
18844TIP3    H2 7001   6.199   5.089   6.478
18845TIP3   OH2 7002   5.735   4.469   5.997
18845TIP3    H1 7003   5.714   4.551   6.040
18845TIP3    H2 7004   5.660   4.451   5.940
18846TIP3   OH2 7005   5.805   4.712   6.313
18846TIP3    H1 7006   5.830   4.623   6.335
18846TIP3    H2 7007   5.886   4.763   6.323
18847TIP3   OH2 7008   6.871   5.490   6.420
18847TIP3    H1 7009   6.897   5.444   6.340
18847TIP3    H2 7010   6.860   5.420   6.485
18848TIP3   OH2 7011   6.597   4.973   6.551
18848TIP3    H1 7012   6.638   4.891   6.523
18848TIP3    H2 7013   6.663   5.014   6.608
18849TIP3   OH2 7014   7.452   4.122   6.665
18849TIP3    H1 7015   7.468   4.186   6.735
18849TIP3    H2 7016   7.518   4.142   6.599
18850TIP3   OH2 7017   6.883   4.384   6.554
18850TIP3    H1 7018   6.889   4.289   6.562
18850TIP3    H2 7019   6.876   4.400   6.460
18851TIP3   OH2 7020   6.253   4.184   6.277
18851TIP3    H1 7021   6.248   4.278   6.258
18851TIP3    H2 7022   6.175   4.147   6.235
18852TIP3   OH2 7023   7.024   4.229   6.137
18852TIP3    H1 7024   7.066   4.193   6.216
18852TIP3    H2 7025   7.096   4.270   6.089
18853TIP3   OH2 7026   5.860   4.446   6.368
18853TIP3    H1 7027   5.929   4.406   6.420
18853TIP3    H2 7028   5.880   4.420   6.278
18854TIP3   OH2 7029   6.372   4.619   6.329
18854TIP3    H1 7030   6.453   4.582   6.364
18854TIP3    H2 7031   6.324   4.544   6.294
18855TIP3   OH2 7032   7.495   4.277   6.891
18855TIP3    H1 7033   7.431   4.346   6.873
18855TIP3    H2 7034   7.521   4.291   6.982
18856TIP3   OH2 7035   6.043   4.071   6.705
18856TIP3    H1 7036   6.128   4.102   6.735
18856TIP3    H2 7037   5.980   4.110   6.766
18857TIP3   OH2 7038   6.770   5.053   6.063
18857TIP3    H1 7039   6.785   5.064   5.969
18857TIP3    H2 7040   6.741   5.140   6.092
18858TIP3   OH2 7041   6.378   4.896   6.704
18858TIP3    H1 7042   6.323   4.969   6.733
18858TIP3    H2 7043   6.449   4.937   6.655
18859TIP3   OH2 7044   7.125   4.157   6.384
18859TIP3    H1 7045   7.045   4.142   6.436
18859TIP3    H2 7046   7.174   4.222   6.435
18860TIP3   OH2 7047   6.065   4.288   6.468
18860TIP3    H1 7048   6.103   4.349   6.531
18860TIP3    H2 7049   6.138   4.235   6.439
18861TIP3   OH2 7050   6.214   5.103   6.796
18861TIP3    H1 7051   6.222   5.198   6.801
18861TIP3    H2 7052   6.121   5.086   6.810
18862TIP3   OH2 7053   5.788   5.065   5.895
18862TIP3    H1 7054   5.780   5.106   5.809
18862TIP3    H2 7055   5.808   5.137   5.954
18863TIP3   OH2 7056   7.150   5.243   6.562
18863TIP3    H1 7057   7.055   5.250   6.573
18863TIP3    H2 7058   7.179   5.331   6.539
18864TIP3   OH2 7059   7.215   3.984   6.734
18864TIP3    H1 7060   7.142   4.041   6.712
18864TIP3    H2 7061   7.291   4.027   6.697
18865TIP3   OH2 7062   6.460   3.799   6.459
18865TIP3    H1 7063   6.435   3.707   6.467
18865TIP3    H2 7064   6.386   3.847   6.497
18866TIP3   OH2 7065   6.974   5.378   6.184
18866TIP3    H1 7066   7.011   5.293   6.162
18866TIP3    H2 7067   7.049   5.437   6.191
18867TIP3   OH2 7068   7.106   5.151   6.115
18867TIP3    H1 7069   7.130   5.087   6.047
18867TIP3    H2 7070   7.118   5.104   6.197
18868TIP3   OH2 7071   7.244   5.018   6.933
18868TIP3    H1 7072   7.234   4.959   6.859
18868TIP3    H2 7073   7.263   5.103   6.893
18869TIP3   OH2 7074   6.713   4.706   5.909
18869TIP3    H1 7075   6.651   4.776   5.889
18869TIP3    H2 7076   6.784   4.718   5.845
18870TIP3   OH2 7077   6.743   4.531   5.589
18870TIP3    H1 7078   6.785   4.589   5.653
18870TIP3    H2 7079   6.815   4.486   5.546
18871TIP3   OH2 7080   7.406   4.668   6.757
18871TIP3    H1 7081   7.341   4.737   6.741
18871TIP3    H2 7082   7.481   4.693   6.704
18872TIP3   OH2 7083   7.084   4.739   5.978
18872TIP3    H1 7084   7.013   4.763   6.037
18872TIP3    H2 7085   7.147   4.693   6.033
18873TIP3   OH2 7086   7.036   4.521   6.948
18873TIP3    H1 7087   7.037   4.598   7.004
18873TIP3    H2 7088   6.972   4.541   6.880
18874TIP3   OH2 7089   6.244   4.805   6.164
18874TIP3    H1 7090   6.222   4.753   6.087
18874TIP3    H2 7091   6.297   4.747   6.219
18875TIP3   OH2 7092   6.402   5.146   6.447
18875TIP3    H1 7093   6.407   5.150   6.351
18875TIP3    H2 7094   6.474   5.089   6.472
18876TIP3   OH2 7095   6.229   4.731   6.542
18876TIP3    H1 7096   6.291   4.695   6.479
18876TIP3    H2 7097   6.282   4.783   6.601
18877TIP3   OH2 7098   6.883   5.272   6.619
18877TIP3    H1 7099   6.868   5.336   6.689
18877TIP3    H2 7100   6.851   5.189   6.656
18878TIP3   OH2 7101   6.360   5.100   7.033
18878TIP3    H1 7102   6.298   5.156   7.079
18878TIP3    H2 7103   6.317   5.080   6.949
18879TIP3   OH2 7104   6.944   4.680   5.745
18879TIP3    H1 7105   6.998   4.716   5.815
18879TIP3    H2 7106   6.989   4.707   5.664
18880TIP3   OH2 7107   6.023   4.753   6.970
18880TIP3    H1 7108   6.032   4.833   7.022
18880TIP3    H2 7109   5.929   4.732   6.976
18881TIP3   OH2 7110   6.716   5.323   6.098
18881TIP3    H1 7111   6.801   5.345   6.136
18881TIP3    H2 7112   6.693   5.399   6.045
18882TIP3   OH2 7113   6.169   5.275   7.126
18882TIP3    H1 7114   6.173   5.321   7.042
18882TIP3    H2 7115   6.080   5.288   7.157
18883TIP3   OH2 7116   7.300   3.832   5.745
18883TIP3    H1 7117   7.221   3.859   5.791
18883TIP3    H2 7118   7.343   3.915   5.720
18884TIP3   OH2 7119   6.154   4.691   5.905
18884TIP3    H1 7120   6.099   4.763   5.876
18884TIP3    H2 7121   6.092   4.622   5.929
18885TIP3   OH2 7122   7.376   5.277   5.582
18885TIP3    H1 7123   7.437   5.349   5.595
18885TIP3    H2 7124   7.430   5.204   5.552
18886TIP3   OH2 7125   5.723   4.966   6.877
18886TIP3    H1 7126   5.666   4.970   6.801
18886TIP3    H2 7127   5.727   4.873   6.899
18887TIP3   OH2 7128   5.689   5.265   6.557
18887TIP3    H1 7129   5.766   5.270   6.614
18887TIP3    H2 7130   5.639   5.344   6.576
18888TIP3   OH2 7131   7.512   5.332   7.144
18888TIP3    H1 7132   7.512   5.237   7.136
18888TIP3    H2 7133   7.426   5.353   7.180
18889TIP3   OH2 7134   6.593   5.241   6.988
18889TIP3    H1 7135   6.587   5.325   7.035
18889TIP3    H2 7136   6.509   5.199   7.003
18890TIP3   OH2 7137   6.691   5.565   5.947
18890TIP3    H1 7138   6.668   5.572   5.855
18890TIP3    H2 7139   6.663   5.648   5.985
18891TIP3   OH2 7140   6.035   5.466   6.156
18891TIP3    H1 7141   6.056   5.434   6.244
18891TIP3    H2 7142   5.978   5.399   6.119
18892TIP3   OH2 7143   6.950   5.541   5.668
18892TIP3    H1 7144   7.008   5.479   5.623
18892TIP3    H2 7145   6.975   5.535   5.760
18893TIP3   OH2 7146   6.967   5.544   5.942
18893TIP3    H1 7147   6.872   5.541   5.951
18893TIP3    H2 7148   6.999   5.491   6.016
18894TIP3   OH2 7149   7.206   4.399   7.156
18894TIP3    H1 7150   7.143   4.436   7.094
18894TIP3    H2 7151   7.216   4.308   7.129
18895TIP3   OH2 7152   5.951   5.114   6.891
18895TIP3    H1 7153   5.980   5.084   6.977
18895TIP3    H2 7154   5.869   5.068   6.875
18896TIP3   OH2 7155   6.252   3.933   6.583
18896TIP3    H1 7156   6.163   3.969   6.585
18896TIP3    H2 7157   6.303   3.994   6.637
18897TIP3   OH2 7158   6.681   3.895   6.912
18897TIP3    H1 7159   6.726   3.841   6.978
18897TIP3    H2 7160   6.589   3.889   6.935
18898TIP3   OH2 7161   6.982   4.244   6.971
18898TIP3    H1 7162   6.928   4.240   7.050
18898TIP3    H2 7163   6.988   4.337   6.951
18899TIP3   OH2 7164   7.079   4.716   5.502
18899TIP3    H1 7165   7.053   4.741   5.413
18899TIP3    H2 7166   7.165   4.755   5.514
18900TIP3   OH2 7167   6.624   4.072   5.593
18900TIP3    H1 7168   6.576   4.092   5.674
18900TIP3    H2 7169   6.671   3.991   5.612
18901TIP3   OH2 7170   6.169   4.472   6.630
18901TIP3    H1 7171   6.127   4.463   6.716
18901TIP3    H2 7172   6.175   4.567   6.617
18902TIP3   OH2 7173   6.215   4.439   6.179
18902TIP3    H1 7174   6.120   4.430   6.176
18902TIP3    H2 7175   6.244   4.428   6.089
18903TIP3   OH2 7176   6.769   4.465   6.026
18903TIP3    H1 7177   6.742   4.551   5.993
18903TIP3    H2 7178   6.842   4.440   5.971
18904TIP3   OH2 7179   6.658   4.505   7.201
18904TIP3    H1 7180   6.618   4.418   7.211
18904TIP3    H2 7181   6.742   4.498   7.247
18905TIP3   OH2 7182   6.870   4.412   6.283
18905TIP3    H1 7183   6.822   4.456   6.212
18905TIP3    H2 7184   6.913   4.338   6.240
18906TIP3   OH2 7185   5.998   4.431   6.849
18906TIP3    H1 7186   6.031   4.453   6.936
18906TIP3    H2 7187   5.960   4.344   6.859
18907TIP3   OH2 7188   6.229   4.187   5.438
18907TIP3    H1 7189   6.321   4.167   5.455
18907TIP3    H2 7190   6.232   4.272   5.393
18908TIP3   OH2 7191   5.719   4.131   6.243
18908TIP3    H1 7192   5.750   4.152   6.331
18908TIP3    H2 7193   5.795   4.144   6.187
18909TIP3   OH2 7194   5.700   4.244   5.759
18909TIP3    H1 7195   5.775   4.286   5.717
18909TIP3    H2 7196   5.642   4.316   5.783
18910TIP3   OH2 7197   6.829   4.549   6.762
18910TIP3    H1 7198   6.851   4.491   6.690
18910TIP3    H2 7199   6.764   4.501   6.813
18911TIP3   OH2 7200   6.527   4.149   6.237
18911TIP3    H1 7201   6.436   4.154   6.267
18911TIP3    H2 7202   6.574   4.112   6.311
18912TIP3   OH2 7203   5.957   4.363   6.119
18912TIP3    H1 7204   5.881   4.389   6.067
18912TIP3    H2 7205   5.971   4.271   6.097
18913TIP3   OH2 7206   6.305   4.404   5.919
18913TIP3    H1 7207   6.393   4.381   5.949
18913TIP3    H2 7208   6.313   4.493   5.886
18914TIP3   OH2 7209   6.895   4.110   6.528
18914TIP3    H1 7210   6.884   4.086   6.620
18914TIP3    H2 7211   6.820   4.071   6.484
18915TIP3   OH2 7212   6.213   4.439   5.591
18915TIP3    H1 7213   6.191   4.465   5.502
18915TIP3    H2 7214   6.299   4.478   5.607
18916TIP3   OH2 7215   7.251   5.682   7.211
18916TIP3    H1 7216   7.282   5.706   7.124
18916TIP3    H2 7217   7.324   5.705   7.269
18917TIP3   OH2 7218   6.024   4.989   7.133
18917TIP3    H1 7219   6.052   5.072   7.173
18917TIP3    H2 7220   5.950   4.961   7.186
18918TIP3   OH2 7221   6.600   4.508   6.447
18918TIP3    H1 7222   6.666   4.447   6.412
18918TIP3    H2 7223   6.567   4.464   6.526
18919TIP3   OH2 7224   6.038   4.090   6.105
18919TIP3    H1 7225   5.996   4.010   6.136
18919TIP3    H2 7226   6.107   4.060   6.046
18920TIP3   OH2 7227   6.520   4.384   6.677
18920TIP3    H1 7228   6.451   4.319   6.690
18920TIP3    H2 7229   6.569   4.383   6.760
18921TIP3   OH2 7230   6.538   4.909   5.839
18921TIP3    H1 7231   6.469   4.879   5.780
18921TIP3    H2 7232   6.491   4.952   5.911
18922TIP3   OH2 7233   7.231   4.875   6.694
18922TIP3    H1 7234   7.299   4.924   6.649
18922TIP3    H2 7235   7.165   4.857   6.627
18923TIP3   OH2 7236   6.881   4.196   5.729
18923TIP3    H1 7237   6.816   4.219   5.663
18923TIP3    H2 7238   6.914   4.280   5.760
18924TIP3   OH2 7239   6.713   4.981   6.987
18924TIP3    H1 7240   6.695   4.927   7.064
18924TIP3    H2 7241   6.660   5.060   7.000
18925TIP3   OH2 7242   6.982   4.421   5.851
18925TIP3    H1 7243   7.068   4.409   5.892
18925TIP3    H2 7244   6.984   4.510   5.816
18926TIP3   OH2 7245   6.047   4.839   6.367
18926TIP3    H1 7246   6.110   4.840   6.295
18926TIP3    H2 7247   6.094   4.797   6.439
18927TIP3   OH2 7248   6.759   5.068   5.779
18927TIP3    H1 7249   6.717   5.154   5.779
18927TIP3    H2 7250   6.687   5.007   5.796
18928TIP3   OH2 7251   5.744   4.698   6.959
18928TIP3    H1 7252   5.717   4.647   7.035
18928TIP3    H2 7253   5.682   4.675   6.890
18929TIP3   OH2 7254   6.424   4.654   7.221
18929TIP3    H1 7255   6.356   4.622   7.162
18929TIP3    H2 7256   6.501   4.600   7.201
18930TIP3   OH2 7257   6.880   5.248   6.989
18930TIP3    H1 7258   6.789   5.240   6.960
18930TIP3    H2 7259   6.873   5.274   7.080
18931TIP3   OH2 7260   7.411   4.450   5.780
18931TIP3    H1 7261   7.358   4.426   5.704
18931TIP3    H2 7262   7.432   4.543   5.766
18932TIP3   OH2 7263   7.472   5.054   7.093
18932TIP3    H1 7264   7.381   5.048   7.063
18932TIP3    H2 7265   7.524   5.031   7.016
18933TIP3   OH2 7266   7.305   5.317   5.856
18933TIP3    H1 7267   7.251   5.246   5.892
18933TIP3    H2 7268   7.320   5.290   5.765
18934TIP3   OH2 7269   7.032   4.804   6.502
18934TIP3    H1 7270   6.937   4.792   6.506
18934TIP3    H2 7271   7.064   4.726   6.457
18935TIP3   OH2 7272   6.313   5.236   6.187
18935TIP3    H1 7273   6.329   5.322   6.148
18935TIP3    H2 7274   6.235   5.248   6.241
18936TIP3   OH2 7275   5.864   4.635   5.680
18936TIP3    H1 7276   5.909   4.713   5.711
18936TIP3    H2 7277   5.771   4.656   5.689
18937TIP3   OH2 7278   6.357   5.022   6.018
18937TIP3    H1 7279   6.353   5.098   6.076
18937TIP3    H2 7280   6.317   4.951   6.069
18938TIP3   OH2 7281   6.497   5.395   6.766
18938TIP3    H1 7282   6.553   5.470   6.745
18938TIP3    H2 7283   6.550   5.340   6.824
18939TIP3   OH2 7284   6.294   5.498   6.072
18939TIP3    H1 7285   6.201   5.493   6.092
18939TIP3    H2 7286   6.323   5.580   6.111
18940TIP3   OH2 7287   6.804   5.024   6.730
18940TIP3    H1 7288   6.773   5.009   6.820
18940TIP3    H2 7289   6.861   4.950   6.711
18941TIP3   OH2 7290   7.027   5.123   5.710
18941TIP3    H1 7291   7.084   5.076   5.770
18941TIP3    H2 7292   6.938   5.102   5.740
18942TIP3   OH2 7293   7.094   5.420   6.948
18942TIP3    H1 7294   7.013   5.369   6.943
18942TIP3    H2 7295   7.082   5.491   6.885
18943TIP3   OH2 7296   7.497   5.524   5.651
18943TIP3    H1 7297   7.557   5.596   5.672
18943TIP3    H2 7298   7.410   5.563   5.654
18944TIP3   OH2 7299   5.885   4.178   6.915
18944TIP3    H1 7300   5.833   4.222   6.983
18944TIP3    H2 7301   5.936   4.113   6.963
18945TIP3   OH2 7302   7.188   4.984   5.898
18945TIP3    H1 7303   7.148   4.901   5.922
18945TIP3    H2 7304   7.282   4.967   5.896
18946TIP3   OH2 7305   5.888   5.349   6.742
18946TIP3    H1 7306   5.917   5.272   6.790
18946TIP3    H2 7307   5.885   5.418   6.808
18947TIP3   OH2 7308   6.448   5.140   5.511
18947TIP3    H1 7309   6.542   5.120   5.511
18947TIP3    H2 7310   6.427   5.151   5.604
18948TIP3   OH2 7311   6.319   5.162   5.770
18948TIP3    H1 7312   6.333   5.115   5.852
18948TIP3    H2 7313   6.339   5.253   5.791
18949TIP3   OH2 7314   5.970   4.872   5.799
18949TIP3    H1 7315   5.904   4.918   5.850
18949TIP3    H2 7316   6.010   4.940   5.745
18950TIP3   OH2 7317   6.869   4.061   6.791
18950TIP3    H1 7318   6.900   4.122   6.859
18950TIP3    H2 7319   6.800   4.010   6.834
18951TIP3   OH2 7320   6.876   4.064   5.969
18951TIP3    H1 7321   6.875   4.111   5.886
18951TIP3    H2 7322   6.918   4.125   6.030
18952TIP3   OH2 7323   6.626   5.303   5.766
18952TIP3    H1 7324   6.543   5.336   5.800
18952TIP3    H2 7325   6.668   5.379   5.725
18953TIP3   OH2 7326   6.543   4.311   6.015
18953TIP3    H1 7327   6.622   4.365   6.022
18953TIP3    H2 7328   6.539   4.264   6.098
18954TIP3   OH2 7329   6.656   4.403   6.925
18954TIP3    H1 7330   6.652   4.456   7.005
18954TIP3    H2 7331   6.621   4.317   6.951
18955TIP3   OH2 7332   6.632   3.969   6.053
18955TIP3    H1 7333   6.604   4.033   6.119
18955TIP3    H2 7334   6.723   3.991   6.034
18956TIP3   OH2 7335   6.385   5.428   5.823
18956TIP3    H1 7336   6.361   5.504   5.771
18956TIP3    H2 7337   6.358   5.450   5.912
18957TIP3   OH2 7338   6.235   4.169   5.792
18957TIP3    H1 7339   6.247   4.249   5.843
18957TIP3    H2 7340   6.319   4.124   5.797
18958TIP3   OH2 7341   7.245   4.159   7.019
18958TIP3    H1 7342   7.153   4.164   6.991
18958TIP3    H2 7343   7.296   4.172   6.939
18959TIP3   OH2 7344   7.103   4.552   6.384
18959TIP3    H1 7345   7.019   4.512   6.362
18959TIP3    H2 7346   7.145   4.490   6.444
18960TIP3   OH2 7347   6.071   5.089   5.654
18960TIP3    H1 7348   6.142   5.130   5.704
18960TIP3    H2 7349   6.115   5.045   5.581
18961TIP3   OH2 7350   5.898   4.375   5.602
18961TIP3    H1 7351   5.901   4.463   5.638
18961TIP3    H2 7352   5.843   4.383   5.524
18962TIP3   OH2 7353   7.233   5.510   6.548
18962TIP3    H1 7354   7.221   5.578   6.481
18962TIP3    H2 7355   7.326   5.515   6.570
18963TIP3   OH2 7356   5.866   3.864   6.455
18963TIP3    H1 7357   5.892   3.863   6.362
18963TIP3    H2 7358   5.888   3.777   6.487
18964TIP3   OH2 7359   5.834   5.301   6.048
18964TIP3    H1 7360   5.782   5.328   6.124
18964TIP3    H2 7361   5.816   5.367   5.982
18965TIP3   OH2 7362   5.772   5.581   7.263
18965TIP3    H1 7363   5.837   5.556   7.328
18965TIP3    H2 7364   5.739   5.498   7.229
18966TIP3   OH2 7365   6.202   5.511   7.302
18966TIP3    H1 7366   6.269   5.530   7.368
18966TIP3    H2 7367   6.231   5.429   7.262
18967TIP3   OH2 7368   6.630   5.369   5.452
18967TIP3    H1 7369   6.543   5.329   5.451
18967TIP3    H2 7370   6.689   5.295   5.463
18968TIP3   OH2 7371   6.867   5.294   7.258
18968TIP3    H1 7372   6.844   5.205   7.286
18968TIP3    H2 7373   6.944   5.316   7.310
18969TIP3   OH2 7374   7.098   5.335   5.547
18969TIP3    H1 7375   7.066   5.261   5.599
18969TIP3    H2 7376   7.193   5.324   5.546
18970TIP3   OH2 7377   5.820   4.899   7.292
18970TIP3    H1 7378   5.841   4.806   7.302
18970TIP3    H2 7379   5.724   4.901   7.290
18971TIP3   OH2 7380   6.240   4.960   5.482
18971TIP3    H1 7381   6.272   4.897   5.547
18971TIP3    H2 7382   6.313   5.021   5.471
18972TIP3   OH2 7383   6.466   4.928   7.219
18972TIP3    H1 7384   6.429   4.967   7.140
18972TIP3    H2 7385   6.456   4.834   7.206
18973TIP3   OH2 7386   6.725   5.108   5.500
18973TIP3    H1 7387   6.760   5.083   5.586
18973TIP3    H2 7388   6.797   5.089   5.439
18974TIP3   OH2 7389   7.031   5.024   7.114
18974TIP3    H1 7390   7.109   5.027   7.059
18974TIP3    H2 7391   6.965   5.072   7.064
18975TIP3   OH2 7392   5.826   4.628   7.328
18975TIP3    H1 7393   5.816   4.532   7.326
18975TIP3    H2 7394   5.765   4.657   7.395
18976TIP3   OH2 7395   6.334   4.783   5.692
18976TIP3    H1 7396   6.277   4.748   5.760
18976TIP3    H2 7397   6.375   4.706   5.653
18977TIP3   OH2 7398   6.242   4.581   7.011
18977TIP3    H1 7399   6.168   4.639   6.997
18977TIP3    H2 7400   6.310   4.613   6.952
18978TIP3   OH2 7401   6.460   4.565   5.561
18978TIP3    H1 7402   6.457   4.574   5.466
18978TIP3    H2 7403   6.553   4.552   5.580
18979TIP3   OH2 7404   6.773   4.795   7.232
18979TIP3    H1 7405   6.854   4.755   7.198
18979TIP3    H2 7406   6.713   4.721   7.242
18980TIP3   OH2 7407   7.345   4.811   5.486
18980TIP3    H1 7408   7.342   4.781   5.395
18980TIP3    H2 7409   7.400   4.889   5.484
18981TIP3   OH2 7410   6.323   4.316   7.061
18981TIP3    H1 7411   6.320   4.261   6.983
18981TIP3    H2 7412   6.290   4.401   7.032
18982TIP3   OH2 7413   6.446   4.675   6.857
18982TIP3    H1 7414   6.492   4.619   6.795
18982TIP3    H2 7415   6.428   4.755   6.808
18983TIP3   OH2 7416   6.897   4.464   7.338
18983TIP3    H1 7417   6.892   4.381   7.291
18983TIP3    H2 7418   6.989   4.473   7.363
18984TIP3   OH2 7419   7.058   4.743   7.115
18984TIP3    H1 7420   7.036   4.835   7.104
18984TIP3    H2 7421   7.154   4.741   7.116
18985TIP3   OH2 7422   6.213   4.318   7.326
18985TIP3    H1 7423   6.131   4.269   7.320
18985TIP3    H2 7424   6.249   4.318   7.237
18986TIP3   OH2 7425   6.398   3.862   6.914
18986TIP3    H1 7426   6.382   3.953   6.888
18986TIP3    H2 7427   6.324   3.813   6.879
18987TIP3   OH2 7428   6.551   4.249   7.201
18987TIP3    H1 7429   6.536   4.166   7.246
18987TIP3    H2 7430   6.469   4.267   7.156
18988TIP3   OH2 7431   6.833   4.233   7.202
18988TIP3    H1 7432   6.738   4.217   7.200
18988TIP3    H2 7433   6.867   4.167   7.262
18989TIP3   OH2 7434   6.966   4.076   7.388
18989TIP3    H1 7435   6.968   3.989   7.349
18989TIP3    H2 7436   6.955   4.059   7.482
18990TIP3   OH2 7437   5.991   4.158   7.281
18990TIP3    H1 7438   6.013   4.117   7.198
18990TIP3    H2 7439   5.929   4.097   7.322
18991TIP3   OH2 7440   6.478   3.774   7.164
18991TIP3    H1 7441   6.410   3.724   7.210
18991TIP3    H2 7442   6.435   3.807   7.085
18992TIP3   OH2 7443   6.532   4.001   7.322
18992TIP3    H1 7444   6.517   3.930   7.260
18992TIP3    H2 7445   6.515   3.962   7.408
18993TIP3   OH2 7446   6.447   5.706   5.620
18993TIP3    H1 7447   6.527   5.657   5.642
18993TIP3    H2 7448   6.432   5.686   5.527
18994TIP3   OH2 7449   5.793   5.137   5.618
18994TIP3    H1 7450   5.888   5.135   5.630
18994TIP3    H2 7451   5.778   5.091   5.535
18995TIP3   OH2 7452   5.676   5.629   6.152
18995TIP3    H1 7453   5.613   5.601   6.086
18995TIP3    H2 7454   5.690   5.553   6.207
18996TIP3   OH2 7455   5.740   5.404   6.303
18996TIP3    H1 7456   5.699   5.333   6.351
18996TIP3    H2 7457   5.795   5.449   6.368
18997TIP3   OH2 7458   7.491   5.542   6.632
18997TIP3    H1 7459   7.500   5.517   6.724
18997TIP3    H2 7460   7.580   5.537   6.597
18998TIP3   OH2 7461   7.447   5.466   6.904
18998TIP3    H1 7462   7.399   5.392   6.866
18998TIP3    H2 7463   7.490   5.430   6.981
18999TIP3   OH2 7464   7.259   5.087   7.401
18999TIP3    H1 7465   7.306   5.003   7.399
18999TIP3    H2 7466   7.319   5.146   7.447
19000TIP3   OH2 7467   7.454   4.894   5.916
19000TIP3    H1 7468   7.526   4.958   5.922
19000TIP3    H2 7469   7.472   4.832   5.987
19001TIP3   OH2 7470   7.501   4.694   6.104
19001TIP3    H1 7471   7.415   4.666   6.134
19001TIP3    H2 7472   7.551   4.709   6.185
19002TIP3   OH2 7473   7.477   4.979   6.618
19002TIP3    H1 7474   7.532   4.909   6.582
19002TIP3    H2 7475   7.517   5.060   6.584
19003TIP3   OH2 7476   7.277   5.263   6.812
19003TIP3    H1 7477   7.209   5.315   6.854
19003TIP3    H2 7478   7.247   5.250   6.722
19004TIP3   OH2 7479   7.469   4.709   5.712
19004TIP3    H1 7480   7.426   4.745   5.634
19004TIP3    H2 7481   7.460   4.778   5.778
19005TIP3   OH2 7482   7.281   4.392   5.533
19005TIP3    H1 7483   7.311   4.457   5.469
19005TIP3    H2 7484   7.293   4.308   5.489
19006TIP3   OH2 7485   7.244   4.585   6.147
19006TIP3    H1 7486   7.241   4.494   6.117
19006TIP3    H2 7487   7.201   4.584   6.233
19007TIP3   OH2 7488   5.730   4.777   6.570
19007TIP3    H1 7489   5.746   4.762   6.477
19007TIP3    H2 7490   5.808   4.745   6.614
19008TIP3   OH2 7491   7.336   4.753   7.118
19008TIP3    H1 7492   7.383   4.671   7.105
19008TIP3    H2 7493   7.376   4.814   7.056
19009TIP3   OH2 7494   7.452   4.508   7.094
19009TIP3    H1 7495   7.369   4.472   7.126
19009TIP3    H2 7496   7.520   4.456   7.138
19010TIP3   OH2 7497   7.263   4.115   5.452
19010TIP3    H1 7498   7.330   4.092   5.516
19010TIP3    H2 7499   7.182   4.119   5.503
19011TIP3   OH2 7500   7.233   4.342   5.976
19011TIP3    H1 7501   7.261   4.250   5.980
19011TIP3    H2 7502   7.297   4.384   5.920
19012TIP3   OH2 7503   7.246   4.362   6.537
19012TIP3    H1 7504   7.338   4.379   6.516
19012TIP3    H2 7505   7.241   4.375   6.632
19013TIP3   OH2 7506   7.273   4.435   6.812
19013TIP3    H1 7507   7.194   4.465   6.857
19013TIP3    H2 7508   7.322   4.515   6.795
19014TIP3   OH2 7509   5.741   4.274   7.127
19014TIP3    H1 7510   5.775   4.298   7.214
19014TIP3    H2 7511   5.676   4.206   7.145
19015TIP3   OH2 7512   7.586   3.845   7.278
19015TIP3    H1 7513   7.562   3.793   7.355
19015TIP3    H2 7514   7.524   3.918   7.279
19016TIP3   OH2 7515   7.294   4.070   5.992
19016TIP3    H1 7516   7.323   4.032   6.075
19016TIP3    H2 7517   7.223   4.012   5.963
19017TIP3   OH2 7518   5.838   4.131   6.492
19017TIP3    H1 7519   5.888   4.050   6.483
19017TIP3    H2 7520   5.904   4.198   6.507
19018TIP3   OH2 7521   5.630   4.404   6.534
19018TIP3    H1 7522   5.701   4.416   6.471
19018TIP3    H2 7523   5.646   4.472   6.600
19019TIP3   OH2 7524   7.412   4.068   7.227
19019TIP3    H1 7525   7.355   4.102   7.296
19019TIP3    H2 7526   7.362   4.082   7.146
19020TIP3   OH2 7527   7.455   4.045   5.629
19020TIP3    H1 7528   7.520   3.975   5.629
19020TIP3    H2 7529   7.500   4.121   5.665
19021TIP3   OH2 7530   5.679   4.017   5.918
19021TIP3    H1 7531   5.594   4.024   5.960
19021TIP3    H2 7532   5.695   4.105   5.883
19022TIP3   OH2 7533   7.172   5.560   6.166
19022TIP3    H1 7534   7.241   5.569   6.101
19022TIP3    H2 7535   7.198   5.617   6.238
19023TIP3   OH2 7536   5.725   3.960   6.828
19023TIP3    H1 7537   5.656   3.936   6.891
19023TIP3    H2 7538   5.767   4.037   6.866
19024TIP3   OH2 7539   5.908   5.268   7.217
19024TIP3    H1 7540   5.826   5.295   7.175
19024TIP3    H2 7541   5.881   5.235   7.303
19025TIP3   OH2 7542   6.239   5.375   6.863
19025TIP3    H1 7543   6.204   5.461   6.842
19025TIP3    H2 7544   6.331   5.379   6.837
19026TIP3   OH2 7545   6.592   5.483   7.120
19026TIP3    H1 7546   6.598   5.461   7.213
19026TIP3    H2 7547   6.672   5.531   7.102
19027TIP3   OH2 7548   6.825   5.621   7.076
19027TIP3    H1 7549   6.886   5.575   7.019
19027TIP3    H2 7550   6.879   5.649   7.151
19028TIP3   OH2 7551   7.341   3.846   6.953
19028TIP3    H1 7552   7.282   3.891   6.893
19028TIP3    H2 7553   7.338   3.754   6.925
19029TIP3   OH2 7554   5.923   5.672   6.854
19029TIP3    H1 7555   5.843   5.705   6.812
19029TIP3    H2 7556   5.920   5.709   6.942
19030TIP3   OH2 7557   6.186   5.637   6.789
19030TIP3    H1 7558   6.094   5.649   6.814
19030TIP3    H2 7559   6.193   5.679   6.703
19031TIP3   OH2 7560   6.631   5.622   6.678
19031TIP3    H1 7561   6.577   5.660   6.608
19031TIP3    H2 7562   6.638   5.691   6.743
19032TIP3   OH2 7563   6.856   5.497   6.777
19032TIP3    H1 7564   6.780   5.540   6.737
19032TIP3    H2 7565   6.929   5.555   6.757
19033TIP3   OH2 7566   7.099   5.626   6.758
19033TIP3    H1 7567   7.126   5.718   6.752
19033TIP3    H2 7568   7.143   5.583   6.684
19034TIP3   OH2 7569   5.908   5.504   6.504
19034TIP3    H1 7570   5.889   5.464   6.589
19034TIP3    H2 7571   5.987   5.459   6.474
19035TIP3   OH2 7572   6.126   5.374   6.398
19035TIP3    H1 7573   6.110   5.283   6.423
19035TIP3    H2 7574   6.207   5.397   6.444
19036TIP3   OH2 7575   6.374   5.414   6.518
19036TIP3    H1 7576   6.391   5.325   6.487
19036TIP3    H2 7577   6.406   5.414   6.609
19037TIP3   OH2 7578   6.678   3.982   6.398
19037TIP3    H1 7579   6.617   3.914   6.425
19037TIP3    H2 7580   6.748   3.934   6.352
19038TIP3   OH2 7581   7.206   3.854   6.367
19038TIP3    H1 7582   7.282   3.894   6.325
19038TIP3    H2 7583   7.153   3.929   6.395
19039TIP3   OH2 7584   7.411   3.949   6.210
19039TIP3    H1 7585   7.470   3.877   6.189
19039TIP3    H2 7586   7.469   4.022   6.233
19040TIP3   OH2 7587   5.928   3.847   6.180
19040TIP3    H1 7588   5.839   3.822   6.157
19040TIP3    H2 7589   5.978   3.766   6.173
19041TIP3   OH2 7590   5.763   3.892   5.691
19041TIP3    H1 7591   5.850   3.930   5.680
19041TIP3    H2 7592   5.736   3.919   5.779
19042TIP3   OH2 7593   6.424   3.819   6.177
19042TIP3    H1 7594   6.498   3.869   6.142
19042TIP3    H2 7595   6.436   3.821   6.272
19043TIP3   OH2 7596   6.885   3.846   6.281
19043TIP3    H1 7597   6.966   3.832   6.231
19043TIP3    H2 7598   6.873   3.765   6.330
19044TIP3   OH2 7599   7.087   3.898   5.903
19044TIP3    H1 7600   7.013   3.955   5.924
19044TIP3    H2 7601   7.052   3.810   5.912
19045TIP3   OH2 7602   5.802   5.494   5.853
19045TIP3    H1 7603   5.728   5.483   5.792
19045TIP3    H2 7604   5.800   5.587   5.875
19046TIP3   OH2 7605   6.033   4.013   5.656
19046TIP3    H1 7606   6.036   3.924   5.619
19046TIP3    H2 7607   6.101   4.013   5.723
19047TIP3   OH2 7608   6.501   4.100   5.842
19047TIP3    H1 7609   6.533   4.033   5.902
19047TIP3    H2 7610   6.518   4.183   5.888
19048TIP3   OH2 7611   6.681   5.559   5.649
19048TIP3    H1 7612   6.776   5.566   5.651
19048TIP3    H2 7613   6.663   5.507   5.570
19049TIP3   OH2 7614   7.361   5.566   5.955
19049TIP3    H1 7615   7.344   5.476   5.926
19049TIP3    H2 7616   7.349   5.619   5.876
19050TIP3   OH2 7617   5.998   3.982   7.060
19050TIP3    H1 7618   5.939   3.935   7.119
19050TIP3    H2 7619   6.084   3.946   7.079
19051TIP3   OH2 7620   6.177   3.853   7.223
19051TIP3    H1 7621   6.218   3.770   7.249
19051TIP3    H2 7622   6.092   3.853   7.268
19052TIP3   OH2 7623   6.024   5.588   5.622
19052TIP3    H1 7624   5.967   5.539   5.682
19052TIP3    H2 7625   6.048   5.524   5.555
19053TIP3   OH2 7626   6.975   3.812   7.312
19053TIP3    H1 7627   6.943   3.757   7.384
19053TIP3    H2 7628   7.068   3.791   7.305
19054TIP3   OH2 7629   7.238   5.408   7.186
19054TIP3    H1 7630   7.192   5.401   7.102
19054TIP3    H2 7631   7.247   5.502   7.201
19055TIP3   OH2 7632   7.871   4.679   6.683
19055TIP3    H1 7633   7.876   4.592   6.724
19055TIP3    H2 7634   7.894   4.740   6.753
19056TIP3   OH2 7635   7.890   5.098   6.501
19056TIP3    H1 7636   7.891   5.008   6.468
19056TIP3    H2 7637   7.937   5.094   6.584
19057TIP3   OH2 7638   7.618   4.469   5.983
19057TIP3    H1 7639   7.593   4.547   6.031
19057TIP3    H2 7640   7.547   4.456   5.920
19058TIP3   OH2 7641   7.677   4.709   6.319
19058TIP3    H1 7642   7.707   4.619   6.329
19058TIP3    H2 7643   7.755   4.762   6.338
19059TIP3   OH2 7644   8.060   4.177   6.373
19059TIP3    H1 7645   8.073   4.242   6.303
19059TIP3    H2 7646   0.005   4.152   6.399
19060TIP3   OH2 7647   7.750   4.448   6.366
19060TIP3    H1 7648   7.808   4.411   6.432
19060TIP3    H2 7649   7.778   4.409   6.284
19061TIP3   OH2 7650   7.985   4.118   6.741
19061TIP3    H1 7651   7.976   4.193   6.682
19061TIP3    H2 7652   7.915   4.130   6.805
19062TIP3   OH2 7653   7.920   4.319   6.548
19062TIP3    H1 7654   7.981   4.390   6.562
19062TIP3    H2 7655   7.963   4.262   6.484
19063TIP3   OH2 7656   8.017   5.100   6.746
19063TIP3    H1 7657   8.057   5.180   6.780
19063TIP3    H2 7658   7.942   5.084   6.803
19064TIP3   OH2 7659   7.677   5.066   5.919
19064TIP3    H1 7660   7.677   5.111   5.835
19064TIP3    H2 7661   7.697   5.134   5.983
19065TIP3   OH2 7662   8.064   4.759   6.220
19065TIP3    H1 7663   8.049   4.765   6.126
19065TIP3    H2 7664   0.013   4.738   6.228
19066TIP3   OH2 7665   7.894   4.819   6.919
19066TIP3    H1 7666   7.922   4.868   6.997
19066TIP3    H2 7667   7.813   4.776   6.947
19067TIP3   OH2 7668   8.117   5.356   7.129
19067TIP3    H1 7669   8.107   5.346   7.034
19067TIP3    H2 7670   8.030   5.338   7.164
19068TIP3   OH2 7671   7.992   4.690   5.937
19068TIP3    H1 7672   7.958   4.766   5.889
19068TIP3    H2 7673   7.913   4.646   5.970
19069TIP3   OH2 7674   7.597   4.958   6.871
19069TIP3    H1 7675   7.553   4.960   6.786
19069TIP3    H2 7676   7.613   4.865   6.888
19070TIP3   OH2 7677   7.636   5.201   6.549
19070TIP3    H1 7678   7.722   5.166   6.524
19070TIP3    H2 7679   7.654   5.257   6.625
19071TIP3   OH2 7680   7.920   5.484   6.175
19071TIP3    H1 7681   7.944   5.445   6.259
19071TIP3    H2 7682   7.874   5.415   6.128
19072TIP3   OH2 7683   7.807   5.130   6.926
19072TIP3    H1 7684   7.851   5.096   7.004
19072TIP3    H2 7685   7.736   5.068   6.910
19073TIP3   OH2 7686   8.055   3.897   6.552
19073TIP3    H1 7687   7.976   3.907   6.498
19073TIP3    H2 7688   8.067   3.983   6.592
19074TIP3   OH2 7689   0.018   4.502   6.808
19074TIP3    H1 7690   8.070   4.481   6.827
19074TIP3    H2 7691   0.026   4.489   6.714
19075TIP3   OH2 7692   8.093   4.373   6.186
19075TIP3    H1 7693   8.001   4.377   6.159
19075TIP3    H2 7694   8.139   4.427   6.122
19076TIP3   OH2 7695   7.891   4.453   6.851
19076TIP3    H1 7696   7.908   4.472   6.944
19076TIP3    H2 7697   7.848   4.367   6.852
19077TIP3   OH2 7698   7.593   4.146   6.256
19077TIP3    H1 7699   7.614   4.152   6.349
19077TIP3    H2 7700   7.664   4.192   6.211
19078TIP3   OH2 7701   7.607   4.257   5.724
19078TIP3    H1 7702   7.680   4.299   5.677
19078TIP3    H2 7703   7.550   4.329   5.749
19079TIP3   OH2 7704   7.821   4.335   6.124
19079TIP3    H1 7705   7.756   4.366   6.060
19079TIP3    H2 7706   7.852   4.252   6.088
19080TIP3   OH2 7707   8.050   4.436   5.659
19080TIP3    H1 7708   7.965   4.423   5.617
19080TIP3    H2 7709   8.032   4.496   5.731
19081TIP3   OH2 7710   7.924   4.984   7.145
19081TIP3    H1 7711   7.978   5.005   7.221
19081TIP3    H2 7712   7.838   4.962   7.181
19082TIP3   OH2 7713   7.944   4.090   6.080
19082TIP3    H1 7714   7.904   4.007   6.107
19082TIP3    H2 7715   8.031   4.088   6.121
19083TIP3   OH2 7716   7.903   4.827   6.433
19083TIP3    H1 7717   7.969   4.803   6.367
19083TIP3    H2 7718   7.925   4.773   6.509
19084TIP3   OH2 7719   7.636   4.704   6.972
19084TIP3    H1 7720   7.678   4.676   7.053
19084TIP3    H2 7721   7.570   4.637   6.955
19085TIP3   OH2 7722   7.744   4.671   5.672
19085TIP3    H1 7723   7.786   4.749   5.707
19085TIP3    H2 7724   7.650   4.687   5.683
19086TIP3   OH2 7725   7.771   4.203   6.904
19086TIP3    H1 7726   7.679   4.214   6.881
19086TIP3    H2 7727   7.771   4.197   6.999
19087TIP3   OH2 7728   7.745   5.361   6.770
19087TIP3    H1 7729   7.770   5.288   6.826
19087TIP3    H2 7730   7.760   5.439   6.825
19088TIP3   OH2 7731   7.862   4.894   5.799
19088TIP3    H1 7732   7.797   4.940   5.852
19088TIP3    H2 7733   7.897   4.961   5.740
19089TIP3   OH2 7734   8.078   4.154   5.644
19089TIP3    H1 7735   8.077   4.248   5.657
19089TIP3    H2 7736   8.123   4.119   5.721
19090TIP3   OH2 7737   7.989   5.096   5.626
19090TIP3    H1 7738   8.043   5.156   5.678
19090TIP3    H2 7739   8.052   5.032   5.590
19091TIP3   OH2 7740   7.788   4.425   5.566
19091TIP3    H1 7741   7.769   4.509   5.606
19091TIP3    H2 7742   7.787   4.442   5.472
19092TIP3   OH2 7743   7.802   3.900   6.438
19092TIP3    H1 7744   7.809   3.894   6.343
19092TIP3    H2 7745   7.789   3.809   6.467
19093TIP3   OH2 7746   7.733   5.305   6.060
19093TIP3    H1 7747   7.679   5.337   6.132
19093TIP3    H2 7748   7.719   5.368   5.989
19094TIP3   OH2 7749   7.687   5.585   7.263
19094TIP3    H1 7750   7.748   5.558   7.331
19094TIP3    H2 7751   7.650   5.503   7.230
19095TIP3   OH2 7752   7.678   4.927   7.237
19095TIP3    H1 7753   7.663   4.834   7.249
19095TIP3    H2 7754   7.594   4.962   7.207
19096TIP3   OH2 7755   0.050   4.950   5.519
19096TIP3    H1 7756   0.085   4.865   5.545
19096TIP3    H2 7757   0.068   4.956   5.425
19097TIP3   OH2 7758   7.766   4.631   7.198
19097TIP3    H1 7759   7.844   4.578   7.182
19097TIP3    H2 7760   7.761   4.639   7.293
19098TIP3   OH2 7761   7.976   4.458   7.114
19098TIP3    H1 7762   7.949   4.374   7.151
19098TIP3    H2 7763   8.071   4.451   7.106
19099TIP3   OH2 7764   7.921   4.209   7.214
19099TIP3    H1 7765   7.896   4.117   7.208
19099TIP3    H2 7766   7.869   4.243   7.286
19100TIP3   OH2 7767   7.720   5.167   5.669
19100TIP3    H1 7768   7.810   5.148   5.641
19100TIP3    H2 7769   7.665   5.128   5.600
19101TIP3   OH2 7770   7.548   5.623   6.149
19101TIP3    H1 7771   7.491   5.598   6.077
19101TIP3    H2 7772   7.559   5.543   6.201
19102TIP3   OH2 7773   7.612   5.398   6.304
19102TIP3    H1 7774   7.572   5.321   6.345
19102TIP3    H2 7775   7.662   5.439   6.374
19103TIP3   OH2 7776   7.616   4.734   6.588
19103TIP3    H1 7777   7.627   4.729   6.493
19103TIP3    H2 7778   7.704   4.720   6.623
19104TIP3   OH2 7779   7.601   4.270   7.157
19104TIP3    H1 7780   7.653   4.302   7.231
19104TIP3    H2 7781   7.548   4.199   7.192
19105TIP3   OH2 7782   7.690   4.143   6.515
19105TIP3    H1 7783   7.733   4.059   6.500
19105TIP3    H2 7784   7.761   4.201   6.542
19106TIP3   OH2 7785   7.510   4.440   6.516
19106TIP3    H1 7786   7.585   4.431   6.457
19106TIP3    H2 7787   7.534   4.512   6.574
19107TIP3   OH2 7788   7.573   4.034   5.903
19107TIP3    H1 7789   7.491   4.049   5.949
19107TIP3    H2 7790   7.599   4.121   5.871
19108TIP3   OH2 7791   7.552   3.887   6.766
19108TIP3    H1 7792   7.494   3.882   6.843
19108TIP3    H2 7793   7.526   3.968   6.723
19109TIP3   OH2 7794   7.864   5.299   7.227
19109TIP3    H1 7795   7.780   5.263   7.200
19109TIP3    H2 7796   7.871   5.278   7.320
19110TIP3   OH2 7797   8.110   5.339   6.849
19110TIP3    H1 7798   8.064   5.410   6.804
19110TIP3    H2 7799   0.057   5.349   6.823
19111TIP3   OH2 7800   7.794   5.635   6.867
19111TIP3    H1 7801   7.725   5.693   6.836
19111TIP3    H2 7802   7.824   5.673   6.950
19112TIP3   OH2 7803   8.016   5.560   6.721
19112TIP3    H1 7804   7.934   5.588   6.760
19112TIP3    H2 7805   8.079   5.629   6.745
19113TIP3   OH2 7806   7.760   5.498   6.528
19113TIP3    H1 7807   7.760   5.458   6.615
19113TIP3    H2 7808   7.840   5.465   6.487
19114TIP3   OH2 7809   7.966   5.353   6.418
19114TIP3    H1 7810   7.933   5.264   6.430
19114TIP3    H2 7811   8.048   5.355   6.466
19115TIP3   OH2 7812   7.819   3.845   6.165
19115TIP3    H1 7813   7.728   3.826   6.144
19115TIP3    H2 7814   7.861   3.759   6.169
19116TIP3   OH2 7815   7.659   3.862   5.711
19116TIP3    H1 7816   7.746   3.895   5.686
19116TIP3    H2 7817   7.636   3.912   5.789
19117TIP3   OH2 7818   7.708   5.479   5.845
19117TIP3    H1 7819   7.644   5.436   5.789
19117TIP3    H2 7820   7.685   5.572   5.840
19118TIP3   OH2 7821   7.883   3.959   5.592
19118TIP3    H1 7822   7.943   3.939   5.520
19118TIP3    H2 7823   7.925   4.032   5.638
19119TIP3   OH2 7824   7.831   3.941   7.211
19119TIP3    H1 7825   7.742   3.918   7.236
19119TIP3    H2 7826   7.880   3.944   7.293
19120TIP3   OH2 7827   8.066   3.768   7.226
19120TIP3    H1 7828   0.012   3.736   7.226
19120TIP3    H2 7829   8.024   3.723   7.300
19121TIP3   OH2 7830   7.893   5.570   5.632
19121TIP3    H1 7831   7.848   5.552   5.715
19121TIP3    H2 7832   7.884   5.489   5.582
19122TIP3   OH2 7833   1.195   6.687   6.118
19122TIP3    H1 7834   1.182   6.781   6.104
19122TIP3    H2 7835   1.167   6.673   6.209
19123TIP3   OH2 7836   1.042   6.601   6.530
19123TIP3    H1 7837   1.080   6.565   6.610
19123TIP3    H2 7838   0.999   6.527   6.488
19124TIP3   OH2 7839   0.316   6.614   6.575
19124TIP3    H1 7840   0.268   6.565   6.642
19124TIP3    H2 7841   0.408   6.592   6.590
19125TIP3   OH2 7842   1.464   6.928   6.358
19125TIP3    H1 7843   1.442   6.847   6.404
19125TIP3    H2 7844   1.487   6.990   6.428
19126TIP3   OH2 7845   0.379   7.006   6.504
19126TIP3    H1 7846   0.376   6.926   6.452
19126TIP3    H2 7847   0.423   6.980   6.585
19127TIP3   OH2 7848   0.119   6.449   5.962
19127TIP3    H1 7849   0.153   6.508   6.029
19127TIP3    H2 7850   0.062   6.389   6.009
19128TIP3   OH2 7851   0.196   6.583   6.199
19128TIP3    H1 7852   0.224   6.506   6.248
19128TIP3    H2 7853   0.245   6.656   6.237
19129TIP3   OH2 7854   1.197   7.375   6.411
19129TIP3    H1 7855   1.230   7.319   6.340
19129TIP3    H2 7856   1.190   7.316   6.486
19130TIP3   OH2 7857   0.941   6.860   6.569
19130TIP3    H1 7858   0.970   6.773   6.540
19130TIP3    H2 7859   1.010   6.889   6.628
19131TIP3   OH2 7860   1.820   5.984   6.646
19131TIP3    H1 7861   1.812   6.051   6.715
19131TIP3    H2 7862   1.890   6.017   6.590
19132TIP3   OH2 7863   1.233   6.287   6.527
19132TIP3    H1 7864   1.248   6.195   6.549
19132TIP3    H2 7865   1.195   6.284   6.438
19133TIP3   OH2 7866   0.578   6.098   6.309
19133TIP3    H1 7867   0.589   6.176   6.255
19133TIP3    H2 7868   0.534   6.035   6.251
19134TIP3   OH2 7869   1.357   6.125   6.136
19134TIP3    H1 7870   1.398   6.096   6.218
19134TIP3    H2 7871   1.428   6.167   6.088
19135TIP3   OH2 7872   0.267   6.349   6.324
19135TIP3    H1 7873   0.324   6.313   6.393
19135TIP3    H2 7874   0.279   6.289   6.250
19136TIP3   OH2 7875   0.704   6.485   6.327
19136TIP3    H1 7876   0.784   6.445   6.361
19136TIP3    H2 7877   0.667   6.418   6.269
19137TIP3   OH2 7878   1.784   6.144   6.868
19137TIP3    H1 7879   1.733   6.224   6.854
19137TIP3    H2 7880   1.845   6.167   6.938
19138TIP3   OH2 7881   0.432   6.003   6.727
19138TIP3    H1 7882   0.403   6.083   6.683
19138TIP3    H2 7883   0.370   5.990   6.798
19139TIP3   OH2 7884   1.172   6.952   6.042
19139TIP3    H1 7885   1.162   6.946   5.947
19139TIP3    H2 7886   1.127   7.033   6.067
19140TIP3   OH2 7887   0.702   6.786   6.690
19140TIP3    H1 7888   0.643   6.857   6.718
19140TIP3    H2 7889   0.778   6.831   6.653
19141TIP3   OH2 7890   1.469   6.070   6.377
19141TIP3    H1 7891   1.400   6.045   6.437
19141TIP3    H2 7892   1.529   6.123   6.429
19142TIP3   OH2 7893   0.417   6.198   6.506
19142TIP3    H1 7894   0.471   6.245   6.570
19142TIP3    H2 7895   0.480   6.154   6.449
19143TIP3   OH2 7896   0.521   6.989   6.773
19143TIP3    H1 7897   0.549   7.080   6.787
19143TIP3    H2 7898   0.440   6.981   6.823
19144TIP3   OH2 7899   0.079   6.914   5.862
19144TIP3    H1 7900   0.093   6.961   5.780
19144TIP3    H2 7901   0.092   6.981   5.930
19145TIP3   OH2 7902   1.483   7.126   6.557
19145TIP3    H1 7903   1.388   7.127   6.568
19145TIP3    H2 7904   1.505   7.217   6.536
19146TIP3   OH2 7905   1.569   5.864   6.655
19146TIP3    H1 7906   1.542   5.913   6.733
19146TIP3    H2 7907   1.656   5.898   6.634
19147TIP3   OH2 7908   0.776   5.692   6.454
19147TIP3    H1 7909   0.760   5.599   6.468
19147TIP3    H2 7910   0.700   5.736   6.493
19148TIP3   OH2 7911   1.313   7.259   6.179
19148TIP3    H1 7912   1.363   7.179   6.164
19148TIP3    H2 7913   1.379   7.327   6.188
19149TIP3   OH2 7914   1.439   7.026   6.104
19149TIP3    H1 7915   1.358   6.981   6.081
19149TIP3    H2 7916   1.465   6.988   6.187
19150TIP3   OH2 7917   1.614   6.915   6.917
19150TIP3    H1 7918   1.612   6.859   6.839
19150TIP3    H2 7919   1.628   7.003   6.883
19151TIP3   OH2 7920   1.043   6.560   5.815
19151TIP3    H1 7921   0.999   6.642   5.840
19151TIP3    H2 7922   1.135   6.584   5.808
19152TIP3   OH2 7923   1.077   6.440   5.555
19152TIP3    H1 7924   1.076   6.476   5.644
19152TIP3    H2 7925   1.159   6.392   5.549
19153TIP3   OH2 7926   1.753   6.558   6.721
19153TIP3    H1 7927   1.691   6.631   6.720
19153TIP3    H2 7928   1.832   6.593   6.681
19154TIP3   OH2 7929   1.428   6.632   5.985
19154TIP3    H1 7930   1.349   6.648   6.036
19154TIP3    H2 7931   1.487   6.587   6.045
19155TIP3   OH2 7932   1.359   6.420   6.927
19155TIP3    H1 7933   1.377   6.495   6.983
19155TIP3    H2 7934   1.291   6.449   6.867
19156TIP3   OH2 7935   0.582   6.688   6.181
19156TIP3    H1 7936   0.565   6.642   6.099
19156TIP3    H2 7937   0.632   6.625   6.233
19157TIP3   OH2 7938   0.779   7.043   6.432
19157TIP3    H1 7939   0.784   7.004   6.345
19157TIP3    H2 7940   0.837   6.989   6.486
19158TIP3   OH2 7941   0.585   6.566   6.570
19158TIP3    H1 7942   0.636   6.548   6.491
19158TIP3    H2 7943   0.632   6.638   6.612
19159TIP3   OH2 7944   1.214   7.126   6.613
19159TIP3    H1 7945   1.202   7.200   6.672
19159TIP3    H2 7946   1.186   7.050   6.663
19160TIP3   OH2 7947   0.714   6.991   7.034
19160TIP3    H1 7948   0.640   7.043   7.066
19160TIP3    H2 7949   0.684   6.952   6.952
19161TIP3   OH2 7950   1.311   6.560   5.747
19161TIP3    H1 7951   1.366   6.598   5.815
19161TIP3    H2 7952   1.358   6.578   5.665
19162TIP3   OH2 7953   0.425   6.605   6.961
19162TIP3    H1 7954   0.424   6.671   7.030
19162TIP3    H2 7955   0.338   6.609   6.923
19163TIP3   OH2 7956   1.071   7.217   6.059
19163TIP3    H1 7957   1.149   7.229   6.113
19163TIP3    H2 7958   1.036   7.306   6.049
19164TIP3   OH2 7959   0.492   7.130   7.100
19164TIP3    H1 7960   0.512   7.213   7.056
19164TIP3    H2 7961   0.408   7.146   7.144
19165TIP3   OH2 7962   1.657   5.723   5.749
19165TIP3    H1 7963   1.574   5.747   5.790
19165TIP3    H2 7964   1.702   5.806   5.734
19166TIP3   OH2 7965   0.505   6.595   5.910
19166TIP3    H1 7966   0.432   6.651   5.883
19166TIP3    H2 7967   0.464   6.511   5.931
19167TIP3   OH2 7968   1.761   7.166   5.633
19167TIP3    H1 7969   1.789   7.258   5.638
19167TIP3    H2 7970   1.842   7.116   5.632
19168TIP3   OH2 7971   0.079   6.840   6.892
19168TIP3    H1 7972   0.001   6.855   6.839
19168TIP3    H2 7973   0.066   6.753   6.930
19169TIP3   OH2 7974   0.128   7.139   6.513
19169TIP3    H1 7975   0.201   7.078   6.500
19169TIP3    H2 7976   0.146   7.180   6.597
19170TIP3   OH2 7977   1.844   7.169   7.110
19170TIP3    H1 7978   1.843   7.082   7.149
19170TIP3    H2 7979   1.772   7.215   7.152
19171TIP3   OH2 7980   0.941   7.151   6.994
19171TIP3    H1 7981   0.942   7.227   7.052
19171TIP3    H2 7982   0.862   7.103   7.020
19172TIP3   OH2 7983   1.025   7.464   5.935
19172TIP3    H1 7984   1.014   7.473   5.841
19172TIP3    H2 7985   1.005   7.551   5.970
19173TIP3   OH2 7986   0.399   7.375   6.196
19173TIP3    H1 7987   0.443   7.347   6.276
19173TIP3    H2 7988   0.320   7.321   6.191
19174TIP3   OH2 7989   1.309   7.397   5.639
19174TIP3    H1 7990   1.371   7.330   5.613
19174TIP3    H2 7991   1.316   7.402   5.735
19175TIP3   OH2 7992   1.299   7.413   5.916
19175TIP3    H1 7993   1.206   7.418   5.936
19175TIP3    H2 7994   1.337   7.367   5.991
19176TIP3   OH2 7995   1.578   6.300   7.123
19176TIP3    H1 7996   1.496   6.348   7.123
19176TIP3    H2 7997   1.567   6.233   7.191
19177TIP3   OH2 7998   0.272   7.033   6.901
19177TIP3    H1 7999   0.269   7.058   6.993
19177TIP3    H2 8000   0.209   6.962   6.893
19178TIP3   OH2 8001   0.536   5.806   6.558
19178TIP3    H1 8002   0.462   5.806   6.497
19178TIP3    H2 8003   0.517   5.878   6.618
19179TIP3   OH2 8004   1.040   5.771   6.911
19179TIP3    H1 8005   1.084   5.730   6.986
19179TIP3    H2 8006   0.947   5.771   6.935
19180TIP3   OH2 8007   1.331   6.142   6.953
19180TIP3    H1 8008   1.267   6.134   7.024
19180TIP3    H2 8009   1.346   6.237   6.945
19181TIP3   OH2 8010   1.429   6.562   5.489
19181TIP3    H1 8011   1.410   6.585   5.398
19181TIP3    H2 8012   1.515   6.600   5.506
19182TIP3   OH2 8013   1.020   5.968   5.616
19182TIP3    H1 8014   0.958   5.980   5.689
19182TIP3    H2 8015   1.050   5.878   5.624
19183TIP3   OH2 8016   0.581   6.319   6.691
19183TIP3    H1 8017   0.518   6.319   6.764
19183TIP3    H2 8018   0.586   6.410   6.664
19184TIP3   OH2 8019   0.572   6.319   6.140
19184TIP3    H1 8020   0.479   6.297   6.134
19184TIP3    H2 8021   0.608   6.298   6.053
19185TIP3   OH2 8022   1.095   6.356   6.006
19185TIP3    H1 8023   1.071   6.437   5.960
19185TIP3    H2 8024   1.176   6.328   5.962
19186TIP3   OH2 8025   1.009   6.381   7.180
19186TIP3    H1 8026   0.962   6.303   7.210
19186TIP3    H2 8027   1.085   6.386   7.237
19187TIP3   OH2 8028   1.144   6.266   6.267
19187TIP3    H1 8029   1.117   6.313   6.188
19187TIP3    H2 8030   1.212   6.205   6.237
19188TIP3   OH2 8031   0.374   6.311   6.867
19188TIP3    H1 8032   0.383   6.335   6.959
19188TIP3    H2 8033   0.292   6.352   6.840
19189TIP3   OH2 8034   0.603   6.052   5.494
19189TIP3    H1 8035   0.615   6.016   5.583
19189TIP3    H2 8036   0.613   6.146   5.505
19190TIP3   OH2 8037   0.104   5.992   6.154
19190TIP3    H1 8038   0.127   6.023   6.242
19190TIP3    H2 8039   0.153   5.910   6.144
19191TIP3   OH2 8040   0.187   6.190   5.856
19191TIP3    H1 8041   0.210   6.213   5.766
19191TIP3    H2 8042   0.151   6.271   5.892
19192TIP3   OH2 8043   1.142   6.444   6.738
19192TIP3    H1 8044   1.179   6.386   6.672
19192TIP3    H2 8045   1.093   6.386   6.797
19193TIP3   OH2 8046   0.847   6.071   6.234
19193TIP3    H1 8047   0.769   6.075   6.288
19193TIP3    H2 8048   0.904   6.007   6.277
19194TIP3   OH2 8049   0.331   6.195   6.101
19194TIP3    H1 8050   0.274   6.191   6.024
19194TIP3    H2 8051   0.368   6.107   6.108
19195TIP3   OH2 8052   0.625   6.238   5.877
19195TIP3    H1 8053   0.718   6.235   5.900
19195TIP3    H2 8054   0.624   6.274   5.788
19196TIP3   OH2 8055   1.250   6.004   6.528
19196TIP3    H1 8056   1.223   5.995   6.620
19196TIP3    H2 8057   1.235   5.918   6.490
19197TIP3   OH2 8058   0.600   6.316   5.607
19197TIP3    H1 8059   0.544   6.328   5.531
19197TIP3    H2 8060   0.675   6.373   5.592
19198TIP3   OH2 8061   1.567   7.610   7.312
19198TIP3    H1 8062   1.527   7.657   7.239
19198TIP3    H2 8063   1.632   7.553   7.271
19199TIP3   OH2 8064   0.431   6.805   7.156
19199TIP3    H1 8065   0.520   6.807   7.191
19199TIP3    H2 8066   0.401   6.895   7.161
19200TIP3   OH2 8067   0.925   6.358   6.437
19200TIP3    H1 8068   0.990   6.309   6.387
19200TIP3    H2 8069   0.909   6.305   6.515
19201TIP3   OH2 8070   0.451   5.943   6.113
19201TIP3    H1 8071   0.383   5.875   6.122
19201TIP3    H2 8072   0.527   5.896   6.079
19202TIP3   OH2 8073   0.847   6.232   6.682
19202TIP3    H1 8074   0.764   6.278   6.693
19202TIP3    H2 8075   0.898   6.254   6.760
19203TIP3   OH2 8076   0.880   6.797   5.841
19203TIP3    H1 8077   0.812   6.765   5.783
19203TIP3    H2 8078   0.833   6.831   5.917
19204TIP3   OH2 8079   1.589   6.777   6.680
19204TIP3    H1 8080   1.653   6.826   6.629
19204TIP3    H2 8081   1.519   6.756   6.618
19205TIP3   OH2 8082   1.278   6.067   5.710
19205TIP3    H1 8083   1.193   6.064   5.664
19205TIP3    H2 8084   1.283   6.156   5.745
19206TIP3   OH2 8085   1.005   6.834   6.993
19206TIP3    H1 8086   1.045   6.788   7.067
19206TIP3    H2 8087   0.974   6.917   7.030
19207TIP3   OH2 8088   1.320   6.301   5.847
19207TIP3    H1 8089   1.404   6.288   5.891
19207TIP3    H2 8090   1.324   6.390   5.813
19208TIP3   OH2 8091   0.361   6.763   6.349
19208TIP3    H1 8092   0.443   6.741   6.306
19208TIP3    H2 8093   0.358   6.706   6.426
19209TIP3   OH2 8094   1.099   6.948   5.772
19209TIP3    H1 8095   1.060   7.035   5.778
19209TIP3    H2 8096   1.028   6.889   5.798
19210TIP3   OH2 8097   0.070   6.601   7.038
19210TIP3    H1 8098   0.104   6.545   7.108
19210TIP3    H2 8099   0.074   6.547   6.960
19211TIP3   OH2 8100   0.806   6.574   7.182
19211TIP3    H1 8101   0.751   6.531   7.117
19211TIP3    H2 8102   0.891   6.531   7.174
19212TIP3   OH2 8103   1.220   7.125   6.975
19212TIP3    H1 8104   1.124   7.130   6.966
19212TIP3    H2 8105   1.236   7.134   7.068
19213TIP3   OH2 8106   1.757   6.345   5.784
19213TIP3    H1 8107   1.719   6.323   5.699
19213TIP3    H2 8108   1.786   6.436   5.774
19214TIP3   OH2 8109   1.827   6.862   7.080
19214TIP3    H1 8110   1.743   6.891   7.042
19214TIP3    H2 8111   1.887   6.862   7.006
19215TIP3   OH2 8112   1.624   7.199   5.889
19215TIP3    H1 8113   1.584   7.127   5.937
19215TIP3    H2 8114   1.660   7.158   5.810
19216TIP3   OH2 8115   1.391   6.695   6.497
19216TIP3    H1 8116   1.301   6.682   6.527
19216TIP3    H2 8117   1.419   6.609   6.466
19217TIP3   OH2 8118   0.644   7.130   6.163
19217TIP3    H1 8119   0.657   7.217   6.125
19217TIP3    H2 8120   0.619   7.147   6.254
19218TIP3   OH2 8121   0.140   6.545   5.705
19218TIP3    H1 8122   0.200   6.619   5.719
19218TIP3    H2 8123   0.122   6.511   5.792
19219TIP3   OH2 8124   0.697   6.900   6.024
19219TIP3    H1 8125   0.682   6.981   6.073
19219TIP3    H2 8126   0.660   6.831   6.079
19220TIP3   OH2 8127   0.853   7.287   6.767
19220TIP3    H1 8128   0.907   7.364   6.752
19220TIP3    H2 8129   0.899   7.237   6.834
19221TIP3   OH2 8130   0.634   7.397   6.054
19221TIP3    H1 8131   0.545   7.391   6.091
19221TIP3    H2 8132   0.669   7.479   6.088
19222TIP3   OH2 8133   1.141   6.891   6.760
19222TIP3    H1 8134   1.083   6.872   6.834
19222TIP3    H2 8135   1.229   6.873   6.793
19223TIP3   OH2 8136   1.363   6.975   5.661
19223TIP3    H1 8137   1.426   6.924   5.712
19223TIP3    H2 8138   1.280   6.964   5.709
19224TIP3   OH2 8139   1.419   7.318   6.946
19224TIP3    H1 8140   1.340   7.263   6.943
19224TIP3    H2 8141   1.401   7.389   6.884
19225TIP3   OH2 8142   1.837   7.434   5.668
19225TIP3    H1 8143   1.897   7.504   5.641
19225TIP3    H2 8144   1.754   7.479   5.683
19226TIP3   OH2 8145   0.245   5.975   6.935
19226TIP3    H1 8146   0.227   6.054   6.986
19226TIP3    H2 8147   0.259   5.907   7.000
19227TIP3   OH2 8148   1.535   6.826   5.820
19227TIP3    H1 8149   1.492   6.770   5.884
19227TIP3    H2 8150   1.627   6.824   5.843
19228TIP3   OH2 8151   0.221   7.258   6.745
19228TIP3    H1 8152   0.259   7.187   6.797
19228TIP3    H2 8153   0.248   7.338   6.791
19229TIP3   OH2 8154   0.779   7.040   5.506
19229TIP3    H1 8155   0.867   7.003   5.507
19229TIP3    H2 8156   0.754   7.045   5.599
19230TIP3   OH2 8157   0.657   7.051   5.764
19230TIP3    H1 8158   0.677   7.003   5.845
19230TIP3    H2 8159   0.680   7.142   5.784
19231TIP3   OH2 8160   0.298   6.754   5.798
19231TIP3    H1 8161   0.226   6.796   5.844
19231TIP3    H2 8162   0.346   6.826   5.757
19232TIP3   OH2 8163   1.176   5.980   6.786
19232TIP3    H1 8164   1.232   6.028   6.848
19232TIP3    H2 8165   1.132   5.914   6.840
19233TIP3   OH2 8166   1.224   5.959   5.960
19233TIP3    H1 8167   1.243   6.002   5.877
19233TIP3    H2 8168   1.263   6.017   6.026
19234TIP3   OH2 8169   0.972   7.184   5.800
19234TIP3    H1 8170   0.890   7.234   5.797
19234TIP3    H2 8171   1.008   7.202   5.887
19235TIP3   OH2 8172   0.872   6.199   5.994
19235TIP3    H1 8173   0.949   6.256   5.999
19235TIP3    H2 8174   0.864   6.160   6.081
19236TIP3   OH2 8175   1.008   6.275   6.916
19236TIP3    H1 8176   1.003   6.325   6.998
19236TIP3    H2 8177   1.043   6.190   6.942
19237TIP3   OH2 8178   0.998   5.834   6.049
19237TIP3    H1 8179   0.999   5.843   6.144
19237TIP3    H2 8180   1.078   5.876   6.020
19238TIP3   OH2 8181   0.726   7.316   5.807
19238TIP3    H1 8182   0.728   7.394   5.751
19238TIP3    H2 8183   0.696   7.347   5.892
19239TIP3   OH2 8184   0.597   5.982   5.763
19239TIP3    H1 8185   0.584   6.062   5.813
19239TIP3    H2 8186   0.685   5.952   5.787
19240TIP3   OH2 8187   1.556   5.984   6.902
19240TIP3    H1 8188   1.481   6.039   6.928
19240TIP3    H2 8189   1.631   6.044   6.903
19241TIP3   OH2 8190   1.447   6.432   6.415
19241TIP3    H1 8191   1.367   6.392   6.449
19241TIP3    H2 8192   1.518   6.380   6.453
19242TIP3   OH2 8193   0.402   6.977   5.661
19242TIP3    H1 8194   0.471   7.020   5.712
19242TIP3    H2 8195   0.449   6.934   5.589
19243TIP3   OH2 8196   0.194   6.284   5.591
19243TIP3    H1 8197   0.214   6.376   5.609
19243TIP3    H2 8198   0.098   6.280   5.594
19244TIP3   OH2 8199   1.572   7.389   6.532
19244TIP3    H1 8200   1.567   7.462   6.471
19244TIP3    H2 8201   1.664   7.385   6.558
19245TIP3   OH2 8202   0.297   5.797   6.416
19245TIP3    H1 8203   0.281   5.778   6.324
19245TIP3    H2 8204   0.269   5.717   6.462
19246TIP3   OH2 8205   0.119   7.140   6.016
19246TIP3    H1 8206   0.128   7.175   6.104
19246TIP3    H2 8207   0.130   7.216   5.959
19247TIP3   OH2 8208   0.105   7.466   7.202
19247TIP3    H1 8209   0.176   7.453   7.265
19247TIP3    H2 8210   0.066   7.380   7.190
19248TIP3   OH2 8211   0.565   7.319   7.360
19248TIP3    H1 8212   0.621   7.382   7.405
19248TIP3    H2 8213   0.618   7.240   7.353
19249TIP3   OH2 8214   0.975   7.257   5.474
19249TIP3    H1 8215   0.892   7.210   5.473
19249TIP3    H2 8216   1.039   7.193   5.505
19250TIP3   OH2 8217   1.263   7.149   7.238
19250TIP3    H1 8218   1.213   7.093   7.298
19250TIP3    H2 8219   1.334   7.184   7.292
19251TIP3   OH2 8220   1.479   7.195   5.546
19251TIP3    H1 8221   1.443   7.118   5.590
19251TIP3    H2 8222   1.573   7.189   5.561
19252TIP3   OH2 8223   0.132   6.801   7.247
19252TIP3    H1 8224   0.180   6.719   7.261
19252TIP3    H2 8225   0.124   6.808   7.151
19253TIP3   OH2 8226   0.573   6.854   5.482
19253TIP3    H1 8227   0.604   6.790   5.545
19253TIP3    H2 8228   0.646   6.916   5.474
19254TIP3   OH2 8229   0.693   6.822   7.255
19254TIP3    H1 8230   0.718   6.876   7.180
19254TIP3    H2 8231   0.739   6.739   7.241
19255TIP3   OH2 8232   1.041   6.955   5.504
19255TIP3    H1 8233   1.073   6.946   5.593
19255TIP3    H2 8234   1.095   6.894   5.453
19256TIP3   OH2 8235   1.347   6.874   6.955
19256TIP3    H1 8236   1.441   6.894   6.949
19256TIP3    H2 8237   1.306   6.958   6.972
19257TIP3   OH2 8238   0.163   6.534   7.349
19257TIP3    H1 8239   0.210   6.452   7.364
19257TIP3    H2 8240   0.182   6.588   7.425
19258TIP3   OH2 8241   0.669   6.682   5.689
19258TIP3    H1 8242   0.624   6.644   5.764
19258TIP3    H2 8243   0.714   6.608   5.648
19259TIP3   OH2 8244   0.655   6.448   6.982
19259TIP3    H1 8245   0.573   6.497   6.974
19259TIP3    H2 8246   0.710   6.483   6.913
19260TIP3   OH2 8247   0.800   6.486   5.535
19260TIP3    H1 8248   0.790   6.487   5.439
19260TIP3    H2 8249   0.893   6.469   5.549
19261TIP3   OH2 8250   1.122   6.698   7.325
19261TIP3    H1 8251   1.212   6.665   7.330
19261TIP3    H2 8252   1.073   6.643   7.386
19262TIP3   OH2 8253   1.669   6.699   5.494
19262TIP3    H1 8254   1.690   6.677   5.403
19262TIP3    H2 8255   1.680   6.794   5.499
19263TIP3   OH2 8256   0.659   6.182   7.054
19263TIP3    H1 8257   0.675   6.127   6.977
19263TIP3    H2 8258   0.668   6.272   7.021
19264TIP3   OH2 8259   0.695   6.026   6.818
19264TIP3    H1 8260   0.748   6.080   6.759
19264TIP3    H2 8261   0.607   6.031   6.782
19265TIP3   OH2 8262   0.824   6.561   6.803
19265TIP3    H1 8263   0.917   6.580   6.818
19265TIP3    H2 8264   0.788   6.644   6.771
19266TIP3   OH2 8265   1.217   6.361   7.375
19266TIP3    H1 8266   1.269   6.283   7.395
19266TIP3    H2 8267   1.282   6.432   7.371
19267TIP3   OH2 8268   1.426   6.634   7.083
19267TIP3    H1 8269   1.398   6.718   7.046
19267TIP3    H2 8270   1.521   6.644   7.095
19268TIP3   OH2 8271   0.423   6.299   7.151
19268TIP3    H1 8272   0.377   6.229   7.197
19268TIP3    H2 8273   0.505   6.259   7.121
19269TIP3   OH2 8274   0.753   5.761   6.880
19269TIP3    H1 8275   0.735   5.853   6.860
19269TIP3    H2 8276   0.684   5.713   6.833
19270TIP3   OH2 8277   0.873   6.143   7.231
19270TIP3    H1 8278   0.834   6.116   7.314
19270TIP3    H2 8279   0.798   6.152   7.172
19271TIP3   OH2 8280   1.127   6.085   7.127
19271TIP3    H1 8281   1.044   6.096   7.172
19271TIP3    H2 8282   1.183   6.040   7.191
19272TIP3   OH2 8283   1.303   5.962   7.309
19272TIP3    H1 8284   1.307   5.867   7.322
19272TIP3    H2 8285   1.278   5.996   7.394
19273TIP3   OH2 8286   0.332   6.052   7.245
19273TIP3    H1 8287   0.412   6.016   7.207
19273TIP3    H2 8288   0.333   6.023   7.336
19274TIP3   OH2 8289   0.718   5.656   7.129
19274TIP3    H1 8290   0.791   5.596   7.137
19274TIP3    H2 8291   0.728   5.695   7.042
19275TIP3   OH2 8292   0.711   5.784   7.386
19275TIP3    H1 8293   0.738   5.778   7.294
19275TIP3    H2 8294   0.718   5.877   7.406
19276TIP3   OH2 8295   0.767   7.532   5.634
19276TIP3    H1 8296   0.862   7.526   5.643
19276TIP3    H2 8297   0.754   7.574   5.549
19277TIP3   OH2 8298   0.126   7.015   5.606
19277TIP3    H1 8299   0.218   7.020   5.632
19277TIP3    H2 8300   0.128   6.996   5.513
19278TIP3   OH2 8301   0.018   7.467   6.108
19278TIP3    H1 8302   8.069   7.452   6.126
19278TIP3    H2 8303   0.064   7.408   6.168
19279TIP3   OH2 8304   0.145   7.297   6.281
19279TIP3    H1 8305   0.116   7.219   6.329
19279TIP3    H2 8306   0.180   7.355   6.348
19280TIP3   OH2 8307   1.830   7.394   6.629
19280TIP3    H1 8308   1.826   7.363   6.719
19280TIP3    H2 8309   1.875   7.479   6.635
19281TIP3   OH2 8310   1.799   7.332   6.894
19281TIP3    H1 8311   1.732   7.270   6.866
19281TIP3    H2 8312   1.840   7.290   6.969
19282TIP3   OH2 8313   1.602   6.917   7.406
19282TIP3    H1 8314   1.525   6.944   7.456
19282TIP3    H2 8315   1.657   6.995   7.403
19283TIP3   OH2 8316   1.796   6.775   5.910
19283TIP3    H1 8317   1.866   6.839   5.917
19283TIP3    H2 8318   1.809   6.717   5.985
19284TIP3   OH2 8319   1.840   6.584   6.113
19284TIP3    H1 8320   1.756   6.558   6.150
19284TIP3    H2 8321   1.895   6.601   6.190
19285TIP3   OH2 8322   1.800   6.897   6.557
19285TIP3    H1 8323   1.871   6.834   6.561
19285TIP3    H2 8324   1.843   6.982   6.550
19286TIP3   OH2 8325   1.604   7.164   6.805
19286TIP3    H1 8326   1.533   7.210   6.850
19286TIP3    H2 8327   1.567   7.143   6.719
19287TIP3   OH2 8328   1.826   6.599   5.702
19287TIP3    H1 8329   1.766   6.628   5.633
19287TIP3    H2 8330   1.814   6.663   5.773
19288TIP3   OH2 8331   1.663   6.296   5.529
19288TIP3    H1 8332   1.673   6.313   5.435
19288TIP3    H2 8333   1.618   6.212   5.533
19289TIP3   OH2 8334   1.574   6.474   6.163
19289TIP3    H1 8335   1.578   6.384   6.132
19289TIP3    H2 8336   1.532   6.468   6.250
19290TIP3   OH2 8337   0.031   6.674   6.560
19290TIP3    H1 8338   0.120   6.697   6.533
19290TIP3    H2 8339   0.043   6.626   6.642
19291TIP3   OH2 8340   1.696   6.628   7.140
19291TIP3    H1 8341   1.749   6.554   7.111
19291TIP3    H2 8342   1.748   6.705   7.120
19292TIP3   OH2 8343   1.826   6.388   7.061
19292TIP3    H1 8344   1.738   6.356   7.080
19292TIP3    H2 8345   1.884   6.319   7.093
19293TIP3   OH2 8346   1.527   6.063   5.566
19293TIP3    H1 8347   1.601   6.007   5.589
19293TIP3    H2 8348   1.456   6.034   5.624
19294TIP3   OH2 8349   1.566   6.233   5.969
19294TIP3    H1 8350   1.596   6.142   5.977
19294TIP3    H2 8351   1.634   6.275   5.916
19295TIP3   OH2 8352   1.610   6.246   6.536
19295TIP3    H1 8353   1.703   6.260   6.523
19295TIP3    H2 8354   1.596   6.264   6.629
19296TIP3   OH2 8355   1.603   6.341   6.795
19296TIP3    H1 8356   1.529   6.369   6.850
19296TIP3    H2 8357   1.654   6.420   6.780
19297TIP3   OH2 8358   0.057   6.144   7.205
19297TIP3    H1 8359   0.151   6.147   7.224
19297TIP3    H2 8360   0.027   6.062   7.246
19298TIP3   OH2 8361   1.845   5.747   7.324
19298TIP3    H1 8362   1.904   5.682   7.286
19298TIP3    H2 8363   1.888   5.773   7.405
19299TIP3   OH2 8364   1.625   5.963   5.994
19299TIP3    H1 8365   1.656   5.924   6.076
19299TIP3    H2 8366   1.560   5.901   5.961
19300TIP3   OH2 8367   0.193   6.055   6.411
19300TIP3    H1 8368   0.219   5.965   6.433
19300TIP3    H2 8369   0.258   6.110   6.455
19301TIP3   OH2 8370   0.037   6.366   6.477
19301TIP3    H1 8371   0.113   6.355   6.421
19301TIP3    H2 8372   0.072   6.372   6.566
19302TIP3   OH2 8373   1.748   5.952   7.167
19302TIP3    H1 8374   1.726   5.903   7.088
19302TIP3    H2 8375   1.789   5.887   7.225
19303TIP3   OH2 8376   1.787   5.941   5.609
19303TIP3    H1 8377   1.855   5.874   5.609
19303TIP3    H2 8378   1.828   6.016   5.652
19304TIP3   OH2 8379   0.041   5.952   5.875
19304TIP3    H1 8380   0.008   5.943   5.965
19304TIP3    H2 8381   0.097   6.030   5.878
19305TIP3   OH2 8382   1.490   7.461   6.163
19305TIP3    H1 8383   1.570   7.464   6.111
19305TIP3    H2 8384   1.508   7.519   6.238
19306TIP3   OH2 8385   0.027   5.765   6.834
19306TIP3    H1 8386   0.070   5.807   6.908
19306TIP3    H2 8387   8.116   5.834   6.796
19307TIP3   OH2 8388   0.220   7.115   7.167
19307TIP3    H1 8389   0.131   7.150   7.160
19307TIP3    H2 8390   0.226   7.086   7.258
19308TIP3   OH2 8391   0.587   7.251   6.825
19308TIP3    H1 8392   0.557   7.340   6.807
19308TIP3    H2 8393   0.682   7.255   6.815
19309TIP3   OH2 8394   0.959   7.389   7.139
19309TIP3    H1 8395   0.965   7.353   7.227
19309TIP3    H2 8396   1.042   7.434   7.126
19310TIP3   OH2 8397   1.199   7.529   7.104
19310TIP3    H1 8398   1.269   7.464   7.111
19310TIP3    H2 8399   1.217   7.590   7.176
19311TIP3   OH2 8400   1.703   5.734   6.970
19311TIP3    H1 8401   1.645   5.779   6.909
19311TIP3    H2 8402   1.719   5.649   6.930
19312TIP3   OH2 8403   0.252   7.525   6.814
19312TIP3    H1 8404   0.180   7.577   6.779
19312TIP3    H2 8405   0.263   7.557   6.904
19313TIP3   OH2 8406   0.526   7.511   6.763
19313TIP3    H1 8407   0.434   7.523   6.785
19313TIP3    H2 8408   0.539   7.564   6.684
19314TIP3   OH2 8409   0.976   7.524   6.685
19314TIP3    H1 8410   0.922   7.578   6.627
19314TIP3    H2 8411   0.996   7.581   6.760
19315TIP3   OH2 8412   1.201   7.373   6.724
19315TIP3    H1 8413   1.125   7.427   6.706
19315TIP3    H2 8414   1.275   7.435   6.727
19316TIP3   OH2 8415   1.437   7.515   6.737
19316TIP3    H1 8416   1.471   7.603   6.721
19316TIP3    H2 8417   1.484   7.460   6.675
19317TIP3   OH2 8418   0.267   7.421   6.502
19317TIP3    H1 8419   0.236   7.395   6.589
19317TIP3    H2 8420   0.347   7.371   6.489
19318TIP3   OH2 8421   0.480   7.257   6.429
19318TIP3    H1 8422   0.453   7.170   6.459
19318TIP3    H2 8423   0.564   7.272   6.472
19319TIP3   OH2 8424   0.738   7.301   6.516
19319TIP3    H1 8425   0.763   7.216   6.481
19319TIP3    H2 8426   0.773   7.303   6.605
19320TIP3   OH2 8427   0.982   5.840   6.324
19320TIP3    H1 8428   0.925   5.791   6.383
19320TIP3    H2 8429   1.070   5.818   6.352
19321TIP3   OH2 8430   1.531   5.748   6.377
19321TIP3    H1 8431   1.597   5.788   6.321
19321TIP3    H2 8432   1.533   5.798   6.458
19322TIP3   OH2 8433   1.739   5.830   6.208
19322TIP3    H1 8434   1.796   5.754   6.192
19322TIP3    H2 8435   1.799   5.901   6.232
19323TIP3   OH2 8436   0.257   5.742   6.143
19323TIP3    H1 8437   0.170   5.707   6.124
19323TIP3    H2 8438   0.315   5.666   6.144
19324TIP3   OH2 8439   0.178   5.739   5.750
19324TIP3    H1 8440   0.246   5.798   5.718
19324TIP3    H2 8441   0.119   5.794   5.800
19325TIP3   OH2 8442   0.740   5.727   6.167
19325TIP3    H1 8443   0.819   5.771   6.136
19325TIP3    H2 8444   0.753   5.721   6.262
19326TIP3   OH2 8445   1.237   5.754   6.394
19326TIP3    H1 8446   1.330   5.757   6.374
19326TIP3    H2 8447   1.219   5.660   6.407
19327TIP3   OH2 8448   1.432   5.789   5.890
19327TIP3    H1 8449   1.358   5.844   5.916
19327TIP3    H2 8450   1.399   5.700   5.898
19328TIP3   OH2 8451   0.126   7.374   5.869
19328TIP3    H1 8452   0.165   7.444   5.817
19328TIP3    H2 8453   0.083   7.419   5.942
19329TIP3   OH2 8454   0.376   5.897   5.620
19329TIP3    H1 8455   0.451   5.907   5.678
19329TIP3    H2 8456   0.342   5.986   5.609
19330TIP3   OH2 8457   0.863   5.968   5.847
19330TIP3    H1 8458   0.899   5.908   5.911
19330TIP3    H2 8459   0.867   6.054   5.890
19331TIP3   OH2 8460   1.038   7.474   5.644
19331TIP3    H1 8461   1.134   7.467   5.647
19331TIP3    H2 8462   1.010   7.401   5.589
19332TIP3   OH2 8463   1.698   7.448   5.972
19332TIP3    H1 8464   1.674   7.358   5.948
19332TIP3    H2 8465   1.682   7.499   5.892
19333TIP3   OH2 8466   0.269   5.748   7.093
19333TIP3    H1 8467   0.204   5.699   7.143
19333TIP3    H2 8468   0.349   5.743   7.145
19334TIP3   OH2 8469   0.475   5.675   7.262
19334TIP3    H1 8470   0.556   5.660   7.214
19334TIP3    H2 8471   0.501   5.724   7.339
19335TIP3   OH2 8472   0.313   7.462   5.514
19335TIP3    H1 8473   0.264   7.494   5.590
19335TIP3    H2 8474   0.389   7.417   5.551
19336TIP3   OH2 8475   1.346   5.685   7.330
19336TIP3    H1 8476   1.351   5.631   7.408
19336TIP3    H2 8477   1.435   5.683   7.294
19337TIP3   OH2 8478   1.604   7.328   7.157
19337TIP3    H1 8479   1.541   7.317   7.086
19337TIP3    H2 8480   1.555   7.302   7.236
19338TIP3   OH2 8481   3.105   6.698   6.121
19338TIP3    H1 8482   3.090   6.793   6.121
19338TIP3    H2 8483   3.025   6.661   6.084
19339TIP3   OH2 8484   2.936   6.611   6.539
19339TIP3    H1 8485   2.970   6.574   6.620
19339TIP3    H2 8486   2.893   6.538   6.495
19340TIP3   OH2 8487   2.165   6.521   6.712
19340TIP3    H1 8488   2.167   6.434   6.751
19340TIP3    H2 8489   2.223   6.574   6.767
19341TIP3   OH2 8490   3.369   6.930   6.357
19341TIP3    H1 8491   3.339   6.852   6.403
19341TIP3    H2 8492   3.381   6.996   6.426
19342TIP3   OH2 8493   2.355   6.983   6.484
19342TIP3    H1 8494   2.310   6.903   6.456
19342TIP3    H2 8495   2.363   6.973   6.579
19343TIP3   OH2 8496   1.957   6.352   5.997
19343TIP3    H1 8497   1.934   6.432   6.043
19343TIP3    H2 8498   1.889   6.341   5.931
19344TIP3   OH2 8499   2.028   6.606   6.325
19344TIP3    H1 8500   2.054   6.516   6.344
19344TIP3    H2 8501   2.110   6.656   6.332
19345TIP3   OH2 8502   3.093   7.369   6.414
19345TIP3    H1 8503   3.091   7.276   6.392
19345TIP3    H2 8504   3.090   7.371   6.510
19346TIP3   OH2 8505   2.835   6.867   6.582
19346TIP3    H1 8506   2.865   6.781   6.551
19346TIP3    H2 8507   2.901   6.893   6.646
19347TIP3   OH2 8508   3.704   6.006   6.656
19347TIP3    H1 8509   3.704   6.052   6.739
19347TIP3    H2 8510   3.729   6.072   6.591
19348TIP3   OH2 8511   3.122   6.287   6.527
19348TIP3    H1 8512   3.132   6.195   6.552
19348TIP3    H2 8513   3.082   6.285   6.440
19349TIP3   OH2 8514   2.440   6.086   6.310
19349TIP3    H1 8515   2.453   6.171   6.268
19349TIP3    H2 8516   2.387   6.037   6.247
19350TIP3   OH2 8517   3.243   6.116   6.137
19350TIP3    H1 8518   3.281   6.083   6.218
19350TIP3    H2 8519   3.316   6.160   6.092
19351TIP3   OH2 8520   2.104   6.346   6.379
19351TIP3    H1 8521   2.166   6.306   6.440
19351TIP3    H2 8522   2.125   6.308   6.294
19352TIP3   OH2 8523   2.603   6.497   6.315
19352TIP3    H1 8524   2.680   6.455   6.353
19352TIP3    H2 8525   2.555   6.426   6.273
19353TIP3   OH2 8526   3.723   6.138   6.896
19353TIP3    H1 8527   3.657   6.204   6.873
19353TIP3    H2 8528   3.694   6.104   6.981
19354TIP3   OH2 8529   2.331   6.003   6.730
19354TIP3    H1 8530   2.298   6.075   6.675
19354TIP3    H2 8531   2.272   6.001   6.805
19355TIP3   OH2 8532   3.077   6.962   6.036
19355TIP3    H1 8533   3.051   6.947   5.945
19355TIP3    H2 8534   3.024   7.037   6.063
19356TIP3   OH2 8535   2.596   6.778   6.690
19356TIP3    H1 8536   2.538   6.849   6.718
19356TIP3    H2 8537   2.676   6.822   6.662
19357TIP3   OH2 8538   3.349   6.051   6.379
19357TIP3    H1 8539   3.270   6.031   6.430
19357TIP3    H2 8540   3.400   6.109   6.435
19358TIP3   OH2 8541   2.283   6.182   6.518
19358TIP3    H1 8542   2.337   6.243   6.569
19358TIP3    H2 8543   2.345   6.143   6.455
19359TIP3   OH2 8544   2.415   6.981   6.759
19359TIP3    H1 8545   2.440   7.073   6.771
19359TIP3    H2 8546   2.332   6.972   6.806
19360TIP3   OH2 8547   2.008   6.955   5.895
19360TIP3    H1 8548   2.004   6.999   5.810
19360TIP3    H2 8549   2.033   7.024   5.956
19361TIP3   OH2 8550   3.383   7.146   6.539
19361TIP3    H1 8551   3.292   7.133   6.568
19361TIP3    H2 8552   3.392   7.242   6.533
19362TIP3   OH2 8553   3.447   5.881   6.661
19362TIP3    H1 8554   3.419   5.930   6.739
19362TIP3    H2 8555   3.532   5.919   6.639
19363TIP3   OH2 8556   2.674   5.694   6.466
19363TIP3    H1 8557   2.652   5.601   6.472
19363TIP3    H2 8558   2.597   5.739   6.498
19364TIP3   OH2 8559   3.213   7.277   6.133
19364TIP3    H1 8560   3.262   7.195   6.133
19364TIP3    H2 8561   3.274   7.341   6.170
19365TIP3   OH2 8562   3.341   7.035   6.104
19365TIP3    H1 8563   3.259   6.993   6.077
19365TIP3    H2 8564   3.362   6.994   6.188
19366TIP3   OH2 8565   3.489   6.916   6.928
19366TIP3    H1 8566   3.487   6.839   6.871
19366TIP3    H2 8567   3.512   6.988   6.870
19367TIP3   OH2 8568   2.939   6.599   5.913
19367TIP3    H1 8569   2.872   6.661   5.885
19367TIP3    H2 8570   3.001   6.596   5.840
19368TIP3   OH2 8571   2.941   6.453   5.550
19368TIP3    H1 8572   3.013   6.475   5.609
19368TIP3    H2 8573   2.941   6.358   5.546
19369TIP3   OH2 8574   3.661   6.524   6.695
19369TIP3    H1 8575   3.590   6.585   6.714
19369TIP3    H2 8576   3.730   6.579   6.656
19370TIP3   OH2 8577   3.314   6.610   5.977
19370TIP3    H1 8578   3.245   6.642   6.035
19370TIP3    H2 8579   3.376   6.566   6.035
19371TIP3   OH2 8580   3.271   6.392   6.887
19371TIP3    H1 8581   3.298   6.464   6.945
19371TIP3    H2 8582   3.196   6.427   6.839
19372TIP3   OH2 8583   2.472   6.694   6.165
19372TIP3    H1 8584   2.450   6.646   6.085
19372TIP3    H2 8585   2.526   6.633   6.215
19373TIP3   OH2 8586   2.654   7.039   6.441
19373TIP3    H1 8587   2.575   6.984   6.450
19373TIP3    H2 8588   2.724   6.986   6.480
19374TIP3   OH2 8589   2.463   6.594   6.534
19374TIP3    H1 8590   2.526   6.569   6.466
19374TIP3    H2 8591   2.512   6.652   6.592
19375TIP3   OH2 8592   3.130   7.119   6.632
19375TIP3    H1 8593   3.101   7.198   6.678
19375TIP3    H2 8594   3.092   7.047   6.682
19376TIP3   OH2 8595   2.585   6.992   7.009
19376TIP3    H1 8596   2.513   7.041   7.050
19376TIP3    H2 8597   2.543   6.947   6.935
19377TIP3   OH2 8598   3.169   6.553   5.748
19377TIP3    H1 8599   3.217   6.581   5.826
19377TIP3    H2 8600   3.217   6.591   5.675
19378TIP3   OH2 8601   2.277   6.638   6.942
19378TIP3    H1 8602   2.295   6.712   7.000
19378TIP3    H2 8603   2.188   6.612   6.963
19379TIP3   OH2 8604   2.955   7.211   6.064
19379TIP3    H1 8605   3.040   7.240   6.097
19379TIP3    H2 8606   2.892   7.268   6.109
19380TIP3   OH2 8607   2.369   7.144   7.067
19380TIP3    H1 8608   2.390   7.228   7.025
19380TIP3    H2 8609   2.297   7.164   7.126
19381TIP3   OH2 8610   3.530   5.705   5.758
19381TIP3    H1 8611   3.446   5.732   5.797
19381TIP3    H2 8612   3.569   5.786   5.725
19382TIP3   OH2 8613   2.391   6.595   5.907
19382TIP3    H1 8614   2.318   6.652   5.882
19382TIP3    H2 8615   2.355   6.506   5.900
19383TIP3   OH2 8616   3.593   7.174   5.616
19383TIP3    H1 8617   3.639   7.258   5.624
19383TIP3    H2 8618   3.650   7.120   5.563
19384TIP3   OH2 8619   1.980   6.807   6.856
19384TIP3    H1 8620   1.969   6.780   6.765
19384TIP3    H2 8621   1.995   6.725   6.904
19385TIP3   OH2 8622   1.932   7.147   6.545
19385TIP3    H1 8623   2.007   7.148   6.605
19385TIP3    H2 8624   1.882   7.225   6.568
19386TIP3   OH2 8625   3.762   7.229   7.134
19386TIP3    H1 8626   3.755   7.134   7.125
19386TIP3    H2 8627   3.679   7.256   7.172
19387TIP3   OH2 8628   2.801   7.164   6.984
19387TIP3    H1 8629   2.792   7.231   7.052
19387TIP3    H2 8630   2.725   7.107   6.997
19388TIP3   OH2 8631   2.900   7.489   5.927
19388TIP3    H1 8632   2.883   7.502   5.834
19388TIP3    H2 8633   2.882   7.575   5.967
19389TIP3   OH2 8634   2.275   7.353   6.168
19389TIP3    H1 8635   2.305   7.318   6.252
19389TIP3    H2 8636   2.229   7.280   6.127
19390TIP3   OH2 8637   3.166   7.406   5.634
19390TIP3    H1 8638   3.223   7.336   5.602
19390TIP3    H2 8639   3.175   7.403   5.729
19391TIP3   OH2 8640   3.165   7.427   5.907
19391TIP3    H1 8641   3.071   7.440   5.920
19391TIP3    H2 8642   3.192   7.370   5.979
19392TIP3   OH2 8643   3.433   6.242   7.131
19392TIP3    H1 8644   3.358   6.299   7.149
19392TIP3    H2 8645   3.441   6.187   7.209
19393TIP3   OH2 8646   2.173   7.005   6.889
19393TIP3    H1 8647   2.211   6.998   6.976
19393TIP3    H2 8648   2.104   6.938   6.887
19394TIP3   OH2 8649   2.431   5.810   6.554
19394TIP3    H1 8650   2.353   5.806   6.498
19394TIP3    H2 8651   2.413   5.883   6.613
19395TIP3   OH2 8652   2.916   5.773   6.900
19395TIP3    H1 8653   2.956   5.738   6.979
19395TIP3    H2 8654   2.822   5.775   6.919
19396TIP3   OH2 8655   3.189   6.130   6.938
19396TIP3    H1 8656   3.147   6.121   7.023
19396TIP3    H2 8657   3.216   6.222   6.935
19397TIP3   OH2 8658   3.336   6.676   5.570
19397TIP3    H1 8659   3.357   6.723   5.489
19397TIP3    H2 8660   3.375   6.729   5.639
19398TIP3   OH2 8661   2.721   5.933   5.597
19398TIP3    H1 8662   2.726   5.946   5.691
19398TIP3    H2 8663   2.787   5.992   5.561
19399TIP3   OH2 8664   2.446   6.347   6.659
19399TIP3    H1 8665   2.433   6.363   6.753
19399TIP3    H2 8666   2.443   6.435   6.620
19400TIP3   OH2 8667   2.436   6.324   6.171
19400TIP3    H1 8668   2.341   6.317   6.168
19400TIP3    H2 8669   2.464   6.301   6.082
19401TIP3   OH2 8670   2.977   6.348   6.020
19401TIP3    H1 8671   2.958   6.438   5.992
19401TIP3    H2 8672   3.054   6.323   5.969
19402TIP3   OH2 8673   2.889   6.395   7.183
19402TIP3    H1 8674   2.857   6.312   7.219
19402TIP3    H2 8675   2.942   6.433   7.253
19403TIP3   OH2 8676   3.029   6.254   6.274
19403TIP3    H1 8677   2.999   6.301   6.196
19403TIP3    H2 8678   3.096   6.194   6.241
19404TIP3   OH2 8679   2.191   6.288   6.864
19404TIP3    H1 8680   2.231   6.320   6.945
19404TIP3    H2 8681   2.174   6.195   6.881
19405TIP3   OH2 8682   2.462   5.993   5.501
19405TIP3    H1 8683   2.452   6.027   5.590
19405TIP3    H2 8684   2.555   5.969   5.495
19406TIP3   OH2 8685   1.935   6.016   6.242
19406TIP3    H1 8686   1.959   6.023   6.335
19406TIP3    H2 8687   2.001   6.069   6.197
19407TIP3   OH2 8688   1.935   6.138   5.736
19407TIP3    H1 8689   2.009   6.180   5.691
19407TIP3    H2 8690   1.879   6.210   5.763
19408TIP3   OH2 8691   3.040   6.448   6.738
19408TIP3    H1 8692   3.066   6.383   6.672
19408TIP3    H2 8693   2.984   6.399   6.798
19409TIP3   OH2 8694   2.720   6.072   6.251
19409TIP3    H1 8695   2.636   6.065   6.296
19409TIP3    H2 8696   2.778   6.011   6.298
19410TIP3   OH2 8697   2.172   6.238   6.135
19410TIP3    H1 8698   2.105   6.266   6.073
19410TIP3    H2 8699   2.200   6.152   6.102
19411TIP3   OH2 8700   2.499   6.244   5.915
19411TIP3    H1 8701   2.592   6.236   5.936
19411TIP3    H2 8702   2.497   6.292   5.832
19412TIP3   OH2 8703   3.110   6.009   6.506
19412TIP3    H1 8704   3.097   5.985   6.598
19412TIP3    H2 8705   3.033   5.973   6.461
19413TIP3   OH2 8706   2.464   6.357   5.670
19413TIP3    H1 8707   2.397   6.336   5.605
19413TIP3    H2 8708   2.538   6.389   5.618
19414TIP3   OH2 8709   3.489   7.585   7.264
19414TIP3    H1 8710   3.507   7.498   7.228
19414TIP3    H2 8711   3.558   7.600   7.329
19415TIP3   OH2 8712   2.265   6.841   7.129
19415TIP3    H1 8713   2.334   6.833   7.194
19415TIP3    H2 8714   2.184   6.833   7.180
19416TIP3   OH2 8715   2.813   6.367   6.443
19416TIP3    H1 8716   2.874   6.310   6.395
19416TIP3    H2 8717   2.792   6.318   6.522
19417TIP3   OH2 8718   2.276   5.978   6.097
19417TIP3    H1 8719   2.231   5.897   6.120
19417TIP3    H2 8720   2.336   5.953   6.027
19418TIP3   OH2 8721   2.726   6.255   6.692
19418TIP3    H1 8722   2.649   6.313   6.696
19418TIP3    H2 8723   2.778   6.280   6.769
19419TIP3   OH2 8724   2.757   6.794   5.831
19419TIP3    H1 8725   2.690   6.759   5.772
19419TIP3    H2 8726   2.707   6.832   5.904
19420TIP3   OH2 8727   3.481   6.736   6.707
19420TIP3    H1 8728   3.540   6.800   6.665
19420TIP3    H2 8729   3.407   6.729   6.646
19421TIP3   OH2 8730   3.205   6.118   5.653
19421TIP3    H1 8731   3.119   6.111   5.611
19421TIP3    H2 8732   3.191   6.175   5.728
19422TIP3   OH2 8733   2.905   6.889   7.022
19422TIP3    H1 8734   2.910   6.838   7.103
19422TIP3    H2 8735   2.866   6.972   7.049
19423TIP3   OH2 8736   3.203   6.296   5.863
19423TIP3    H1 8737   3.288   6.287   5.905
19423TIP3    H2 8738   3.204   6.384   5.825
19424TIP3   OH2 8739   2.278   6.724   6.374
19424TIP3    H1 8740   2.339   6.727   6.300
19424TIP3    H2 8741   2.325   6.673   6.441
19425TIP3   OH2 8742   2.976   6.950   5.774
19425TIP3    H1 8743   2.939   7.038   5.779
19425TIP3    H2 8744   2.902   6.892   5.796
19426TIP3   OH2 8745   2.013   6.580   7.006
19426TIP3    H1 8746   2.050   6.563   7.092
19426TIP3    H2 8747   1.946   6.513   6.994
19427TIP3   OH2 8748   2.703   6.587   7.117
19427TIP3    H1 8749   2.634   6.560   7.177
19427TIP3    H2 8750   2.776   6.528   7.138
19428TIP3   OH2 8751   3.080   7.209   6.967
19428TIP3    H1 8752   2.989   7.186   6.955
19428TIP3    H2 8753   3.110   7.153   7.039
19429TIP3   OH2 8754   3.651   6.331   5.783
19429TIP3    H1 8755   3.616   6.309   5.697
19429TIP3    H2 8756   3.679   6.422   5.776
19430TIP3   OH2 8757   3.722   6.963   7.080
19430TIP3    H1 8758   3.630   6.940   7.067
19430TIP3    H2 8759   3.769   6.912   7.014
19431TIP3   OH2 8760   3.553   7.178   5.905
19431TIP3    H1 8761   3.491   7.121   5.950
19431TIP3    H2 8762   3.546   7.153   5.813
19432TIP3   OH2 8763   3.285   6.699   6.504
19432TIP3    H1 8764   3.192   6.695   6.524
19432TIP3    H2 8765   3.305   6.614   6.466
19433TIP3   OH2 8766   2.531   7.139   6.141
19433TIP3    H1 8767   2.539   7.232   6.117
19433TIP3    H2 8768   2.525   7.140   6.237
19434TIP3   OH2 8769   2.092   6.580   5.620
19434TIP3    H1 8770   2.135   6.640   5.681
19434TIP3    H2 8771   1.999   6.585   5.644
19435TIP3   OH2 8772   2.580   6.907   6.009
19435TIP3    H1 8773   2.567   6.987   6.059
19435TIP3    H2 8774   2.545   6.838   6.065
19436TIP3   OH2 8775   2.740   7.300   6.751
19436TIP3    H1 8776   2.797   7.377   6.747
19436TIP3    H2 8777   2.774   7.249   6.825
19437TIP3   OH2 8778   2.516   7.410   6.047
19437TIP3    H1 8779   2.428   7.398   6.081
19437TIP3    H2 8780   2.546   7.492   6.086
19438TIP3   OH2 8781   3.032   6.903   6.782
19438TIP3    H1 8782   2.971   6.898   6.856
19438TIP3    H2 8783   3.115   6.869   6.816
19439TIP3   OH2 8784   3.242   7.000   5.692
19439TIP3    H1 8785   3.302   6.937   5.731
19439TIP3    H2 8786   3.156   6.977   5.728
19440TIP3   OH2 8787   3.339   7.293   6.928
19440TIP3    H1 8788   3.251   7.255   6.938
19440TIP3    H2 8789   3.324   7.376   6.883
19441TIP3   OH2 8790   3.716   7.421   5.638
19441TIP3    H1 8791   3.713   7.440   5.545
19441TIP3    H2 8792   3.661   7.488   5.678
19442TIP3   OH2 8793   2.149   6.014   6.947
19442TIP3    H1 8794   2.080   6.057   6.997
19442TIP3    H2 8795   2.174   5.938   7.001
19443TIP3   OH2 8796   3.415   6.805   5.807
19443TIP3    H1 8797   3.374   6.746   5.871
19443TIP3    H2 8798   3.506   6.812   5.836
19444TIP3   OH2 8799   2.120   7.240   6.737
19444TIP3    H1 8800   2.143   7.166   6.793
19444TIP3    H2 8801   2.132   7.317   6.793
19445TIP3   OH2 8802   2.671   7.046   5.502
19445TIP3    H1 8803   2.754   6.997   5.504
19445TIP3    H2 8804   2.641   7.046   5.592
19446TIP3   OH2 8805   2.551   7.055   5.760
19446TIP3    H1 8806   2.563   7.006   5.841
19446TIP3    H2 8807   2.572   7.145   5.783
19447TIP3   OH2 8808   2.194   6.766   5.801
19447TIP3    H1 8809   2.128   6.810   5.855
19447TIP3    H2 8810   2.240   6.837   5.756
19448TIP3   OH2 8811   3.066   5.959   6.765
19448TIP3    H1 8812   3.106   6.018   6.828
19448TIP3    H2 8813   3.013   5.899   6.818
19449TIP3   OH2 8814   3.100   5.968   5.953
19449TIP3    H1 8815   3.091   6.029   5.880
19449TIP3    H2 8816   3.142   6.020   6.022
19450TIP3   OH2 8817   2.866   7.197   5.797
19450TIP3    H1 8818   2.783   7.244   5.795
19450TIP3    H2 8819   2.901   7.215   5.885
19451TIP3   OH2 8820   2.752   6.193   6.009
19451TIP3    H1 8821   2.829   6.248   6.013
19451TIP3    H2 8822   2.743   6.157   6.097
19452TIP3   OH2 8823   2.896   6.290   6.919
19452TIP3    H1 8824   2.890   6.341   7.001
19452TIP3    H2 8825   2.929   6.205   6.947
19453TIP3   OH2 8826   2.883   5.833   6.065
19453TIP3    H1 8827   2.891   5.855   6.158
19453TIP3    H2 8828   2.959   5.874   6.024
19454TIP3   OH2 8829   2.616   7.323   5.802
19454TIP3    H1 8830   2.610   7.399   5.743
19454TIP3    H2 8831   2.585   7.357   5.886
19455TIP3   OH2 8832   2.444   5.998   5.796
19455TIP3    H1 8833   2.443   6.084   5.837
19455TIP3    H2 8834   2.531   5.963   5.815
19456TIP3   OH2 8835   3.427   5.995   6.923
19456TIP3    H1 8836   3.339   6.033   6.923
19456TIP3    H2 8837   3.476   6.049   6.986
19457TIP3   OH2 8838   3.336   6.430   6.411
19457TIP3    H1 8839   3.251   6.401   6.443
19457TIP3    H2 8840   3.399   6.371   6.452
19458TIP3   OH2 8841   2.297   6.983   5.654
19458TIP3    H1 8842   2.369   7.023   5.704
19458TIP3    H2 8843   2.341   6.934   5.584
19459TIP3   OH2 8844   2.099   6.306   5.585
19459TIP3    H1 8845   2.104   6.398   5.611
19459TIP3    H2 8846   2.100   6.308   5.489
19460TIP3   OH2 8847   3.454   7.421   6.548
19460TIP3    H1 8848   3.445   7.501   6.496
19460TIP3    H2 8849   3.547   7.418   6.571
19461TIP3   OH2 8850   2.182   5.785   6.429
19461TIP3    H1 8851   2.175   5.776   6.334
19461TIP3    H2 8852   2.157   5.699   6.464
19462TIP3   OH2 8853   2.069   7.189   6.043
19462TIP3    H1 8854   2.027   7.215   6.125
19462TIP3    H2 8855   2.056   7.263   5.985
19463TIP3   OH2 8856   2.062   7.459   7.246
19463TIP3    H1 8857   2.124   7.462   7.320
19463TIP3    H2 8858   2.074   7.371   7.209
19464TIP3   OH2 8859   2.460   7.306   7.332
19464TIP3    H1 8860   2.522   7.366   7.372
19464TIP3    H2 8861   2.503   7.220   7.337
19465TIP3   OH2 8862   2.859   7.269   5.490
19465TIP3    H1 8863   2.785   7.209   5.484
19465TIP3    H2 8864   2.918   7.228   5.553
19466TIP3   OH2 8865   3.171   7.073   7.181
19466TIP3    H1 8866   3.110   7.038   7.246
19466TIP3    H2 8867   3.240   7.115   7.233
19467TIP3   OH2 8868   3.327   7.207   5.532
19467TIP3    H1 8869   3.288   7.130   5.574
19467TIP3    H2 8870   3.421   7.198   5.551
19468TIP3   OH2 8871   2.027   6.784   7.260
19468TIP3    H1 8872   2.044   6.690   7.267
19468TIP3    H2 8873   1.949   6.791   7.205
19469TIP3   OH2 8874   2.459   6.848   5.479
19469TIP3    H1 8875   2.488   6.783   5.543
19469TIP3    H2 8876   2.536   6.904   5.465
19470TIP3   OH2 8877   2.686   6.849   7.222
19470TIP3    H1 8878   2.652   6.894   7.145
19470TIP3    H2 8879   2.705   6.760   7.192
19471TIP3   OH2 8880   2.917   6.918   5.505
19471TIP3    H1 8881   2.955   6.927   5.592
19471TIP3    H2 8882   2.952   6.836   5.471
19472TIP3   OH2 8883   3.227   6.859   6.988
19472TIP3    H1 8884   3.317   6.891   6.984
19472TIP3    H2 8885   3.186   6.909   7.058
19473TIP3   OH2 8886   2.114   6.515   7.249
19473TIP3    H1 8887   2.173   6.445   7.223
19473TIP3    H2 8888   2.121   6.518   7.344
19474TIP3   OH2 8889   2.549   6.678   5.684
19474TIP3    H1 8890   2.502   6.643   5.760
19474TIP3    H2 8891   2.584   6.601   5.640
19475TIP3   OH2 8892   2.459   6.429   6.922
19475TIP3    H1 8893   2.400   6.501   6.943
19475TIP3    H2 8894   2.542   6.472   6.900
19476TIP3   OH2 8895   2.665   6.478   5.526
19476TIP3    H1 8896   2.661   6.465   5.431
19476TIP3    H2 8897   2.758   6.469   5.547
19477TIP3   OH2 8898   3.647   6.647   5.470
19477TIP3    H1 8899   3.589   6.572   5.455
19477TIP3    H2 8900   3.600   6.721   5.432
19478TIP3   OH2 8901   2.495   6.188   7.050
19478TIP3    H1 8902   2.547   6.128   6.998
19478TIP3    H2 8903   2.499   6.271   7.003
19479TIP3   OH2 8904   2.593   6.033   6.818
19479TIP3    H1 8905   2.641   6.097   6.766
19479TIP3    H2 8906   2.504   6.037   6.784
19480TIP3   OH2 8907   2.683   6.552   6.835
19480TIP3    H1 8908   2.716   6.579   6.920
19480TIP3    H2 8909   2.666   6.635   6.789
19481TIP3   OH2 8910   3.226   6.310   7.317
19481TIP3    H1 8911   3.205   6.238   7.376
19481TIP3    H2 8912   3.175   6.384   7.350
19482TIP3   OH2 8913   3.353   6.609   7.024
19482TIP3    H1 8914   3.293   6.683   7.025
19482TIP3    H2 8915   3.438   6.647   7.046
19483TIP3   OH2 8916   2.259   6.291   7.152
19483TIP3    H1 8917   2.222   6.222   7.208
19483TIP3    H2 8918   2.346   6.259   7.129
19484TIP3   OH2 8919   2.638   5.768   6.877
19484TIP3    H1 8920   2.623   5.860   6.857
19484TIP3    H2 8921   2.564   5.722   6.838
19485TIP3   OH2 8922   2.799   6.149   7.269
19485TIP3    H1 8923   2.842   6.115   7.348
19485TIP3    H2 8924   2.706   6.128   7.282
19486TIP3   OH2 8925   3.048   6.076   7.162
19486TIP3    H1 8926   2.960   6.094   7.196
19486TIP3    H2 8927   3.101   6.060   7.240
19487TIP3   OH2 8928   3.239   5.998   7.380
19487TIP3    H1 8929   3.223   5.907   7.357
19487TIP3    H2 8930   3.209   6.006   7.470
19488TIP3   OH2 8931   2.136   6.095   7.311
19488TIP3    H1 8932   2.178   6.022   7.357
19488TIP3    H2 8933   2.102   6.151   7.381
19489TIP3   OH2 8934   2.616   5.691   7.137
19489TIP3    H1 8935   2.676   5.617   7.139
19489TIP3    H2 8936   2.619   5.722   7.046
19490TIP3   OH2 8937   2.716   5.835   7.353
19490TIP3    H1 8938   2.687   5.801   7.269
19490TIP3    H2 8939   2.667   5.917   7.364
19491TIP3   OH2 8940   2.631   7.536   5.610
19491TIP3    H1 8941   2.723   7.546   5.634
19491TIP3    H2 8942   2.629   7.553   5.516
19492TIP3   OH2 8943   2.021   7.040   5.616
19492TIP3    H1 8944   2.115   7.028   5.631
19492TIP3    H2 8945   2.009   7.020   5.523
19493TIP3   OH2 8946   1.906   7.502   6.140
19493TIP3    H1 8947   1.831   7.476   6.086
19493TIP3    H2 8948   1.919   7.427   6.198
19494TIP3   OH2 8949   1.978   7.288   6.298
19494TIP3    H1 8950   1.940   7.216   6.349
19494TIP3    H2 8951   2.038   7.331   6.360
19495TIP3   OH2 8952   3.716   7.422   6.631
19495TIP3    H1 8953   3.712   7.382   6.718
19495TIP3    H2 8954   3.758   7.507   6.645
19496TIP3   OH2 8955   3.704   7.325   6.885
19496TIP3    H1 8956   3.643   7.257   6.856
19496TIP3    H2 8957   3.732   7.296   6.972
19497TIP3   OH2 8958   3.481   6.992   7.457
19497TIP3    H1 8959   3.441   6.976   7.543
19497TIP3    H2 8960   3.559   7.045   7.477
19498TIP3   OH2 8961   3.675   6.774   5.913
19498TIP3    H1 8962   3.749   6.834   5.923
19498TIP3    H2 8963   3.683   6.714   5.986
19499TIP3   OH2 8964   3.722   6.583   6.111
19499TIP3    H1 8965   3.639   6.550   6.145
19499TIP3    H2 8966   3.777   6.596   6.188
19500TIP3   OH2 8967   3.693   6.891   6.631
19500TIP3    H1 8968   3.753   6.826   6.593
19500TIP3    H2 8969   3.722   6.975   6.594
19501TIP3   OH2 8970   3.520   7.151   6.780
19501TIP3    H1 8971   3.450   7.190   6.832
19501TIP3    H2 8972   3.479   7.133   6.695
19502TIP3   OH2 8973   3.732   6.586   5.721
19502TIP3    H1 8974   3.696   6.616   5.638
19502TIP3    H2 8975   3.706   6.653   5.785
19503TIP3   OH2 8976   3.578   6.272   5.520
19503TIP3    H1 8977   3.600   6.276   5.427
19503TIP3    H2 8978   3.522   6.194   5.528
19504TIP3   OH2 8979   3.468   6.463   6.161
19504TIP3    H1 8980   3.465   6.373   6.130
19504TIP3    H2 8981   3.421   6.462   6.245
19505TIP3   OH2 8982   1.974   6.675   6.593
19505TIP3    H1 8983   1.981   6.658   6.499
19505TIP3    H2 8984   2.046   6.625   6.632
19506TIP3   OH2 8985   3.633   6.670   7.070
19506TIP3    H1 8986   3.638   6.575   7.084
19506TIP3    H2 8987   3.606   6.705   7.155
19507TIP3   OH2 8988   3.661   6.399   7.096
19507TIP3    H1 8989   3.579   6.352   7.082
19507TIP3    H2 8990   3.685   6.378   7.187
19508TIP3   OH2 8991   3.443   6.035   5.537
19508TIP3    H1 8992   3.501   5.984   5.593
19508TIP3    H2 8993   3.360   6.040   5.585
19509TIP3   OH2 8994   3.459   6.226   5.976
19509TIP3    H1 8995   3.487   6.135   5.981
19509TIP3    H2 8996   3.524   6.268   5.918
19510TIP3   OH2 8997   3.487   6.234   6.537
19510TIP3    H1 8998   3.582   6.243   6.525
19510TIP3    H2 8999   3.474   6.244   6.631
19511TIP3   OH2 9000   3.522   6.305   6.805
19511TIP3    H1 9001   3.438   6.329   6.844
19511TIP3    H2 9002   3.563   6.389   6.784
19512TIP3   OH2 9003   1.948   6.136   7.110
19512TIP3    H1 9004   2.013   6.132   7.180
19512TIP3    H2 9005   1.877   6.079   7.139
19513TIP3   OH2 9006   3.690   5.789   7.323
19513TIP3    H1 9007   3.782   5.794   7.295
19513TIP3    H2 9008   3.689   5.831   7.409
19514TIP3   OH2 9009   3.526   5.954   5.986
19514TIP3    H1 9010   3.544   5.916   6.072
19514TIP3    H2 9011   3.453   5.902   5.952
19515TIP3   OH2 9012   2.053   6.023   6.492
19515TIP3    H1 9013   2.098   5.939   6.484
19515TIP3    H2 9014   2.123   6.085   6.510
19516TIP3   OH2 9015   1.871   6.316   6.530
19516TIP3    H1 9016   1.950   6.324   6.475
19516TIP3    H2 9017   1.889   6.372   6.605
19517TIP3   OH2 9018   3.662   6.015   7.136
19517TIP3    H1 9019   3.601   6.033   7.207
19517TIP3    H2 9020   3.696   5.928   7.154
19518TIP3   OH2 9021   3.671   5.923   5.654
19518TIP3    H1 9022   3.741   5.858   5.649
19518TIP3    H2 9023   3.716   6.005   5.676
19519TIP3   OH2 9024   1.918   5.907   5.894
19519TIP3    H1 9025   1.859   5.921   5.968
19519TIP3    H2 9026   1.933   5.995   5.859
19520TIP3   OH2 9027   3.404   7.481   6.169
19520TIP3    H1 9028   3.486   7.452   6.131
19520TIP3    H2 9029   3.428   7.515   6.255
19521TIP3   OH2 9030   1.924   5.766   6.777
19521TIP3    H1 9031   1.877   5.775   6.860
19521TIP3    H2 9032   1.899   5.843   6.727
19522TIP3   OH2 9033   2.113   7.200   7.172
19522TIP3    H1 9034   2.027   7.184   7.133
19522TIP3    H2 9035   2.112   7.149   7.253
19523TIP3   OH2 9036   2.474   7.246   6.792
19523TIP3    H1 9037   2.442   7.335   6.783
19523TIP3    H2 9038   2.570   7.254   6.788
19524TIP3   OH2 9039   2.820   7.380   7.158
19524TIP3    H1 9040   2.839   7.335   7.240
19524TIP3    H2 9041   2.901   7.427   7.136
19525TIP3   OH2 9042   3.063   7.497   7.083
19525TIP3    H1 9043   3.103   7.412   7.064
19525TIP3    H2 9044   3.115   7.531   7.156
19526TIP3   OH2 9045   3.540   5.743   6.934
19526TIP3    H1 9046   3.504   5.832   6.936
19526TIP3    H2 9047   3.476   5.693   6.882
19527TIP3   OH2 9048   2.152   7.514   6.830
19527TIP3    H1 9049   2.077   7.560   6.792
19527TIP3    H2 9050   2.162   7.553   6.917
19528TIP3   OH2 9051   2.418   7.513   6.760
19528TIP3    H1 9052   2.327   7.515   6.787
19528TIP3    H2 9053   2.422   7.567   6.682
19529TIP3   OH2 9054   2.867   7.547   6.677
19529TIP3    H1 9055   2.787   7.583   6.639
19529TIP3    H2 9056   2.881   7.600   6.756
19530TIP3   OH2 9057   3.091   7.392   6.686
19530TIP3    H1 9058   3.013   7.446   6.691
19530TIP3    H2 9059   3.157   7.440   6.736
19531TIP3   OH2 9060   3.324   7.519   6.775
19531TIP3    H1 9061   3.347   7.612   6.774
19531TIP3    H2 9062   3.368   7.483   6.698
19532TIP3   OH2 9063   2.150   7.386   6.498
19532TIP3    H1 9064   2.127   7.349   6.583
19532TIP3    H2 9065   2.230   7.341   6.473
19533TIP3   OH2 9066   2.370   7.247   6.405
19533TIP3    H1 9067   2.357   7.155   6.431
19533TIP3    H2 9068   2.451   7.273   6.448
19534TIP3   OH2 9069   2.627   7.305   6.500
19534TIP3    H1 9070   2.647   7.216   6.470
19534TIP3    H2 9071   2.659   7.308   6.590
19535TIP3   OH2 9072   2.879   5.861   6.349
19535TIP3    H1 9073   2.824   5.803   6.402
19535TIP3    H2 9074   2.963   5.816   6.343
19536TIP3   OH2 9075   3.409   5.745   6.383
19536TIP3    H1 9076   3.476   5.788   6.329
19536TIP3    H2 9077   3.395   5.805   6.456
19537TIP3   OH2 9078   3.613   5.825   6.217
19537TIP3    H1 9079   3.676   5.756   6.199
19537TIP3    H2 9080   3.666   5.903   6.233
19538TIP3   OH2 9081   2.155   5.732   6.156
19538TIP3    H1 9082   2.063   5.709   6.147
19538TIP3    H2 9083   2.201   5.648   6.152
19539TIP3   OH2 9084   2.003   5.773   5.674
19539TIP3    H1 9085   2.094   5.797   5.657
19539TIP3    H2 9086   1.984   5.812   5.760
19540TIP3   OH2 9087   2.643   5.710   6.180
19540TIP3    H1 9088   2.716   5.759   6.144
19540TIP3    H2 9089   2.656   5.712   6.274
19541TIP3   OH2 9090   3.119   5.739   6.317
19541TIP3    H1 9091   3.212   5.756   6.326
19541TIP3    H2 9092   3.106   5.651   6.353
19542TIP3   OH2 9093   3.312   5.796   5.898
19542TIP3    H1 9094   3.237   5.854   5.913
19542TIP3    H2 9095   3.278   5.708   5.911
19543TIP3   OH2 9096   2.031   7.407   5.867
19543TIP3    H1 9097   1.960   7.394   5.804
19543TIP3    H2 9098   1.998   7.473   5.928
19544TIP3   OH2 9099   2.270   5.841   5.635
19544TIP3    H1 9100   2.321   5.878   5.563
19544TIP3    H2 9101   2.309   5.878   5.714
19545TIP3   OH2 9102   2.712   5.958   5.873
19545TIP3    H1 9103   2.757   5.897   5.931
19545TIP3    H2 9104   2.728   6.044   5.910
19546TIP3   OH2 9105   2.905   7.501   5.642
19546TIP3    H1 9106   3.001   7.494   5.642
19546TIP3    H2 9107   2.876   7.428   5.588
19547TIP3   OH2 9108   3.634   7.433   5.963
19547TIP3    H1 9109   3.599   7.345   5.944
19547TIP3    H2 9110   3.590   7.490   5.901
19548TIP3   OH2 9111   2.180   5.757   7.104
19548TIP3    H1 9112   2.113   5.703   7.146
19548TIP3    H2 9113   2.253   5.757   7.166
19549TIP3   OH2 9114   2.392   5.714   7.298
19549TIP3    H1 9115   2.459   5.714   7.229
19549TIP3    H2 9116   2.437   5.678   7.375
19550TIP3   OH2 9117   2.244   7.508   5.646
19550TIP3    H1 9118   2.190   7.460   5.708
19550TIP3    H2 9119   2.329   7.463   5.648
19551TIP3   OH2 9120   3.230   5.723   7.310
19551TIP3    H1 9121   3.215   5.664   7.384
19551TIP3    H2 9122   3.319   5.703   7.281
19552TIP3   OH2 9123   3.503   7.334   7.151
19552TIP3    H1 9124   3.450   7.314   7.074
19552TIP3    H2 9125   3.459   7.288   7.222
19553TIP3   OH2 9126   4.994   6.704   6.117
19553TIP3    H1 9127   4.977   6.798   6.111
19553TIP3    H2 9128   4.915   6.663   6.082
19554TIP3   OH2 9129   4.843   6.609   6.540
19554TIP3    H1 9130   4.871   6.574   6.625
19554TIP3    H2 9131   4.790   6.540   6.502
19555TIP3   OH2 9132   4.078   6.591   6.692
19555TIP3    H1 9133   4.066   6.501   6.721
19555TIP3    H2 9134   4.119   6.635   6.767
19556TIP3   OH2 9135   5.244   6.930   6.355
19556TIP3    H1 9136   5.209   6.853   6.399
19556TIP3    H2 9137   5.260   6.993   6.425
19557TIP3   OH2 9138   4.258   6.979   6.495
19557TIP3    H1 9139   4.213   6.901   6.464
19557TIP3    H2 9140   4.257   6.971   6.591
19558TIP3   OH2 9141   3.856   6.358   6.003
19558TIP3    H1 9142   3.823   6.439   6.041
19558TIP3    H2 9143   3.786   6.329   5.943
19559TIP3   OH2 9144   3.927   6.599   6.311
19559TIP3    H1 9145   3.949   6.511   6.339
19559TIP3    H2 9146   4.008   6.649   6.325
19560TIP3   OH2 9147   4.980   7.388   6.417
19560TIP3    H1 9148   5.000   7.313   6.361
19560TIP3    H2 9149   4.972   7.350   6.505
19561TIP3   OH2 9150   4.708   6.860   6.568
19561TIP3    H1 9151   4.745   6.778   6.535
19561TIP3    H2 9152   4.771   6.891   6.633
19562TIP3   OH2 9153   5.568   6.006   6.661
19562TIP3    H1 9154   5.589   6.060   6.737
19562TIP3    H2 9155   5.589   6.062   6.586
19563TIP3   OH2 9156   4.963   6.267   6.547
19563TIP3    H1 9157   4.982   6.175   6.563
19563TIP3    H2 9158   4.982   6.280   6.454
19564TIP3   OH2 9159   4.354   6.084   6.303
19564TIP3    H1 9160   4.357   6.169   6.260
19564TIP3    H2 9161   4.291   6.033   6.253
19565TIP3   OH2 9162   5.144   6.108   6.140
19565TIP3    H1 9163   5.179   6.073   6.222
19565TIP3    H2 9164   5.220   6.146   6.096
19566TIP3   OH2 9165   3.993   6.345   6.400
19566TIP3    H1 9166   4.056   6.301   6.457
19566TIP3    H2 9167   4.007   6.307   6.314
19567TIP3   OH2 9168   4.497   6.486   6.318
19567TIP3    H1 9169   4.571   6.441   6.358
19567TIP3    H2 9170   4.450   6.417   6.270
19568TIP3   OH2 9171   5.625   6.163   6.878
19568TIP3    H1 9172   5.558   6.229   6.860
19568TIP3    H2 9173   5.648   6.176   6.970
19569TIP3   OH2 9174   4.192   5.997   6.739
19569TIP3    H1 9175   4.167   6.060   6.671
19569TIP3    H2 9176   4.125   6.006   6.806
19570TIP3   OH2 9177   4.957   6.965   6.021
19570TIP3    H1 9178   4.934   6.954   5.929
19570TIP3    H2 9179   4.904   7.039   6.050
19571TIP3   OH2 9180   4.471   6.774   6.684
19571TIP3    H1 9181   4.419   6.845   6.720
19571TIP3    H2 9182   4.549   6.817   6.650
19572TIP3   OH2 9183   5.228   6.043   6.392
19572TIP3    H1 9184   5.151   6.023   6.446
19572TIP3    H2 9185   5.276   6.109   6.443
19573TIP3   OH2 9186   4.194   6.173   6.518
19573TIP3    H1 9187   4.243   6.231   6.576
19573TIP3    H2 9188   4.258   6.142   6.455
19574TIP3   OH2 9189   4.303   6.984   6.778
19574TIP3    H1 9190   4.319   7.077   6.793
19574TIP3    H2 9191   4.218   6.967   6.819
19575TIP3   OH2 9192   3.903   6.938   5.910
19575TIP3    H1 9193   3.902   6.984   5.826
19575TIP3    H2 9194   3.949   6.997   5.970
19576TIP3   OH2 9195   5.269   7.135   6.552
19576TIP3    H1 9196   5.177   7.125   6.576
19576TIP3    H2 9197   5.280   7.230   6.539
19577TIP3   OH2 9198   5.336   5.858   6.738
19577TIP3    H1 9199   5.263   5.920   6.732
19577TIP3    H2 9200   5.411   5.904   6.700
19578TIP3   OH2 9201   4.569   5.704   6.479
19578TIP3    H1 9202   4.551   5.610   6.485
19578TIP3    H2 9203   4.489   5.746   6.511
19579TIP3   OH2 9204   5.087   7.266   6.168
19579TIP3    H1 9205   5.138   7.186   6.156
19579TIP3    H2 9206   5.152   7.334   6.181
19580TIP3   OH2 9207   5.221   7.034   6.099
19580TIP3    H1 9208   5.139   6.993   6.070
19580TIP3    H2 9209   5.240   6.992   6.183
19581TIP3   OH2 9210   5.397   6.909   6.919
19581TIP3    H1 9211   5.384   6.844   6.850
19581TIP3    H2 9212   5.408   6.992   6.872
19582TIP3   OH2 9213   4.829   6.590   5.917
19582TIP3    H1 9214   4.766   6.658   5.891
19582TIP3    H2 9215   4.894   6.591   5.847
19583TIP3   OH2 9216   4.847   6.451   5.540
19583TIP3    H1 9217   4.884   6.495   5.616
19583TIP3    H2 9218   4.909   6.382   5.520
19584TIP3   OH2 9219   5.530   6.526   6.702
19584TIP3    H1 9220   5.460   6.591   6.709
19584TIP3    H2 9221   5.606   6.575   6.670
19585TIP3   OH2 9222   5.201   6.613   5.969
19585TIP3    H1 9223   5.133   6.646   6.028
19585TIP3    H2 9224   5.265   6.571   6.027
19586TIP3   OH2 9225   5.152   6.409   6.912
19586TIP3    H1 9226   5.167   6.482   6.973
19586TIP3    H2 9227   5.078   6.438   6.859
19587TIP3   OH2 9228   4.360   6.686   6.177
19587TIP3    H1 9229   4.330   6.640   6.099
19587TIP3    H2 9230   4.415   6.622   6.222
19588TIP3   OH2 9231   4.521   7.046   6.424
19588TIP3    H1 9232   4.438   7.006   6.449
19588TIP3    H2 9233   4.588   6.988   6.459
19589TIP3   OH2 9234   4.357   6.563   6.546
19589TIP3    H1 9235   4.415   6.545   6.472
19589TIP3    H2 9236   4.399   6.635   6.594
19590TIP3   OH2 9237   5.012   7.112   6.633
19590TIP3    H1 9238   4.988   7.192   6.680
19590TIP3    H2 9239   4.968   7.042   6.681
19591TIP3   OH2 9240   4.475   6.990   7.031
19591TIP3    H1 9241   4.418   7.049   7.080
19591TIP3    H2 9242   4.424   6.964   6.955
19592TIP3   OH2 9243   5.053   6.543   5.745
19592TIP3    H1 9244   5.108   6.580   5.814
19592TIP3    H2 9245   5.104   6.554   5.665
19593TIP3   OH2 9246   4.160   6.639   6.962
19593TIP3    H1 9247   4.161   6.713   7.023
19593TIP3    H2 9248   4.071   6.603   6.970
19594TIP3   OH2 9249   4.840   7.219   6.062
19594TIP3    H1 9250   4.920   7.234   6.113
19594TIP3    H2 9251   4.796   7.303   6.061
19595TIP3   OH2 9252   4.290   7.174   7.116
19595TIP3    H1 9253   4.288   7.218   7.031
19595TIP3    H2 9254   4.199   7.179   7.148
19596TIP3   OH2 9255   5.410   5.712   5.760
19596TIP3    H1 9256   5.326   5.736   5.798
19596TIP3    H2 9257   5.443   5.793   5.720
19597TIP3   OH2 9258   4.270   6.584   5.926
19597TIP3    H1 9259   4.201   6.641   5.890
19597TIP3    H2 9260   4.231   6.497   5.925
19598TIP3   OH2 9261   5.535   7.170   5.583
19598TIP3    H1 9262   5.559   7.259   5.608
19598TIP3    H2 9263   5.613   7.118   5.603
19599TIP3   OH2 9264   3.836   6.816   6.873
19599TIP3    H1 9265   3.773   6.828   6.801
19599TIP3    H2 9266   3.815   6.730   6.908
19600TIP3   OH2 9267   3.791   7.145   6.554
19600TIP3    H1 9268   3.863   7.154   6.616
19600TIP3    H2 9269   3.725   7.208   6.585
19601TIP3   OH2 9270   5.661   7.199   7.151
19601TIP3    H1 9271   5.643   7.105   7.154
19601TIP3    H2 9272   5.574   7.240   7.156
19602TIP3   OH2 9273   4.704   7.147   6.983
19602TIP3    H1 9274   4.703   7.223   7.041
19602TIP3    H2 9275   4.627   7.096   7.009
19603TIP3   OH2 9276   4.797   7.471   5.929
19603TIP3    H1 9277   4.767   7.475   5.838
19603TIP3    H2 9278   4.771   7.555   5.966
19604TIP3   OH2 9279   4.143   7.348   6.176
19604TIP3    H1 9280   4.179   7.315   6.259
19604TIP3    H2 9281   4.091   7.275   6.142
19605TIP3   OH2 9282   5.085   7.410   5.628
19605TIP3    H1 9283   5.147   7.341   5.601
19605TIP3    H2 9284   5.090   7.411   5.723
19606TIP3   OH2 9285   5.066   7.412   5.911
19606TIP3    H1 9286   4.971   7.424   5.918
19606TIP3    H2 9287   5.088   7.355   5.984
19607TIP3   OH2 9288   5.337   6.296   7.188
19607TIP3    H1 9289   5.245   6.315   7.205
19607TIP3    H2 9290   5.336   6.213   7.141
19608TIP3   OH2 9291   4.057   6.978   6.903
19608TIP3    H1 9292   4.080   6.956   6.993
19608TIP3    H2 9293   3.981   6.923   6.884
19609TIP3   OH2 9294   4.320   5.805   6.572
19609TIP3    H1 9295   4.249   5.795   6.509
19609TIP3    H2 9296   4.291   5.874   6.631
19610TIP3   OH2 9297   4.807   5.763   6.955
19610TIP3    H1 9298   4.876   5.714   7.000
19610TIP3    H2 9299   4.731   5.757   7.012
19611TIP3   OH2 9300   5.098   6.141   6.962
19611TIP3    H1 9301   5.028   6.134   7.028
19611TIP3    H2 9302   5.108   6.235   6.947
19612TIP3   OH2 9303   5.197   6.543   5.504
19612TIP3    H1 9304   5.173   6.569   5.415
19612TIP3    H2 9305   5.282   6.584   5.520
19613TIP3   OH2 9306   4.828   6.026   5.629
19613TIP3    H1 9307   4.754   6.007   5.686
19613TIP3    H2 9308   4.794   6.012   5.540
19614TIP3   OH2 9309   4.314   6.338   6.704
19614TIP3    H1 9310   4.241   6.349   6.764
19614TIP3    H2 9311   4.321   6.423   6.659
19615TIP3   OH2 9312   4.335   6.318   6.162
19615TIP3    H1 9313   4.239   6.314   6.167
19615TIP3    H2 9314   4.356   6.292   6.073
19616TIP3   OH2 9315   4.870   6.345   6.035
19616TIP3    H1 9316   4.847   6.433   6.004
19616TIP3    H2 9317   4.943   6.319   5.978
19617TIP3   OH2 9318   4.794   6.369   7.188
19617TIP3    H1 9319   4.744   6.297   7.225
19617TIP3    H2 9320   4.881   6.360   7.226
19618TIP3   OH2 9321   4.998   6.297   6.279
19618TIP3    H1 9322   4.935   6.332   6.216
19618TIP3    H2 9323   5.038   6.223   6.234
19619TIP3   OH2 9324   4.063   6.344   6.837
19619TIP3    H1 9325   4.008   6.405   6.886
19619TIP3    H2 9326   4.017   6.260   6.844
19620TIP3   OH2 9327   4.395   6.046   5.451
19620TIP3    H1 9328   4.379   6.036   5.545
19620TIP3    H2 9329   4.369   6.136   5.432
19621TIP3   OH2 9330   3.798   6.023   6.210
19621TIP3    H1 9331   3.861   6.032   6.282
19621TIP3    H2 9332   3.852   6.000   6.135
19622TIP3   OH2 9333   3.840   6.132   5.741
19622TIP3    H1 9334   3.918   6.173   5.704
19622TIP3    H2 9335   3.780   6.205   5.758
19623TIP3   OH2 9336   4.922   6.441   6.754
19623TIP3    H1 9337   4.941   6.379   6.684
19623TIP3    H2 9338   4.862   6.395   6.812
19624TIP3   OH2 9339   4.630   6.032   6.240
19624TIP3    H1 9340   4.542   6.043   6.277
19624TIP3    H2 9341   4.683   6.000   6.312
19625TIP3   OH2 9342   4.068   6.252   6.149
19625TIP3    H1 9343   3.995   6.278   6.094
19625TIP3    H2 9344   4.078   6.158   6.133
19626TIP3   OH2 9345   4.392   6.232   5.907
19626TIP3    H1 9346   4.486   6.230   5.923
19626TIP3    H2 9347   4.382   6.286   5.828
19627TIP3   OH2 9348   5.006   5.994   6.547
19627TIP3    H1 9349   4.991   5.971   6.638
19627TIP3    H2 9350   4.931   5.955   6.500
19628TIP3   OH2 9351   4.333   6.357   5.672
19628TIP3    H1 9352   4.250   6.331   5.632
19628TIP3    H2 9353   4.390   6.379   5.598
19629TIP3   OH2 9354   5.409   7.549   7.264
19629TIP3    H1 9355   5.376   7.639   7.260
19629TIP3    H2 9356   5.463   7.547   7.342
19630TIP3   OH2 9357   4.112   6.843   7.148
19630TIP3    H1 9358   4.173   6.848   7.221
19630TIP3    H2 9359   4.026   6.831   7.189
19631TIP3   OH2 9360   4.699   6.361   6.474
19631TIP3    H1 9361   4.785   6.320   6.477
19631TIP3    H2 9362   4.651   6.323   6.547
19632TIP3   OH2 9363   4.164   5.980   6.118
19632TIP3    H1 9364   4.118   5.899   6.142
19632TIP3    H2 9365   4.201   5.962   6.032
19633TIP3   OH2 9366   4.583   6.247   6.705
19633TIP3    H1 9367   4.500   6.294   6.717
19633TIP3    H2 9368   4.637   6.274   6.779
19634TIP3   OH2 9369   4.657   6.795   5.838
19634TIP3    H1 9370   4.588   6.754   5.786
19634TIP3    H2 9371   4.609   6.835   5.911
19635TIP3   OH2 9372   5.356   6.744   6.692
19635TIP3    H1 9373   5.417   6.804   6.649
19635TIP3    H2 9374   5.283   6.736   6.632
19636TIP3   OH2 9375   5.091   6.097   5.659
19636TIP3    H1 9376   5.003   6.061   5.648
19636TIP3    H2 9377   5.084   6.153   5.737
19637TIP3   OH2 9378   4.783   6.835   7.014
19637TIP3    H1 9379   4.817   6.791   7.091
19637TIP3    H2 9380   4.736   6.911   7.048
19638TIP3   OH2 9381   5.086   6.285   5.864
19638TIP3    H1 9382   5.172   6.279   5.905
19638TIP3    H2 9383   5.084   6.372   5.825
19639TIP3   OH2 9384   4.172   6.721   6.393
19639TIP3    H1 9385   4.237   6.714   6.323
19639TIP3    H2 9386   4.204   6.662   6.462
19640TIP3   OH2 9387   4.868   6.953   5.750
19640TIP3    H1 9388   4.829   7.040   5.758
19640TIP3    H2 9389   4.798   6.893   5.775
19641TIP3   OH2 9390   3.895   6.519   6.966
19641TIP3    H1 9391   3.926   6.514   7.057
19641TIP3    H2 9392   3.802   6.494   6.971
19642TIP3   OH2 9393   4.601   6.565   7.152
19642TIP3    H1 9394   4.530   6.514   7.112
19642TIP3    H2 9395   4.672   6.502   7.163
19643TIP3   OH2 9396   4.985   7.123   6.967
19643TIP3    H1 9397   4.890   7.122   6.959
19643TIP3    H2 9398   5.001   7.129   7.061
19644TIP3   OH2 9399   5.536   6.342   5.788
19644TIP3    H1 9400   5.498   6.318   5.703
19644TIP3    H2 9401   5.559   6.435   5.779
19645TIP3   OH2 9402   5.610   6.921   7.099
19645TIP3    H1 9403   5.520   6.925   7.065
19645TIP3    H2 9404   5.664   6.900   7.023
19646TIP3   OH2 9405   5.399   7.174   5.916
19646TIP3    H1 9406   5.346   7.126   5.980
19646TIP3    H2 9407   5.388   7.126   5.834
19647TIP3   OH2 9408   5.153   6.697   6.496
19647TIP3    H1 9409   5.059   6.691   6.510
19647TIP3    H2 9410   5.176   6.614   6.453
19648TIP3   OH2 9411   4.418   7.126   6.154
19648TIP3    H1 9412   4.425   7.220   6.137
19648TIP3    H2 9413   4.449   7.115   6.244
19649TIP3   OH2 9414   3.983   6.567   5.613
19649TIP3    H1 9415   4.033   6.624   5.671
19649TIP3    H2 9416   3.895   6.566   5.650
19650TIP3   OH2 9417   4.470   6.897   6.017
19650TIP3    H1 9418   4.454   6.977   6.067
19650TIP3    H2 9419   4.435   6.827   6.071
19651TIP3   OH2 9420   4.613   7.285   6.760
19651TIP3    H1 9421   4.669   7.362   6.749
19651TIP3    H2 9422   4.656   7.233   6.827
19652TIP3   OH2 9423   4.399   7.401   6.077
19652TIP3    H1 9424   4.308   7.393   6.105
19652TIP3    H2 9425   4.426   7.487   6.108
19653TIP3   OH2 9426   4.903   6.887   6.770
19653TIP3    H1 9427   4.848   6.871   6.847
19653TIP3    H2 9428   4.990   6.859   6.796
19654TIP3   OH2 9429   5.153   6.997   5.678
19654TIP3    H1 9430   5.208   6.934   5.726
19654TIP3    H2 9431   5.064   6.980   5.709
19655TIP3   OH2 9432   5.202   7.294   6.939
19655TIP3    H1 9433   5.123   7.240   6.938
19655TIP3    H2 9434   5.180   7.371   6.886
19656TIP3   OH2 9435   5.610   7.426   5.669
19656TIP3    H1 9436   5.674   7.497   5.669
19656TIP3    H2 9437   5.526   7.469   5.685
19657TIP3   OH2 9438   3.981   6.057   6.940
19657TIP3    H1 9439   3.894   6.088   6.916
19657TIP3    H2 9440   3.966   5.975   6.988
19658TIP3   OH2 9441   5.311   6.820   5.819
19658TIP3    H1 9442   5.266   6.754   5.873
19658TIP3    H2 9443   5.401   6.818   5.849
19659TIP3   OH2 9444   3.982   7.213   6.747
19659TIP3    H1 9445   4.015   7.137   6.795
19659TIP3    H2 9446   3.952   7.273   6.815
19660TIP3   OH2 9447   4.553   7.054   5.524
19660TIP3    H1 9448   4.503   6.981   5.488
19660TIP3    H2 9449   4.521   7.063   5.614
19661TIP3   OH2 9450   4.431   7.052   5.778
19661TIP3    H1 9451   4.448   6.999   5.857
19661TIP3    H2 9452   4.452   7.141   5.805
19662TIP3   OH2 9453   4.084   6.749   5.800
19662TIP3    H1 9454   4.014   6.789   5.852
19662TIP3    H2 9455   4.129   6.823   5.758
19663TIP3   OH2 9456   4.965   5.946   6.810
19663TIP3    H1 9457   5.006   6.008   6.870
19663TIP3    H2 9458   4.907   5.894   6.865
19664TIP3   OH2 9459   4.978   5.966   5.974
19664TIP3    H1 9460   4.955   6.032   5.909
19664TIP3    H2 9461   5.030   6.013   6.039
19665TIP3   OH2 9462   4.749   7.189   5.801
19665TIP3    H1 9463   4.663   7.231   5.801
19665TIP3    H2 9464   4.785   7.207   5.887
19666TIP3   OH2 9465   4.650   6.183   6.007
19666TIP3    H1 9466   4.722   6.244   6.020
19666TIP3    H2 9467   4.638   6.141   6.092
19667TIP3   OH2 9468   4.772   6.279   6.924
19667TIP3    H1 9469   4.774   6.326   7.007
19667TIP3    H2 9470   4.795   6.189   6.947
19668TIP3   OH2 9471   4.739   5.850   6.059
19668TIP3    H1 9472   4.706   5.917   6.119
19668TIP3    H2 9473   4.828   5.879   6.037
19669TIP3   OH2 9474   4.501   7.313   5.835
19669TIP3    H1 9475   4.507   7.392   5.782
19669TIP3    H2 9476   4.467   7.343   5.920
19670TIP3   OH2 9477   4.362   6.008   5.729
19670TIP3    H1 9478   4.341   6.082   5.786
19670TIP3    H2 9479   4.450   5.982   5.754
19671TIP3   OH2 9480   5.358   6.071   7.014
19671TIP3    H1 9481   5.263   6.071   7.003
19671TIP3    H2 9482   5.392   6.113   6.935
19672TIP3   OH2 9483   5.217   6.439   6.380
19672TIP3    H1 9484   5.134   6.399   6.354
19672TIP3    H2 9485   5.255   6.377   6.442
19673TIP3   OH2 9486   4.199   6.962   5.664
19673TIP3    H1 9487   4.271   7.005   5.710
19673TIP3    H2 9488   4.242   6.914   5.592
19674TIP3   OH2 9489   4.035   6.295   5.603
19674TIP3    H1 9490   4.020   6.389   5.613
19674TIP3    H2 9491   4.022   6.278   5.510
19675TIP3   OH2 9492   5.341   7.409   6.551
19675TIP3    H1 9493   5.335   7.479   6.486
19675TIP3    H2 9494   5.435   7.404   6.572
19676TIP3   OH2 9495   4.089   5.760   6.433
19676TIP3    H1 9496   4.075   5.754   6.338
19676TIP3    H2 9497   4.058   5.676   6.467
19677TIP3   OH2 9498   3.881   7.232   6.057
19677TIP3    H1 9499   3.873   7.236   6.152
19677TIP3    H2 9500   3.808   7.178   6.029
19678TIP3   OH2 9501   3.887   7.471   7.245
19678TIP3    H1 9502   3.954   7.423   7.294
19678TIP3    H2 9503   3.833   7.403   7.205
19679TIP3   OH2 9504   4.311   7.348   7.369
19679TIP3    H1 9505   4.310   7.308   7.457
19679TIP3    H2 9506   4.327   7.274   7.310
19680TIP3   OH2 9507   4.762   7.231   5.459
19680TIP3    H1 9508   4.681   7.186   5.481
19680TIP3    H2 9509   4.830   7.163   5.462
19681TIP3   OH2 9510   5.044   7.148   7.227
19681TIP3    H1 9511   4.997   7.095   7.291
19681TIP3    H2 9512   5.114   7.190   7.277
19682TIP3   OH2 9513   5.254   7.206   5.532
19682TIP3    H1 9514   5.216   7.133   5.581
19682TIP3    H2 9515   5.348   7.197   5.545
19683TIP3   OH2 9516   3.864   6.824   7.279
19683TIP3    H1 9517   3.815   6.756   7.325
19683TIP3    H2 9518   3.799   6.866   7.222
19684TIP3   OH2 9519   4.370   6.814   5.493
19684TIP3    H1 9520   4.398   6.777   5.577
19684TIP3    H2 9521   4.372   6.741   5.432
19685TIP3   OH2 9522   4.525   6.812   7.241
19685TIP3    H1 9523   4.511   6.862   7.160
19685TIP3    H2 9524   4.558   6.727   7.212
19686TIP3   OH2 9525   4.882   6.965   5.472
19686TIP3    H1 9526   4.891   6.961   5.567
19686TIP3    H2 9527   4.812   6.903   5.452
19687TIP3   OH2 9528   5.124   6.870   6.954
19687TIP3    H1 9529   5.215   6.898   6.958
19687TIP3    H2 9530   5.074   6.950   6.971
19688TIP3   OH2 9531   4.016   6.485   7.201
19688TIP3    H1 9532   4.092   6.429   7.221
19688TIP3    H2 9533   3.987   6.517   7.286
19689TIP3   OH2 9534   4.446   6.665   5.714
19689TIP3    H1 9535   4.393   6.630   5.785
19689TIP3    H2 9536   4.477   6.587   5.667
19690TIP3   OH2 9537   4.377   6.451   7.002
19690TIP3    H1 9538   4.300   6.508   6.996
19690TIP3    H2 9539   4.436   6.484   6.935
19691TIP3   OH2 9540   4.561   6.484   5.533
19691TIP3    H1 9541   4.546   6.476   5.439
19691TIP3    H2 9542   4.654   6.467   5.545
19692TIP3   OH2 9543   4.884   6.719   7.287
19692TIP3    H1 9544   4.965   6.674   7.310
19692TIP3    H2 9545   4.815   6.665   7.324
19693TIP3   OH2 9546   5.435   6.689   5.505
19693TIP3    H1 9547   5.458   6.671   5.414
19693TIP3    H2 9548   5.426   6.784   5.510
19694TIP3   OH2 9549   4.454   6.185   7.050
19694TIP3    H1 9550   4.449   6.125   6.976
19694TIP3    H2 9551   4.424   6.269   7.015
19695TIP3   OH2 9552   4.452   6.013   6.829
19695TIP3    H1 9553   4.503   6.068   6.770
19695TIP3    H2 9554   4.363   6.017   6.794
19696TIP3   OH2 9555   4.565   6.559   6.835
19696TIP3    H1 9556   4.640   6.596   6.882
19696TIP3    H2 9557   4.532   6.631   6.781
19697TIP3   OH2 9558   5.039   6.321   7.322
19697TIP3    H1 9559   5.052   6.272   7.403
19697TIP3    H2 9560   5.065   6.411   7.345
19698TIP3   OH2 9561   5.205   6.628   7.071
19698TIP3    H1 9562   5.167   6.708   7.034
19698TIP3    H2 9563   5.298   6.650   7.083
19699TIP3   OH2 9564   4.227   6.303   7.230
19699TIP3    H1 9565   4.240   6.322   7.323
19699TIP3    H2 9566   4.306   6.336   7.187
19700TIP3   OH2 9567   4.386   5.745   6.937
19700TIP3    H1 9568   4.410   5.833   6.907
19700TIP3    H2 9569   4.370   5.696   6.856
19701TIP3   OH2 9570   4.636   6.149   7.248
19701TIP3    H1 9571   4.578   6.117   7.317
19701TIP3    H2 9572   4.578   6.163   7.173
19702TIP3   OH2 9573   4.888   6.080   7.128
19702TIP3    H1 9574   4.806   6.088   7.176
19702TIP3    H2 9575   4.952   6.054   7.195
19703TIP3   OH2 9576   5.088   5.998   7.312
19703TIP3    H1 9577   5.076   5.905   7.334
19703TIP3    H2 9578   5.076   6.044   7.395
19704TIP3   OH2 9579   4.135   6.021   7.345
19704TIP3    H1 9580   4.071   5.950   7.337
19704TIP3    H2 9581   4.110   6.067   7.425
19705TIP3   OH2 9582   4.587   5.698   7.123
19705TIP3    H1 9583   4.576   5.609   7.155
19705TIP3    H2 9584   4.514   5.711   7.063
19706TIP3   OH2 9585   4.647   5.851   7.344
19706TIP3    H1 9586   4.632   5.806   7.260
19706TIP3    H2 9587   4.569   5.904   7.357
19707TIP3   OH2 9588   4.553   7.534   5.679
19707TIP3    H1 9589   4.643   7.517   5.650
19707TIP3    H2 9590   4.510   7.572   5.602
19708TIP3   OH2 9591   3.936   7.038   5.652
19708TIP3    H1 9592   4.029   7.019   5.646
19708TIP3    H2 9593   3.896   6.983   5.584
19709TIP3   OH2 9594   3.815   7.504   6.151
19709TIP3    H1 9595   3.734   7.488   6.103
19709TIP3    H2 9596   3.820   7.433   6.215
19710TIP3   OH2 9597   3.853   7.295   6.326
19710TIP3    H1 9598   3.810   7.229   6.380
19710TIP3    H2 9599   3.915   7.338   6.386
19711TIP3   OH2 9600   5.605   7.402   6.635
19711TIP3    H1 9601   5.610   7.362   6.721
19711TIP3    H2 9602   5.641   7.490   6.647
19712TIP3   OH2 9603   5.633   7.279   6.878
19712TIP3    H1 9604   5.551   7.233   6.860
19712TIP3    H2 9605   5.643   7.275   6.973
19713TIP3   OH2 9606   5.414   6.948   7.422
19713TIP3    H1 9607   5.333   6.975   7.466
19713TIP3    H2 9608   5.480   7.010   7.453
19714TIP3   OH2 9609   5.571   6.777   5.911
19714TIP3    H1 9610   5.640   6.844   5.920
19714TIP3    H2 9611   5.582   6.721   5.987
19715TIP3   OH2 9612   5.614   6.592   6.112
19715TIP3    H1 9613   5.529   6.558   6.140
19715TIP3    H2 9614   5.663   6.603   6.194
19716TIP3   OH2 9615   5.581   6.889   6.625
19716TIP3    H1 9616   5.643   6.826   6.589
19716TIP3    H2 9617   5.608   6.973   6.588
19717TIP3   OH2 9618   5.399   7.157   6.799
19717TIP3    H1 9619   5.330   7.202   6.848
19717TIP3    H2 9620   5.360   7.143   6.712
19718TIP3   OH2 9621   5.598   6.598   5.707
19718TIP3    H1 9622   5.537   6.623   5.638
19718TIP3    H2 9623   5.584   6.663   5.776
19719TIP3   OH2 9624   5.455   6.296   5.529
19719TIP3    H1 9625   5.455   6.334   5.441
19719TIP3    H2 9626   5.410   6.213   5.520
19720TIP3   OH2 9627   5.364   6.469   6.146
19720TIP3    H1 9628   5.357   6.378   6.115
19720TIP3    H2 9629   5.318   6.468   6.230
19721TIP3   OH2 9630   3.852   6.679   6.565
19721TIP3    H1 9631   3.868   6.657   6.473
19721TIP3    H2 9632   3.934   6.658   6.609
19722TIP3   OH2 9633   5.476   6.662   7.128
19722TIP3    H1 9634   5.525   6.582   7.111
19722TIP3    H2 9635   5.541   6.732   7.123
19723TIP3   OH2 9636   5.574   6.403   7.084
19723TIP3    H1 9637   5.488   6.378   7.116
19723TIP3    H2 9638   5.633   6.334   7.116
19724TIP3   OH2 9639   5.329   6.055   5.520
19724TIP3    H1 9640   5.392   6.000   5.567
19724TIP3    H2 9641   5.249   6.050   5.571
19725TIP3   OH2 9642   5.348   6.227   5.974
19725TIP3    H1 9643   5.376   6.135   5.974
19725TIP3    H2 9644   5.411   6.270   5.917
19726TIP3   OH2 9645   5.350   6.246   6.540
19726TIP3    H1 9646   5.444   6.255   6.522
19726TIP3    H2 9647   5.342   6.260   6.634
19727TIP3   OH2 9648   5.394   6.310   6.814
19727TIP3    H1 9649   5.313   6.342   6.853
19727TIP3    H2 9650   5.440   6.390   6.786
19728TIP3   OH2 9651   3.871   6.179   7.221
19728TIP3    H1 9652   3.827   6.237   7.283
19728TIP3    H2 9653   3.803   6.120   7.189
19729TIP3   OH2 9654   5.613   5.767   7.391
19729TIP3    H1 9655   5.669   5.698   7.355
19729TIP3    H2 9656   5.613   5.835   7.324
19730TIP3   OH2 9657   5.405   5.953   5.986
19730TIP3    H1 9658   5.425   5.915   6.072
19730TIP3    H2 9659   5.333   5.900   5.952
19731TIP3   OH2 9660   3.988   6.019   6.407
19731TIP3    H1 9661   4.014   5.930   6.432
19731TIP3    H2 9662   4.050   6.076   6.452
19732TIP3   OH2 9663   3.757   6.284   6.555
19732TIP3    H1 9664   3.831   6.311   6.500
19732TIP3    H2 9665   3.736   6.361   6.607
19733TIP3   OH2 9666   5.551   5.950   7.191
19733TIP3    H1 9667   5.487   5.973   7.258
19733TIP3    H2 9668   5.503   5.955   7.109
19734TIP3   OH2 9669   5.544   5.936   5.651
19734TIP3    H1 9670   5.610   5.867   5.644
19734TIP3    H2 9671   5.594   6.014   5.677
19735TIP3   OH2 9672   3.813   5.928   5.927
19735TIP3    H1 9673   3.720   5.933   5.951
19735TIP3    H2 9674   3.828   6.006   5.874
19736TIP3   OH2 9675   5.276   7.458   6.169
19736TIP3    H1 9676   5.353   7.454   6.113
19736TIP3    H2 9677   5.303   7.511   6.244
19737TIP3   OH2 9678   3.777   5.760   6.772
19737TIP3    H1 9679   3.707   5.754   6.838
19737TIP3    H2 9680   3.759   5.842   6.726
19738TIP3   OH2 9681   4.029   7.194   7.204
19738TIP3    H1 9682   3.942   7.204   7.166
19738TIP3    H2 9683   4.014   7.146   7.286
19739TIP3   OH2 9684   4.349   7.250   6.837
19739TIP3    H1 9685   4.316   7.339   6.821
19739TIP3    H2 9686   4.443   7.256   6.819
19740TIP3   OH2 9687   4.725   7.390   7.122
19740TIP3    H1 9688   4.731   7.349   7.208
19740TIP3    H2 9689   4.811   7.432   7.109
19741TIP3   OH2 9690   4.978   7.501   7.098
19741TIP3    H1 9691   5.028   7.421   7.085
19741TIP3    H2 9692   5.008   7.536   7.182
19742TIP3   OH2 9693   5.474   5.731   6.956
19742TIP3    H1 9694   5.412   5.764   6.891
19742TIP3    H2 9695   5.485   5.639   6.934
19743TIP3   OH2 9696   4.038   7.560   6.843
19743TIP3    H1 9697   3.960   7.596   6.801
19743TIP3    H2 9698   4.035   7.592   6.933
19744TIP3   OH2 9699   4.302   7.518   6.780
19744TIP3    H1 9700   4.211   7.530   6.807
19744TIP3    H2 9701   4.309   7.567   6.698
19745TIP3   OH2 9702   4.747   7.520   6.682
19745TIP3    H1 9703   4.684   7.563   6.624
19745TIP3    H2 9704   4.758   7.581   6.755
19746TIP3   OH2 9705   4.976   7.373   6.708
19746TIP3    H1 9706   4.896   7.425   6.703
19746TIP3    H2 9707   5.044   7.436   6.734
19747TIP3   OH2 9708   5.205   7.519   6.766
19747TIP3    H1 9709   5.234   7.610   6.765
19747TIP3    H2 9710   5.253   7.478   6.694
19748TIP3   OH2 9711   4.035   7.389   6.515
19748TIP3    H1 9712   4.011   7.352   6.600
19748TIP3    H2 9713   4.113   7.340   6.489
19749TIP3   OH2 9714   4.249   7.248   6.412
19749TIP3    H1 9715   4.245   7.155   6.435
19749TIP3    H2 9716   4.332   7.278   6.448
19750TIP3   OH2 9717   4.506   7.309   6.506
19750TIP3    H1 9718   4.528   7.224   6.470
19750TIP3    H2 9719   4.535   7.305   6.597
19751TIP3   OH2 9720   4.791   5.873   6.405
19751TIP3    H1 9721   4.727   5.808   6.434
19751TIP3    H2 9722   4.861   5.822   6.364
19752TIP3   OH2 9723   5.307   5.732   6.384
19752TIP3    H1 9724   5.373   5.787   6.341
19752TIP3    H2 9725   5.234   5.791   6.401
19753TIP3   OH2 9726   5.499   5.837   6.219
19753TIP3    H1 9727   5.563   5.767   6.204
19753TIP3    H2 9728   5.553   5.916   6.233
19754TIP3   OH2 9729   4.046   5.730   6.161
19754TIP3    H1 9730   3.953   5.710   6.148
19754TIP3    H2 9731   4.089   5.644   6.156
19755TIP3   OH2 9732   3.893   5.759   5.721
19755TIP3    H1 9733   3.977   5.797   5.696
19755TIP3    H2 9734   3.870   5.806   5.802
19756TIP3   OH2 9735   4.537   5.699   6.194
19756TIP3    H1 9736   4.606   5.751   6.153
19756TIP3    H2 9737   4.552   5.708   6.288
19757TIP3   OH2 9738   5.005   5.730   6.303
19757TIP3    H1 9739   5.064   5.709   6.231
19757TIP3    H2 9740   4.997   5.649   6.353
19758TIP3   OH2 9741   5.188   5.792   5.903
19758TIP3    H1 9742   5.113   5.848   5.920
19758TIP3    H2 9743   5.154   5.703   5.911
19759TIP3   OH2 9744   3.928   7.296   5.748
19759TIP3    H1 9745   3.935   7.206   5.716
19759TIP3    H2 9746   3.857   7.335   5.697
19760TIP3   OH2 9747   4.138   5.852   5.642
19760TIP3    H1 9748   4.180   5.780   5.595
19760TIP3    H2 9749   4.211   5.908   5.670
19761TIP3   OH2 9750   4.626   5.979   5.823
19761TIP3    H1 9751   4.647   5.906   5.881
19761TIP3    H2 9752   4.633   6.057   5.879
19762TIP3   OH2 9753   4.810   7.462   5.617
19762TIP3    H1 9754   4.906   7.460   5.624
19762TIP3    H2 9755   4.788   7.381   5.570
19763TIP3   OH2 9756   5.484   7.430   5.982
19763TIP3    H1 9757   5.460   7.340   5.959
19763TIP3    H2 9758   5.465   7.481   5.904
19764TIP3   OH2 9759   4.238   5.945   7.096
19764TIP3    H1 9760   4.174   5.919   7.163
19764TIP3    H2 9761   4.318   5.962   7.145
19765TIP3   OH2 9762   4.249   5.630   7.250
19765TIP3    H1 9763   4.330   5.582   7.268
19765TIP3    H2 9764   4.195   5.618   7.328
19766TIP3   OH2 9765   4.115   7.427   5.482
19766TIP3    H1 9766   4.043   7.488   5.468
19766TIP3    H2 9767   4.103   7.395   5.571
19767TIP3   OH2 9768   5.125   5.710   7.329
19767TIP3    H1 9769   5.145   5.699   7.422
19767TIP3    H2 9770   5.211   5.711   7.286
19768TIP3   OH2 9771   5.425   7.327   7.108
19768TIP3    H1 9772   5.341   7.305   7.068
19768TIP3    H2 9773   5.404   7.396   7.171
19769TIP3   OH2 9774   6.874   6.706   6.120
19769TIP3    H1 9775   6.857   6.800   6.113
19769TIP3    H2 9776   6.805   6.665   6.069
19770TIP3   OH2 9777   6.724   6.611   6.545
19770TIP3    H1 9778   6.756   6.570   6.625
19770TIP3    H2 9779   6.676   6.542   6.499
19771TIP3   OH2 9780   5.960   6.551   6.704
19771TIP3    H1 9781   5.952   6.466   6.747
19771TIP3    H2 9782   6.004   6.606   6.769
19772TIP3   OH2 9783   7.118   6.927   6.357
19772TIP3    H1 9784   7.089   6.845   6.397
19772TIP3    H2 9785   7.132   6.986   6.431
19773TIP3   OH2 9786   6.152   6.963   6.501
19773TIP3    H1 9787   6.098   6.889   6.475
19773TIP3    H2 9788   6.152   6.960   6.597
19774TIP3   OH2 9789   5.743   6.378   5.993
19774TIP3    H1 9790   5.708   6.456   6.036
19774TIP3    H2 9791   5.672   6.347   5.936
19775TIP3   OH2 9792   5.804   6.599   6.322
19775TIP3    H1 9793   5.825   6.508   6.343
19775TIP3    H2 9794   5.885   6.646   6.339
19776TIP3   OH2 9795   6.853   7.379   6.415
19776TIP3    H1 9796   6.883   7.325   6.342
19776TIP3    H2 9797   6.839   7.318   6.487
19777TIP3   OH2 9798   6.592   6.860   6.562
19777TIP3    H1 9799   6.630   6.775   6.540
19777TIP3    H2 9800   6.654   6.899   6.625
19778TIP3   OH2 9801   7.447   5.989   6.656
19778TIP3    H1 9802   7.465   6.059   6.718
19778TIP3    H2 9803   7.509   6.004   6.584
19779TIP3   OH2 9804   6.888   6.257   6.559
19779TIP3    H1 9805   6.910   6.165   6.574
19779TIP3    H2 9806   6.877   6.264   6.464
19780TIP3   OH2 9807   6.233   6.094   6.291
19780TIP3    H1 9808   6.231   6.177   6.242
19780TIP3    H2 9809   6.201   6.029   6.229
19781TIP3   OH2 9810   7.024   6.109   6.125
19781TIP3    H1 9811   7.066   6.086   6.208
19781TIP3    H2 9812   7.094   6.145   6.072
19782TIP3   OH2 9813   5.867   6.340   6.390
19782TIP3    H1 9814   5.932   6.298   6.446
19782TIP3    H2 9815   5.882   6.302   6.303
19783TIP3   OH2 9816   6.375   6.502   6.305
19783TIP3    H1 9817   6.450   6.460   6.346
19783TIP3    H2 9818   6.328   6.432   6.261
19784TIP3   OH2 9819   7.497   6.164   6.863
19784TIP3    H1 9820   7.422   6.224   6.856
19784TIP3    H2 9821   7.538   6.187   6.947
19785TIP3   OH2 9822   6.100   6.003   6.714
19785TIP3    H1 9823   6.075   6.067   6.647
19785TIP3    H2 9824   6.029   6.007   6.778
19786TIP3   OH2 9825   6.830   6.966   6.031
19786TIP3    H1 9826   6.816   6.964   5.936
19786TIP3    H2 9827   6.784   7.044   6.061
19787TIP3   OH2 9828   6.365   6.776   6.696
19787TIP3    H1 9829   6.308   6.846   6.730
19787TIP3    H2 9830   6.439   6.822   6.658
19788TIP3   OH2 9831   7.131   6.083   6.375
19788TIP3    H1 9832   7.073   6.046   6.441
19788TIP3    H2 9833   7.188   6.142   6.424
19789TIP3   OH2 9834   6.075   6.182   6.502
19789TIP3    H1 9835   6.127   6.240   6.558
19789TIP3    H2 9836   6.136   6.149   6.437
19790TIP3   OH2 9837   6.191   6.977   6.779
19790TIP3    H1 9838   6.206   7.071   6.788
19790TIP3    H2 9839   6.108   6.962   6.825
19791TIP3   OH2 9840   5.786   6.958   5.893
19791TIP3    H1 9841   5.763   7.000   5.810
19791TIP3    H2 9842   5.800   7.030   5.954
19792TIP3   OH2 9843   7.132   7.118   6.564
19792TIP3    H1 9844   7.040   7.133   6.586
19792TIP3    H2 9845   7.166   7.204   6.540
19793TIP3   OH2 9846   7.209   5.884   6.747
19793TIP3    H1 9847   7.139   5.934   6.706
19793TIP3    H2 9848   7.289   5.915   6.705
19794TIP3   OH2 9849   6.438   5.685   6.459
19794TIP3    H1 9850   6.420   5.592   6.469
19794TIP3    H2 9851   6.362   5.728   6.499
19795TIP3   OH2 9852   6.967   7.276   6.179
19795TIP3    H1 9853   7.017   7.195   6.164
19795TIP3    H2 9854   7.034   7.344   6.185
19796TIP3   OH2 9855   7.094   7.041   6.107
19796TIP3    H1 9856   7.014   6.998   6.079
19796TIP3    H2 9857   7.117   6.997   6.189
19797TIP3   OH2 9858   7.252   6.898   6.919
19797TIP3    H1 9859   7.250   6.838   6.845
19797TIP3    H2 9860   7.268   6.984   6.880
19798TIP3   OH2 9861   6.725   6.600   5.910
19798TIP3    H1 9862   6.664   6.666   5.878
19798TIP3    H2 9863   6.789   6.590   5.839
19799TIP3   OH2 9864   6.762   6.431   5.552
19799TIP3    H1 9865   6.815   6.480   5.615
19799TIP3    H2 9866   6.804   6.346   5.545
19800TIP3   OH2 9867   7.429   6.557   6.754
19800TIP3    H1 9868   7.360   6.622   6.741
19800TIP3    H2 9869   7.499   6.584   6.696
19801TIP3   OH2 9870   7.083   6.624   5.967
19801TIP3    H1 9871   7.016   6.652   6.030
19801TIP3    H2 9872   7.146   6.574   6.020
19802TIP3   OH2 9873   7.039   6.436   6.925
19802TIP3    H1 9874   7.038   6.502   6.994
19802TIP3    H2 9875   6.968   6.462   6.866
19803TIP3   OH2 9876   6.231   6.698   6.167
19803TIP3    H1 9877   6.196   6.647   6.094
19803TIP3    H2 9878   6.281   6.635   6.219
19804TIP3   OH2 9879   6.415   7.027   6.422
19804TIP3    H1 9880   6.330   6.994   6.452
19804TIP3    H2 9881   6.479   6.973   6.467
19805TIP3   OH2 9882   6.244   6.581   6.544
19805TIP3    H1 9883   6.307   6.558   6.476
19805TIP3    H2 9884   6.290   6.643   6.600
19806TIP3   OH2 9885   6.872   7.157   6.650
19806TIP3    H1 9886   6.854   7.220   6.720
19806TIP3    H2 9887   6.841   7.074   6.684
19807TIP3   OH2 9888   6.357   7.002   7.027
19807TIP3    H1 9889   6.295   7.062   7.068
19807TIP3    H2 9890   6.307   6.960   6.957
19808TIP3   OH2 9891   6.943   6.560   5.736
19808TIP3    H1 9892   6.998   6.594   5.806
19808TIP3    H2 9893   6.990   6.581   5.655
19809TIP3   OH2 9894   6.053   6.644   6.954
19809TIP3    H1 9895   6.060   6.712   7.021
19809TIP3    H2 9896   5.965   6.607   6.967
19810TIP3   OH2 9897   6.718   7.211   6.082
19810TIP3    H1 9898   6.796   7.241   6.128
19810TIP3    H2 9899   6.684   7.289   6.038
19811TIP3   OH2 9900   6.168   7.187   7.097
19811TIP3    H1 9901   6.150   7.214   7.007
19811TIP3    H2 9902   6.083   7.167   7.135
19812TIP3   OH2 9903   7.292   5.715   5.704
19812TIP3    H1 9904   7.215   5.741   5.755
19812TIP3    H2 9905   7.270   5.737   5.614
19813TIP3   OH2 9906   6.134   6.601   5.926
19813TIP3    H1 9907   6.069   6.654   5.879
19813TIP3    H2 9908   6.097   6.513   5.926
19814TIP3   OH2 9909   7.417   7.147   5.601
19814TIP3    H1 9910   7.437   7.233   5.637
19814TIP3    H2 9911   7.497   7.095   5.615
19815TIP3   OH2 9912   5.734   6.832   6.869
19815TIP3    H1 9913   5.672   6.833   6.795
19815TIP3    H2 9914   5.742   6.739   6.892
19816TIP3   OH2 9915   5.685   7.143   6.547
19816TIP3    H1 9916   5.755   7.146   6.611
19816TIP3    H2 9917   5.632   7.220   6.566
19817TIP3   OH2 9918   7.465   7.174   7.157
19817TIP3    H1 9919   7.473   7.080   7.142
19817TIP3    H2 9920   7.483   7.185   7.251
19818TIP3   OH2 9921   6.583   7.158   6.975
19818TIP3    H1 9922   6.595   7.213   7.052
19818TIP3    H2 9923   6.512   7.099   6.998
19819TIP3   OH2 9924   6.689   7.468   5.947
19819TIP3    H1 9925   6.662   7.485   5.857
19819TIP3    H2 9926   6.668   7.548   5.995
19820TIP3   OH2 9927   6.034   7.349   6.175
19820TIP3    H1 9928   6.057   7.312   6.261
19820TIP3    H2 9929   5.976   7.284   6.136
19821TIP3   OH2 9930   6.976   7.406   5.636
19821TIP3    H1 9931   7.038   7.337   5.611
19821TIP3    H2 9932   6.983   7.412   5.731
19822TIP3   OH2 9933   6.959   7.423   5.912
19822TIP3    H1 9934   6.866   7.433   5.930
19822TIP3    H2 9935   6.993   7.371   5.985
19823TIP3   OH2 9936   7.211   6.318   7.161
19823TIP3    H1 9937   7.123   6.351   7.178
19823TIP3    H2 9938   7.199   6.251   7.094
19824TIP3   OH2 9939   5.956   6.984   6.917
19824TIP3    H1 9940   5.977   6.959   7.007
19824TIP3    H2 9941   5.877   6.934   6.896
19825TIP3   OH2 9942   6.206   5.797   6.562
19825TIP3    H1 9943   6.129   5.783   6.507
19825TIP3    H2 9944   6.182   5.871   6.618
19826TIP3   OH2 9945   6.674   5.780   6.899
19826TIP3    H1 9946   6.716   5.731   6.970
19826TIP3    H2 9947   6.581   5.782   6.924
19827TIP3   OH2 9948   6.992   6.169   6.972
19827TIP3    H1 9949   6.909   6.161   7.021
19827TIP3    H2 9950   6.997   6.262   6.950
19828TIP3   OH2 9951   7.072   6.593   5.496
19828TIP3    H1 9952   7.053   6.605   5.403
19828TIP3    H2 9953   7.162   6.625   5.507
19829TIP3   OH2 9954   6.636   5.960   5.590
19829TIP3    H1 9955   6.695   6.013   5.644
19829TIP3    H2 9956   6.685   5.881   5.572
19830TIP3   OH2 9957   6.210   6.341   6.680
19830TIP3    H1 9958   6.148   6.342   6.753
19830TIP3    H2 9959   6.207   6.430   6.645
19831TIP3   OH2 9960   6.208   6.333   6.151
19831TIP3    H1 9961   6.114   6.320   6.152
19831TIP3    H2 9962   6.235   6.304   6.064
19832TIP3   OH2 9963   6.760   6.357   6.037
19832TIP3    H1 9964   6.739   6.444   6.003
19832TIP3    H2 9965   6.836   6.329   5.985
19833TIP3   OH2 9966   6.680   6.395   7.158
19833TIP3    H1 9967   6.633   6.321   7.197
19833TIP3    H2 9968   6.768   6.390   7.194
19834TIP3   OH2 9969   6.872   6.284   6.285
19834TIP3    H1 9970   6.818   6.327   6.218
19834TIP3    H2 9971   6.917   6.214   6.238
19835TIP3   OH2 9972   6.001   6.317   6.865
19835TIP3    H1 9973   6.020   6.334   6.957
19835TIP3    H2 9974   5.957   6.232   6.865
19836TIP3   OH2 9975   6.332   6.049   5.485
19836TIP3    H1 9976   6.304   6.138   5.465
19836TIP3    H2 9977   6.348   6.009   5.399
19837TIP3   OH2 9978   5.685   6.035   6.206
19837TIP3    H1 9979   5.747   6.035   6.279
19837TIP3    H2 9980   5.731   5.993   6.134
19838TIP3   OH2 9981   5.719   6.138   5.748
19838TIP3    H1 9982   5.799   6.179   5.715
19838TIP3    H2 9983   5.659   6.211   5.763
19839TIP3   OH2 9984   6.822   6.446   6.747
19839TIP3    H1 9985   6.851   6.382   6.683
19839TIP3    H2 9986   6.755   6.400   6.798
19840TIP3   OH2 9987   6.513   6.088   6.256
19840TIP3    H1 9988   6.424   6.084   6.291
19840TIP3    H2 9989   6.557   6.012   6.294
19841TIP3   OH2 9990   5.945   6.255   6.131
19841TIP3    H1 9991   5.876   6.298   6.081
19841TIP3    H2 9992   5.931   6.162   6.115
19842TIP3   OH2 9993   6.276   6.241   5.900
19842TIP3    H1 9994   6.370   6.238   5.915
19842TIP3    H2 9995   6.266   6.281   5.814
19843TIP3   OH2 9996   6.962   5.969   6.556
19843TIP3    H1 9997   6.917   5.965   6.640
19843TIP3    H2 9998   6.923   5.898   6.505
19844TIP3   OH2 9999   6.193   6.332   5.656
19844TIP3    H110000   6.099   6.313   5.655
19844TIP3    H210001   6.220   6.327   5.564
19845TIP3   OH210002   7.234   7.562   7.246
19845TIP3    H110003   7.239   7.574   7.152
19845TIP3    H210004   7.318   7.594   7.280
19846TIP3   OH210005   6.024   6.840   7.154
19846TIP3    H110006   6.098   6.836   7.215
19846TIP3    H210007   5.947   6.841   7.210
19847TIP3   OH210008   6.581   6.377   6.451
19847TIP3    H110009   6.638   6.312   6.412
19847TIP3    H210010   6.547   6.335   6.530
19848TIP3   OH210011   6.156   5.898   6.096
19848TIP3    H110012   6.077   5.847   6.113
19848TIP3    H210013   6.228   5.840   6.124
19849TIP3   OH210014   6.478   6.256   6.683
19849TIP3    H110015   6.394   6.299   6.695
19849TIP3    H210016   6.530   6.283   6.759
19850TIP3   OH210017   6.548   6.809   5.849
19850TIP3    H110018   6.475   6.760   5.810
19850TIP3    H210019   6.518   6.829   5.937
19851TIP3   OH210020   7.243   6.753   6.685
19851TIP3    H110021   7.308   6.805   6.639
19851TIP3    H210022   7.175   6.736   6.619
19852TIP3   OH210023   6.843   6.111   5.719
19852TIP3    H110024   6.889   6.126   5.637
19852TIP3    H210025   6.875   6.179   5.778
19853TIP3   OH210026   6.706   6.845   7.016
19853TIP3    H110027   6.764   6.795   7.073
19853TIP3    H210028   6.627   6.860   7.069
19854TIP3   OH210029   6.974   6.305   5.866
19854TIP3    H110030   7.062   6.284   5.896
19854TIP3    H210031   6.983   6.391   5.824
19855TIP3   OH210032   6.049   6.714   6.398
19855TIP3    H110033   6.111   6.707   6.326
19855TIP3    H210034   6.086   6.660   6.467
19856TIP3   OH210035   6.752   6.967   5.759
19856TIP3    H110036   6.710   7.053   5.764
19856TIP3    H210037   6.685   6.905   5.788
19857TIP3   OH210038   5.769   6.579   6.981
19857TIP3    H110039   5.813   6.566   7.065
19857TIP3    H210040   5.697   6.516   6.982
19858TIP3   OH210041   6.496   6.602   7.114
19858TIP3    H110042   6.415   6.551   7.122
19858TIP3    H210043   6.565   6.539   7.136
19859TIP3   OH210044   6.859   7.124   6.984
19859TIP3    H110045   6.766   7.127   6.961
19859TIP3    H210046   6.860   7.100   7.076
19860TIP3   OH210047   7.429   6.339   5.778
19860TIP3    H110048   7.388   6.311   5.696
19860TIP3    H210049   7.449   6.432   5.764
19861TIP3   OH210050   7.460   6.895   7.097
19861TIP3    H110051   7.374   6.899   7.056
19861TIP3    H210052   7.522   6.887   7.024
19862TIP3   OH210053   7.258   7.177   5.916
19862TIP3    H110054   7.209   7.129   5.983
19862TIP3    H210055   7.274   7.112   5.848
19863TIP3   OH210056   7.038   6.688   6.492
19863TIP3    H110057   6.943   6.678   6.501
19863TIP3    H210058   7.067   6.607   6.450
19864TIP3   OH210059   6.239   7.122   6.149
19864TIP3    H110060   6.268   7.205   6.111
19864TIP3    H210061   6.214   7.144   6.239
19865TIP3   OH210062   5.857   6.572   5.623
19865TIP3    H110063   5.901   6.638   5.677
19865TIP3    H210064   5.765   6.576   5.649
19866TIP3   OH210065   6.456   6.869   6.106
19866TIP3    H110066   6.502   6.935   6.159
19866TIP3    H210067   6.445   6.794   6.165
19867TIP3   OH210068   6.497   7.287   6.748
19867TIP3    H110069   6.550   7.367   6.739
19867TIP3    H210070   6.536   7.240   6.820
19868TIP3   OH210071   6.278   7.393   6.055
19868TIP3    H110072   6.189   7.393   6.090
19868TIP3    H210073   6.319   7.471   6.093
19869TIP3   OH210074   6.785   6.906   6.757
19869TIP3    H110075   6.749   6.896   6.845
19869TIP3    H210076   6.845   6.833   6.747
19870TIP3   OH210077   7.023   6.989   5.664
19870TIP3    H110078   7.082   6.935   5.717
19870TIP3    H210079   6.937   6.978   5.705
19871TIP3   OH210080   7.085   7.317   6.942
19871TIP3    H110081   7.003   7.312   6.895
19871TIP3    H210082   7.124   7.400   6.916
19872TIP3   OH210083   7.501   7.404   5.663
19872TIP3    H110084   7.512   7.415   5.568
19872TIP3    H210085   7.437   7.471   5.687
19873TIP3   OH210086   5.889   6.057   6.888
19873TIP3    H110087   5.798   6.084   6.876
19873TIP3    H210088   5.889   6.004   6.967
19874TIP3   OH210089   7.190   6.838   5.825
19874TIP3    H110090   7.146   6.771   5.878
19874TIP3    H210091   7.282   6.828   5.846
19875TIP3   OH210092   5.867   7.205   6.748
19875TIP3    H110093   5.908   7.140   6.806
19875TIP3    H210094   5.798   7.244   6.802
19876TIP3   OH210095   6.455   7.048   5.474
19876TIP3    H110096   6.473   7.015   5.386
19876TIP3    H210097   6.387   6.989   5.508
19877TIP3   OH210098   6.298   7.025   5.846
19877TIP3    H110099   6.371   6.991   5.795
19877TIP3    H210100   6.308   7.120   5.841
19878TIP3   OH210101   5.964   6.774   5.791
19878TIP3    H110102   5.893   6.817   5.839
19878TIP3    H210103   5.998   6.841   5.733
19879TIP3   OH210104   6.849   5.968   6.799
19879TIP3    H110105   6.875   6.025   6.871
19879TIP3    H210106   6.783   5.910   6.837
19880TIP3   OH210107   6.867   5.950   5.956
19880TIP3    H110108   6.853   6.001   5.876
19880TIP3    H210109   6.914   6.009   6.015
19881TIP3   OH210110   6.612   7.197   5.773
19881TIP3    H110111   6.522   7.222   5.792
19881TIP3    H210112   6.656   7.280   5.754
19882TIP3   OH210113   6.533   6.203   6.008
19882TIP3    H110114   6.611   6.258   6.015
19882TIP3    H210115   6.522   6.166   6.096
19883TIP3   OH210116   6.656   6.286   6.903
19883TIP3    H110117   6.653   6.340   6.983
19883TIP3    H210118   6.680   6.199   6.934
19884TIP3   OH210119   6.645   5.819   6.059
19884TIP3    H110120   6.649   5.834   6.154
19884TIP3    H210121   6.725   5.859   6.025
19885TIP3   OH210122   6.356   7.297   5.809
19885TIP3    H110123   6.363   7.370   5.747
19885TIP3    H210124   6.330   7.339   5.891
19886TIP3   OH210125   6.207   5.975   5.802
19886TIP3    H110126   6.209   6.069   5.821
19886TIP3    H210127   6.191   5.934   5.887
19887TIP3   OH210128   7.225   6.046   7.022
19887TIP3    H110129   7.136   6.078   7.012
19887TIP3    H210130   7.247   6.011   6.935
19888TIP3   OH210131   7.101   6.436   6.378
19888TIP3    H110132   7.019   6.388   6.362
19888TIP3    H210133   7.149   6.381   6.440
19889TIP3   OH210134   6.065   6.990   5.644
19889TIP3    H110135   6.113   7.043   5.707
19889TIP3    H210136   6.132   6.945   5.594
19890TIP3   OH210137   5.915   6.302   5.620
19890TIP3    H110138   5.895   6.396   5.628
19890TIP3    H210139   5.894   6.281   5.530
19891TIP3   OH210140   7.244   7.369   6.533
19891TIP3    H110141   7.239   7.441   6.469
19891TIP3    H210142   7.332   7.375   6.569
19892TIP3   OH210143   5.970   5.761   6.427
19892TIP3    H110144   5.959   5.751   6.332
19892TIP3    H210145   5.936   5.679   6.464
19893TIP3   OH210146   5.841   7.182   6.056
19893TIP3    H110147   5.788   7.207   6.132
19893TIP3    H210148   5.823   7.251   5.991
19894TIP3   OH210149   5.792   7.451   7.257
19894TIP3    H110150   5.839   7.433   7.339
19894TIP3    H210151   5.751   7.367   7.234
19895TIP3   OH210152   6.267   7.344   7.302
19895TIP3    H110153   6.229   7.304   7.380
19895TIP3    H210154   6.239   7.287   7.230
19896TIP3   OH210155   6.661   7.234   5.463
19896TIP3    H110156   6.580   7.187   5.482
19896TIP3    H210157   6.730   7.168   5.474
19897TIP3   OH210158   6.924   7.101   7.253
19897TIP3    H110159   6.844   7.073   7.298
19897TIP3    H210160   6.980   7.023   7.253
19898TIP3   OH210161   7.141   7.202   5.541
19898TIP3    H110162   7.097   7.129   5.584
19898TIP3    H210163   7.234   7.187   5.558
19899TIP3   OH210164   5.796   6.885   7.323
19899TIP3    H110165   5.765   6.865   7.411
19899TIP3    H210166   5.716   6.890   7.270
19900TIP3   OH210167   6.274   6.844   5.535
19900TIP3    H110168   6.299   6.785   5.607
19900TIP3    H210169   6.255   6.785   5.462
19901TIP3   OH210170   6.503   6.866   7.215
19901TIP3    H110171   6.440   6.907   7.156
19901TIP3    H210172   6.494   6.772   7.197
19902TIP3   OH210173   6.750   6.900   5.490
19902TIP3    H110174   6.754   6.927   5.582
19902TIP3    H210175   6.703   6.817   5.491
19903TIP3   OH210176   7.005   6.880   7.033
19903TIP3    H110177   7.092   6.891   6.994
19903TIP3    H210178   6.951   6.946   6.989
19904TIP3   OH210179   5.912   6.516   7.200
19904TIP3    H110180   5.968   6.438   7.197
19904TIP3    H210181   5.909   6.539   7.293
19905TIP3   OH210182   6.343   6.667   5.736
19905TIP3    H110183   6.281   6.616   5.787
19905TIP3    H210184   6.387   6.603   5.679
19906TIP3   OH210185   6.263   6.450   6.975
19906TIP3    H110186   6.191   6.513   6.973
19906TIP3    H210187   6.326   6.485   6.912
19907TIP3   OH210188   6.493   6.529   5.551
19907TIP3    H110189   6.465   6.512   5.461
19907TIP3    H210190   6.578   6.486   5.557
19908TIP3   OH210191   6.809   6.727   7.292
19908TIP3    H110192   6.896   6.696   7.268
19908TIP3    H210193   6.773   6.658   7.347
19909TIP3   OH210194   7.333   6.695   5.476
19909TIP3    H110195   7.348   6.657   5.390
19909TIP3    H210196   7.342   6.790   5.463
19910TIP3   OH210197   6.317   6.196   7.060
19910TIP3    H110198   6.324   6.137   6.985
19910TIP3    H210199   6.302   6.282   7.023
19911TIP3   OH210200   6.348   6.040   6.826
19911TIP3    H110201   6.399   6.094   6.765
19911TIP3    H210202   6.262   6.032   6.785
19912TIP3   OH210203   6.467   6.558   6.829
19912TIP3    H110204   6.505   6.591   6.911
19912TIP3    H210205   6.437   6.637   6.783
19913TIP3   OH210206   6.939   6.354   7.281
19913TIP3    H110207   6.956   6.280   7.340
19913TIP3    H210208   6.908   6.424   7.339
19914TIP3   OH210209   7.063   6.631   7.129
19914TIP3    H110210   7.038   6.717   7.093
19914TIP3    H210211   7.159   6.634   7.132
19915TIP3   OH210212   6.056   6.280   7.145
19915TIP3    H110213   6.016   6.207   7.193
19915TIP3    H210214   6.148   6.255   7.135
19916TIP3   OH210215   6.396   5.779   6.914
19916TIP3    H110216   6.375   5.869   6.886
19916TIP3    H210217   6.325   5.726   6.878
19917TIP3   OH210218   6.536   6.169   7.225
19917TIP3    H110219   6.497   6.139   7.307
19917TIP3    H210220   6.462   6.177   7.165
19918TIP3   OH210221   6.758   6.087   7.087
19918TIP3    H110222   6.679   6.102   7.138
19918TIP3    H210223   6.817   6.039   7.145
19919TIP3   OH210224   6.954   5.970   7.243
19919TIP3    H110225   6.959   5.875   7.248
19919TIP3    H210226   7.039   6.000   7.275
19920TIP3   OH210227   5.941   6.066   7.276
19920TIP3    H110228   5.950   5.971   7.285
19920TIP3    H210229   5.912   6.096   7.362
19921TIP3   OH210230   6.468   5.730   7.175
19921TIP3    H110231   6.492   5.639   7.162
19921TIP3    H210232   6.430   5.758   7.092
19922TIP3   OH210233   6.516   5.841   7.420
19922TIP3    H110234   6.494   5.806   7.334
19922TIP3    H210235   6.464   5.921   7.428
19923TIP3   OH210236   6.429   7.504   5.627
19923TIP3    H110237   6.524   7.498   5.639
19923TIP3    H210238   6.418   7.535   5.538
19924TIP3   OH210239   5.781   7.019   5.607
19924TIP3    H110240   5.876   7.021   5.616
19924TIP3    H210241   5.765   6.971   5.526
19925TIP3   OH210242   5.669   7.513   6.168
19925TIP3    H110243   5.610   7.487   6.098
19925TIP3    H210244   5.685   7.433   6.218
19926TIP3   OH210245   5.747   7.282   6.306
19926TIP3    H110246   5.701   7.214   6.355
19926TIP3    H210247   5.804   7.324   6.370
19927TIP3   OH210248   7.481   7.427   6.658
19927TIP3    H110249   7.480   7.377   6.740
19927TIP3    H210250   7.521   7.511   6.682
19928TIP3   OH210251   7.442   7.329   6.915
19928TIP3    H110252   7.388   7.258   6.881
19928TIP3    H210253   7.473   7.297   7.000
19929TIP3   OH210254   7.451   6.774   5.900
19929TIP3    H110255   7.528   6.831   5.903
19929TIP3    H210256   7.461   6.717   5.976
19930TIP3   OH210257   7.487   6.591   6.105
19930TIP3    H110258   7.402   6.555   6.132
19930TIP3    H210259   7.535   6.603   6.187
19931TIP3   OH210260   7.482   6.875   6.613
19931TIP3    H110261   7.542   6.806   6.583
19931TIP3    H210262   7.518   6.955   6.575
19932TIP3   OH210263   7.262   7.147   6.812
19932TIP3    H110264   7.194   7.198   6.856
19932TIP3    H210265   7.227   7.133   6.723
19933TIP3   OH210266   7.479   6.598   5.692
19933TIP3    H110267   7.419   6.625   5.622
19933TIP3    H210268   7.463   6.660   5.763
19934TIP3   OH210269   7.328   6.302   5.521
19934TIP3    H110270   7.343   6.327   5.430
19934TIP3    H210271   7.289   6.215   5.516
19935TIP3   OH210272   7.238   6.465   6.137
19935TIP3    H110273   7.236   6.374   6.106
19935TIP3    H210274   7.194   6.462   6.223
19936TIP3   OH210275   5.740   6.665   6.583
19936TIP3    H110276   5.751   6.646   6.490
19936TIP3    H210277   5.819   6.632   6.624
19937TIP3   OH210278   7.332   6.647   7.157
19937TIP3    H110279   7.392   6.573   7.145
19937TIP3    H210280   7.388   6.724   7.152
19938TIP3   OH210281   7.469   6.407   7.105
19938TIP3    H110282   7.380   6.375   7.122
19938TIP3    H210283   7.526   6.335   7.131
19939TIP3   OH210284   7.194   6.059   5.523
19939TIP3    H110285   7.267   6.039   5.582
19939TIP3    H210286   7.179   5.978   5.475
19940TIP3   OH210287   7.231   6.226   5.959
19940TIP3    H110288   7.258   6.134   5.966
19940TIP3    H210289   7.299   6.266   5.904
19941TIP3   OH210290   7.259   6.269   6.540
19941TIP3    H110291   7.353   6.278   6.527
19941TIP3    H210292   7.247   6.280   6.635
19942TIP3   OH210293   7.280   6.334   6.818
19942TIP3    H110294   7.198   6.367   6.857
19942TIP3    H210295   7.332   6.413   6.803
19943TIP3   OH210296   5.712   6.168   7.141
19943TIP3    H110297   5.796   6.157   7.185
19943TIP3    H210298   5.659   6.094   7.169
19944TIP3   OH210299   7.479   5.772   7.330
19944TIP3    H110300   7.548   5.706   7.334
19944TIP3    H210301   7.514   5.839   7.271
19945TIP3   OH210302   7.285   5.958   5.990
19945TIP3    H110303   7.307   5.917   6.074
19945TIP3    H210304   7.224   5.897   5.949
19946TIP3   OH210305   5.869   6.017   6.404
19946TIP3    H110306   5.897   5.929   6.429
19946TIP3    H210307   5.930   6.075   6.451
19947TIP3   OH210308   5.624   6.286   6.541
19947TIP3    H110309   5.702   6.303   6.487
19947TIP3    H210310   5.616   6.362   6.598
19948TIP3   OH210311   7.464   5.942   7.106
19948TIP3    H110312   7.386   5.991   7.081
19948TIP3    H210313   7.458   5.860   7.058
19949TIP3   OH210314   7.417   5.992   5.662
19949TIP3    H110315   7.414   5.900   5.690
19949TIP3    H210316   7.501   6.025   5.695
19950TIP3   OH210317   5.693   5.933   5.931
19950TIP3    H110318   5.600   5.934   5.950
19950TIP3    H210319   5.707   6.011   5.877
19951TIP3   OH210320   7.146   7.479   6.162
19951TIP3    H110321   7.222   7.467   6.106
19951TIP3    H210322   7.181   7.517   6.243
19952TIP3   OH210323   5.680   5.770   6.760
19952TIP3    H110324   5.625   5.765   6.838
19952TIP3    H210325   5.651   5.849   6.714
19953TIP3   OH210326   5.923   7.130   7.209
19953TIP3    H110327   5.838   7.166   7.184
19953TIP3    H210328   5.903   7.058   7.269
19954TIP3   OH210329   6.231   7.245   6.814
19954TIP3    H110330   6.195   7.332   6.799
19954TIP3    H210331   6.325   7.255   6.799
19955TIP3   OH210332   6.650   7.337   7.175
19955TIP3    H110333   6.580   7.399   7.191
19955TIP3    H210334   6.724   7.392   7.147
19956TIP3   OH210335   6.869   7.473   7.068
19956TIP3    H110336   6.851   7.454   6.976
19956TIP3    H210337   6.886   7.567   7.070
19957TIP3   OH210338   7.360   5.724   6.953
19957TIP3    H110339   7.294   5.747   6.888
19957TIP3    H210340   7.381   5.633   6.934
19958TIP3   OH210341   5.928   7.567   6.843
19958TIP3    H110342   5.846   7.594   6.804
19958TIP3    H210343   5.922   7.596   6.934
19959TIP3   OH210344   6.181   7.510   6.764
19959TIP3    H110345   6.092   7.526   6.794
19959TIP3    H210346   6.188   7.560   6.682
19960TIP3   OH210347   6.633   7.523   6.683
19960TIP3    H110348   6.583   7.556   6.609
19960TIP3    H210349   6.641   7.597   6.743
19961TIP3   OH210350   6.853   7.402   6.798
19961TIP3    H110351   6.777   7.438   6.752
19961TIP3    H210352   6.928   7.446   6.757
19962TIP3   OH210353   7.085   7.509   6.711
19962TIP3    H110354   7.124   7.596   6.703
19962TIP3    H210355   7.138   7.454   6.653
19963TIP3   OH210356   5.923   7.371   6.507
19963TIP3    H110357   5.896   7.342   6.594
19963TIP3    H210358   6.000   7.317   6.487
19964TIP3   OH210359   6.142   7.223   6.402
19964TIP3    H110360   6.136   7.136   6.442
19964TIP3    H210361   6.222   7.261   6.440
19965TIP3   OH210362   6.396   7.301   6.490
19965TIP3    H110363   6.422   7.216   6.453
19965TIP3    H210364   6.425   7.296   6.582
19966TIP3   OH210365   6.632   5.845   6.334
19966TIP3    H110366   6.575   5.790   6.388
19966TIP3    H210367   6.721   5.821   6.360
19967TIP3   OH210368   7.200   5.733   6.384
19967TIP3    H110369   7.268   5.783   6.339
19967TIP3    H210370   7.137   5.799   6.413
19968TIP3   OH210371   7.388   5.839   6.217
19968TIP3    H110372   7.445   5.766   6.197
19968TIP3    H210373   7.447   5.914   6.228
19969TIP3   OH210374   5.940   5.724   6.153
19969TIP3    H110375   5.845   5.712   6.143
19969TIP3    H210376   5.976   5.636   6.145
19970TIP3   OH210377   5.764   5.772   5.713
19970TIP3    H110378   5.846   5.808   5.678
19970TIP3    H210379   5.751   5.819   5.795
19971TIP3   OH210380   6.375   5.741   6.180
19971TIP3    H110381   6.458   5.769   6.141
19971TIP3    H210382   6.395   5.728   6.272
19972TIP3   OH210383   6.894   5.759   6.374
19972TIP3    H110384   6.942   5.752   6.291
19972TIP3    H210385   6.884   5.669   6.404
19973TIP3   OH210386   7.090   5.785   5.891
19973TIP3    H110387   7.011   5.838   5.904
19973TIP3    H210388   7.062   5.696   5.911
19974TIP3   OH210389   5.805   7.371   5.863
19974TIP3    H110390   5.726   7.356   5.810
19974TIP3    H210391   5.825   7.464   5.850
19975TIP3   OH210392   6.013   5.861   5.606
19975TIP3    H110393   6.032   5.768   5.610
19975TIP3    H210394   6.076   5.902   5.666
19976TIP3   OH210395   6.506   5.967   5.871
19976TIP3    H110396   6.546   5.906   5.933
19976TIP3    H210397   6.514   6.052   5.913
19977TIP3   OH210398   6.700   7.437   5.651
19977TIP3    H110399   6.795   7.448   5.648
19977TIP3    H210400   6.681   7.376   5.579
19978TIP3   OH210401   7.353   7.431   5.979
19978TIP3    H110402   7.327   7.342   5.955
19978TIP3    H210403   7.351   7.480   5.897
19979TIP3   OH210404   5.910   5.775   7.110
19979TIP3    H110405   5.848   5.716   7.153
19979TIP3    H210406   5.984   5.780   7.171
19980TIP3   OH210407   6.086   5.775   7.328
19980TIP3    H110408   6.159   5.718   7.302
19980TIP3    H210409   6.032   5.720   7.386
19981TIP3   OH210410   6.011   7.480   5.544
19981TIP3    H110411   5.918   7.497   5.555
19981TIP3    H210412   6.033   7.419   5.615
19982TIP3   OH210413   6.988   5.695   7.291
19982TIP3    H110414   6.978   5.644   7.371
19982TIP3    H210415   7.081   5.687   7.269
19983TIP3   OH210416   7.225   7.287   7.236
19983TIP3    H110417   7.305   7.244   7.205
19983TIP3    H210418   7.250   7.379   7.246
19984TIP3   OH210419   7.881   6.528   6.670
19984TIP3    H110420   7.858   6.449   6.720
19984TIP3    H210421   7.904   6.593   6.737
19985TIP3   OH210422   7.882   7.014   6.518
19985TIP3    H110423   7.895   6.928   6.478
19985TIP3    H210424   7.923   7.007   6.604
19986TIP3   OH210425   7.628   6.380   5.989
19986TIP3    H110426   7.592   6.456   6.035
19986TIP3    H210427   7.556   6.347   5.937
19987TIP3   OH210428   7.680   6.614   6.309
19987TIP3    H110429   7.731   6.533   6.318
19987TIP3    H210430   7.747   6.682   6.297
19988TIP3   OH210431   8.057   6.087   6.362
19988TIP3    H110432   8.143   6.124   6.382
19988TIP3    H210433   8.059   6.000   6.401
19989TIP3   OH210434   7.847   6.400   6.356
19989TIP3    H110435   7.840   6.328   6.419
19989TIP3    H210436   7.856   6.356   6.271
19990TIP3   OH210437   8.004   5.965   6.749
19990TIP3    H110438   8.043   6.052   6.747
19990TIP3    H210439   7.920   5.977   6.794
19991TIP3   OH210440   7.876   6.195   6.534
19991TIP3    H110441   7.927   6.208   6.614
19991TIP3    H210442   7.939   6.158   6.471
19992TIP3   OH210443   8.002   6.990   6.763
19992TIP3    H110444   8.050   7.070   6.786
19992TIP3    H210445   7.935   6.981   6.831
19993TIP3   OH210446   7.677   6.936   5.867
19993TIP3    H110447   7.665   6.975   5.780
19993TIP3    H210448   7.682   7.011   5.926
19994TIP3   OH210449   8.068   6.599   6.246
19994TIP3    H110450   8.023   6.582   6.163
19994TIP3    H210451   0.017   6.595   6.225
19995TIP3   OH210452   7.894   6.685   6.898
19995TIP3    H110453   7.938   6.721   6.975
19995TIP3    H210454   7.809   6.656   6.930
19996TIP3   OH210455   8.107   7.226   7.126
19996TIP3    H110456   8.098   7.226   7.031
19996TIP3    H210457   8.018   7.216   7.159
19997TIP3   OH210458   7.926   6.556   6.013
19997TIP3    H110459   7.893   6.601   5.936
19997TIP3    H210460   7.883   6.470   6.011
19998TIP3   OH210461   7.603   6.852   6.869
19998TIP3    H110462   7.557   6.857   6.785
19998TIP3    H210463   7.616   6.759   6.884
19999TIP3   OH210464   7.625   7.106   6.529
19999TIP3    H110465   7.714   7.072   6.520
19999TIP3    H210466   7.628   7.163   6.606
20000TIP3   OH210467   7.921   7.370   6.215
20000TIP3    H110468   7.971   7.335   6.289
20000TIP3    H210469   7.839   7.321   6.216
20001TIP3   OH210470   7.808   7.011   6.962
20001TIP3    H110471   7.853   6.952   7.023
20001TIP3    H210472   7.735   6.959   6.928
20002TIP3   OH210473   8.040   5.856   6.498
20002TIP3    H110474   7.958   5.809   6.486
20002TIP3    H210475   8.039   5.883   6.589
20003TIP3   OH210476   8.049   6.234   6.747
20003TIP3    H110477   7.984   6.272   6.807
20003TIP3    H210478   8.126   6.290   6.757
20004TIP3   OH210479   8.131   6.252   6.088
20004TIP3    H110480   8.038   6.254   6.112
20004TIP3    H210481   0.017   6.167   6.120
20005TIP3   OH210482   7.817   6.320   6.866
20005TIP3    H110483   7.812   6.358   6.953
20005TIP3    H210484   7.793   6.228   6.878
20006TIP3   OH210485   7.586   6.025   6.227
20006TIP3    H110486   7.614   6.034   6.318
20006TIP3    H210487   7.665   5.997   6.180
20007TIP3   OH210488   7.629   6.144   5.774
20007TIP3    H110489   7.712   6.188   5.756
20007TIP3    H210490   7.565   6.215   5.777
20008TIP3   OH210491   7.848   6.263   6.115
20008TIP3    H110492   7.765   6.283   6.072
20008TIP3    H210493   7.856   6.168   6.110
20009TIP3   OH210494   8.069   6.302   5.636
20009TIP3    H110495   7.974   6.305   5.622
20009TIP3    H210496   8.089   6.386   5.677
20010TIP3   OH210497   7.910   6.835   7.151
20010TIP3    H110498   7.978   6.812   7.214
20010TIP3    H210499   7.829   6.835   7.202
20011TIP3   OH210500   7.909   5.993   6.127
20011TIP3    H110501   7.885   5.901   6.131
20011TIP3    H210502   7.978   6.003   6.193
20012TIP3   OH210503   7.954   6.766   6.426
20012TIP3    H110504   7.995   6.738   6.344
20012TIP3    H210505   8.027   6.770   6.488
20013TIP3   OH210506   7.647   6.602   6.992
20013TIP3    H110507   7.672   6.587   7.083
20013TIP3    H210508   7.574   6.541   6.977
20014TIP3   OH210509   7.736   6.591   5.598
20014TIP3    H110510   7.786   6.637   5.665
20014TIP3    H210511   7.646   6.593   5.629
20015TIP3   OH210512   7.774   6.037   6.892
20015TIP3    H110513   7.684   6.023   6.863
20015TIP3    H210514   7.785   5.978   6.966
20016TIP3   OH210515   7.744   7.243   6.754
20016TIP3    H110516   7.770   7.177   6.818
20016TIP3    H210517   7.759   7.327   6.798
20017TIP3   OH210518   7.863   6.741   5.796
20017TIP3    H110519   7.798   6.802   5.830
20017TIP3    H210520   7.947   6.779   5.820
20018TIP3   OH210521   8.046   6.017   5.647
20018TIP3    H110522   8.046   6.112   5.658
20018TIP3    H210523   8.085   5.983   5.728
20019TIP3   OH210524   7.985   7.060   5.625
20019TIP3    H110525   7.974   7.085   5.717
20019TIP3    H210526   8.079   7.040   5.618
20020TIP3   OH210527   7.797   6.320   5.609
20020TIP3    H110528   7.772   6.412   5.607
20020TIP3    H210529   7.734   6.276   5.552
20021TIP3   OH210530   7.783   5.766   6.446
20021TIP3    H110531   7.789   5.754   6.352
20021TIP3    H210532   7.769   5.678   6.481
20022TIP3   OH210533   7.691   7.174   6.006
20022TIP3    H110534   7.672   7.203   6.095
20022TIP3    H210535   7.706   7.255   5.957
20023TIP3   OH210536   7.692   7.446   7.230
20023TIP3    H110537   7.748   7.459   7.306
20023TIP3    H210538   7.713   7.357   7.200
20024TIP3   OH210539   7.664   6.829   7.277
20024TIP3    H110540   7.665   6.733   7.277
20024TIP3    H210541   7.583   6.851   7.229
20025TIP3   OH210542   8.089   6.759   5.471
20025TIP3    H110543   8.134   6.716   5.543
20025TIP3    H210544   0.011   6.817   5.433
20026TIP3   OH210545   7.736   6.554   7.257
20026TIP3    H110546   7.764   6.463   7.249
20026TIP3    H210547   7.750   6.575   7.349
20027TIP3   OH210548   8.009   6.343   7.251
20027TIP3    H110549   7.941   6.292   7.296
20027TIP3    H210550   8.071   6.277   7.220
20028TIP3   OH210551   7.829   6.029   7.254
20028TIP3    H110552   7.837   5.946   7.206
20028TIP3    H210553   7.860   6.009   7.342
20029TIP3   OH210554   7.681   7.027   5.601
20029TIP3    H110555   7.774   7.051   5.602
20029TIP3    H210556   7.667   6.988   5.515
20030TIP3   OH210557   7.557   7.501   6.153
20030TIP3    H110558   7.491   7.472   6.091
20030TIP3    H210559   7.576   7.423   6.206
20031TIP3   OH210560   7.659   7.284   6.299
20031TIP3    H110561   7.618   7.208   6.342
20031TIP3    H210562   7.699   7.333   6.370
20032TIP3   OH210563   7.633   6.642   6.582
20032TIP3    H110564   7.635   6.625   6.488
20032TIP3    H210565   7.719   6.613   6.614
20033TIP3   OH210566   7.616   6.171   7.133
20033TIP3    H110567   7.697   6.151   7.180
20033TIP3    H210568   7.567   6.089   7.133
20034TIP3   OH210569   7.673   6.015   6.492
20034TIP3    H110570   7.708   5.927   6.486
20034TIP3    H210571   7.748   6.070   6.515
20035TIP3   OH210572   7.533   6.299   6.551
20035TIP3    H110573   7.608   6.241   6.532
20035TIP3    H210574   7.559   6.346   6.630
20036TIP3   OH210575   7.560   5.922   5.923
20036TIP3    H110576   7.472   5.940   5.954
20036TIP3    H210577   7.592   6.007   5.892
20037TIP3   OH210578   7.588   5.808   6.814
20037TIP3    H110579   7.515   5.772   6.864
20037TIP3    H210580   7.547   5.856   6.742
20038TIP3   OH210581   7.823   7.186   7.206
20038TIP3    H110582   7.803   7.125   7.136
20038TIP3    H210583   7.791   7.143   7.286
20039TIP3   OH210584   8.105   7.234   6.841
20039TIP3    H110585   8.070   7.313   6.800
20039TIP3    H210586   0.054   7.234   6.818
20040TIP3   OH210587   7.792   7.502   6.841
20040TIP3    H110588   7.712   7.549   6.817
20040TIP3    H210589   7.817   7.540   6.926
20041TIP3   OH210590   8.037   7.470   6.717
20041TIP3    H110591   7.952   7.490   6.755
20041TIP3    H210592   8.090   7.548   6.733
20042TIP3   OH210593   7.795   7.396   6.514
20042TIP3    H110594   7.760   7.359   6.595
20042TIP3    H210595   7.886   7.368   6.511
20043TIP3   OH210596   8.019   7.238   6.436
20043TIP3    H110597   7.965   7.162   6.459
20043TIP3    H210598   8.105   7.218   6.474
20044TIP3   OH210599   7.802   5.736   6.170
20044TIP3    H110600   7.712   5.713   6.147
20044TIP3    H210601   7.850   5.653   6.164
20045TIP3   OH210602   7.650   5.733   5.752
20045TIP3    H110603   7.707   5.784   5.696
20045TIP3    H210604   7.621   5.794   5.820
20046TIP3   OH210605   7.722   7.398   5.833
20046TIP3    H110606   7.646   7.386   5.777
20046TIP3    H210607   7.723   7.492   5.852
20047TIP3   OH210608   7.835   5.835   5.568
20047TIP3    H110609   7.874   5.750   5.586
20047TIP3    H210610   7.903   5.898   5.594
20048TIP3   OH210611   7.838   5.773   7.121
20048TIP3    H110612   7.773   5.715   7.161
20048TIP3    H210613   7.919   5.754   7.169
20049TIP3   OH210614   8.021   5.710   7.328
20049TIP3    H110615   8.005   5.785   7.386
20049TIP3    H210616   7.976   5.637   7.370
20050TIP3   OH210617   7.982   7.488   5.755
20050TIP3    H110618   7.903   7.437   5.773
20050TIP3    H210619   8.033   7.433   5.696
20051TIP3   OH210620   1.807   7.876   6.641
20051TIP3    H110621   1.805   7.935   6.717
20051TIP3    H210622   1.881   7.908   6.589
20052TIP3   OH210623   0.538   8.020   6.287
20052TIP3    H110624   0.625   8.042   6.255
20052TIP3    H210625   0.515   7.940   6.240
20053TIP3   OH210626   1.348   7.973   6.143
20053TIP3    H110627   1.379   7.958   6.233
20053TIP3    H210628   1.417   8.026   6.103
20054TIP3   OH210629   1.789   8.016   6.884
20054TIP3    H110630   1.764   8.105   6.906
20054TIP3    H210631   1.869   8.000   6.934
20055TIP3   OH210632   0.410   7.897   6.732
20055TIP3    H110633   0.381   7.968   6.675
20055TIP3    H210634   0.342   7.891   6.800
20056TIP3   OH210635   1.463   7.956   6.392
20056TIP3    H110636   1.393   7.933   6.454
20056TIP3    H210637   1.520   8.015   6.442
20057TIP3   OH210638   0.394   8.090   6.509
20057TIP3    H110639   0.450   0.013   6.549
20057TIP3    H210640   0.445   8.057   6.435
20058TIP3   OH210641   1.554   7.754   6.636
20058TIP3    H110642   1.502   7.828   6.668
20058TIP3    H210643   1.644   7.786   6.637
20059TIP3   OH210644   0.773   7.571   6.431
20059TIP3    H110645   0.770   7.479   6.456
20059TIP3    H210646   0.698   7.610   6.476
20060TIP3   OH210647   1.639   7.612   5.738
20060TIP3    H110648   1.556   7.624   5.784
20060TIP3    H210649   1.671   7.701   5.722
20061TIP3   OH210650   0.551   7.686   6.548
20061TIP3    H110651   0.463   7.713   6.521
20061TIP3    H210652   0.578   7.754   6.610
20062TIP3   OH210653   1.045   7.661   6.914
20062TIP3    H110654   1.100   7.616   6.978
20062TIP3    H210655   0.956   7.649   6.947
20063TIP3   OH210656   1.325   8.032   6.995
20063TIP3    H110657   1.267   7.991   7.060
20063TIP3    H210658   1.334   8.122   7.024
20064TIP3   OH210659   1.020   7.878   5.590
20064TIP3    H110660   0.961   7.886   5.665
20064TIP3    H210661   1.069   7.797   5.606
20065TIP3   OH210662   0.553   7.926   5.465
20065TIP3    H110663   0.587   7.907   5.553
20065TIP3    H210664   0.586   8.014   5.446
20066TIP3   OH210665   0.120   7.845   6.169
20066TIP3    H110666   0.122   7.884   6.256
20066TIP3    H210667   0.170   7.764   6.178
20067TIP3   OH210668   0.122   7.970   5.730
20067TIP3    H110669   0.204   7.939   5.691
20067TIP3    H210670   0.130   8.065   5.729
20068TIP3   OH210671   0.839   7.976   6.256
20068TIP3    H110672   0.829   8.021   6.340
20068TIP3    H210673   0.888   7.896   6.278
20069TIP3   OH210674   0.305   8.020   6.056
20069TIP3    H110675   0.236   7.966   6.094
20069TIP3    H210676   0.384   7.968   6.065
20070TIP3   OH210677   0.639   8.127   5.868
20070TIP3    H110678   0.719   8.115   5.918
20070TIP3    H210679   0.595   0.057   5.911
20071TIP3   OH210680   1.249   7.891   6.547
20071TIP3    H110681   1.212   7.895   6.635
20071TIP3    H210682   1.226   7.804   6.515
20072TIP3   OH210683   0.479   7.798   6.130
20072TIP3    H110684   0.411   7.731   6.131
20072TIP3    H210685   0.561   7.749   6.135
20073TIP3   OH210686   0.823   8.091   6.689
20073TIP3    H110687   0.767   0.009   6.736
20073TIP3    H210688   0.897   8.077   6.748
20074TIP3   OH210689   1.292   7.975   5.701
20074TIP3    H110690   1.207   7.987   5.659
20074TIP3    H210691   1.315   8.061   5.735
20075TIP3   OH210692   0.201   7.873   6.925
20075TIP3    H110693   0.180   7.943   6.988
20075TIP3    H210694   0.228   7.799   6.980
20076TIP3   OH210695   1.159   7.894   6.811
20076TIP3    H110696   1.227   7.928   6.869
20076TIP3    H210697   1.129   7.813   6.853
20077TIP3   OH210698   1.219   7.841   5.944
20077TIP3    H110699   1.248   7.890   5.867
20077TIP3    H210700   1.258   7.888   6.018
20078TIP3   OH210701   0.874   8.081   6.004
20078TIP3    H110702   0.934   0.010   6.018
20078TIP3    H210703   0.866   8.040   6.091
20079TIP3   OH210704   0.976   8.071   6.932
20079TIP3    H110705   0.974   8.042   7.023
20079TIP3    H210706   1.041   8.014   6.891
20080TIP3   OH210707   0.991   7.720   6.038
20080TIP3    H110708   0.995   7.726   6.133
20080TIP3    H210709   1.072   7.760   6.008
20081TIP3   OH210710   0.615   7.892   5.731
20081TIP3    H110711   0.609   7.976   5.777
20081TIP3    H210712   0.698   7.855   5.759
20082TIP3   OH210713   1.566   7.887   7.002
20082TIP3    H110714   1.487   7.940   7.000
20082TIP3    H210715   1.630   7.937   6.950
20083TIP3   OH210716   0.286   7.688   6.432
20083TIP3    H110717   0.290   7.663   6.340
20083TIP3    H210718   0.272   7.606   6.479
20084TIP3   OH210719   0.574   8.079   7.013
20084TIP3    H110720   0.577   7.987   7.037
20084TIP3    H210721   0.544   8.123   7.093
20085TIP3   OH210722   0.680   7.848   6.744
20085TIP3    H110723   0.731   7.928   6.728
20085TIP3    H210724   0.592   7.879   6.763
20086TIP3   OH210725   0.753   7.629   6.900
20086TIP3    H110726   0.737   7.710   6.852
20086TIP3    H210727   0.686   7.569   6.869
20087TIP3   OH210728   0.918   8.036   7.256
20087TIP3    H110729   0.947   8.078   7.336
20087TIP3    H210730   0.870   7.959   7.285
20088TIP3   OH210731   1.143   7.906   7.153
20088TIP3    H110732   1.070   7.944   7.202
20088TIP3    H210733   1.171   7.830   7.205
20089TIP3   OH210734   1.252   7.700   7.318
20089TIP3    H110735   1.259   7.622   7.372
20089TIP3    H210736   1.292   7.769   7.370
20090TIP3   OH210737   0.359   7.908   7.233
20090TIP3    H110738   0.411   7.830   7.214
20090TIP3    H210739   0.333   7.898   7.324
20091TIP3   OH210740   0.757   7.598   7.178
20091TIP3    H110741   0.811   7.520   7.190
20091TIP3    H210742   0.755   7.611   7.083
20092TIP3   OH210743   0.809   7.810   7.365
20092TIP3    H110744   0.788   7.731   7.315
20092TIP3    H210745   0.729   7.831   7.412
20093TIP3   OH210746   1.520   7.935   5.514
20093TIP3    H110747   1.602   7.909   5.555
20093TIP3    H210748   1.457   7.937   5.586
20094TIP3   OH210749   1.553   8.065   5.983
20094TIP3    H110750   1.587   7.976   5.993
20094TIP3    H210751   1.626   8.115   5.948
20095TIP3   OH210752   1.596   0.017   6.527
20095TIP3    H110753   1.682   0.009   6.569
20095TIP3    H210754   1.558   0.097   6.565
20096TIP3   OH210755   0.145   8.061   7.143
20096TIP3    H110756   0.218   8.010   7.180
20096TIP3    H210757   0.087   8.076   7.218
20097TIP3   OH210758   1.847   7.620   7.299
20097TIP3    H110759   1.918   7.559   7.280
20097TIP3    H210760   1.861   7.692   7.237
20098TIP3   OH210761   1.638   7.804   6.000
20098TIP3    H110762   1.661   7.776   6.089
20098TIP3    H210763   1.563   7.749   5.977
20099TIP3   OH210764   0.175   7.942   6.418
20099TIP3    H110765   0.206   7.855   6.444
20099TIP3    H210766   0.237   8.003   6.458
20100TIP3   OH210767   1.818   7.819   7.110
20100TIP3    H110768   1.730   7.857   7.111
20100TIP3    H210769   1.812   7.747   7.047
20101TIP3   OH210770   1.770   7.850   5.618
20101TIP3    H110771   1.833   7.779   5.626
20101TIP3    H210772   1.799   7.916   5.680
20102TIP3   OH210773   0.073   7.764   5.907
20102TIP3    H110774   0.087   7.791   5.998
20102TIP3    H210775   0.098   7.841   5.855
20103TIP3   OH210776   0.041   7.709   6.761
20103TIP3    H110777   0.096   7.766   6.816
20103TIP3    H210778   8.102   7.757   6.753
20104TIP3   OH210779   1.749   7.602   6.946
20104TIP3    H110780   1.654   7.610   6.949
20104TIP3    H210781   1.765   7.508   6.947
20105TIP3   OH210782   0.974   7.730   6.313
20105TIP3    H110783   0.918   7.673   6.365
20105TIP3    H210784   1.063   7.711   6.342
20106TIP3   OH210785   1.533   7.631   6.385
20106TIP3    H110786   1.603   7.676   6.338
20106TIP3    H210787   1.529   7.676   6.470
20107TIP3   OH210788   1.751   7.717   6.234
20107TIP3    H110789   1.807   7.642   6.214
20107TIP3    H210790   1.813   7.789   6.250
20108TIP3   OH210791   0.262   7.608   6.159
20108TIP3    H110792   0.179   7.571   6.131
20108TIP3    H210793   0.321   7.533   6.167
20109TIP3   OH210794   0.209   7.604   5.729
20109TIP3    H110795   0.266   7.671   5.692
20109TIP3    H210796   0.160   7.649   5.797
20110TIP3   OH210797   0.712   7.641   6.165
20110TIP3    H110798   0.794   7.676   6.130
20110TIP3    H210799   0.731   7.619   6.256
20111TIP3   OH210800   1.228   7.648   6.394
20111TIP3    H110801   1.321   7.654   6.373
20111TIP3    H210802   1.212   7.554   6.405
20112TIP3   OH210803   1.424   7.657   5.900
20112TIP3    H110804   1.349   7.715   5.918
20112TIP3    H210805   1.389   7.569   5.914
20113TIP3   OH210806   0.358   7.821   5.645
20113TIP3    H110807   0.389   7.853   5.560
20113TIP3    H210808   0.433   7.829   5.703
20114TIP3   OH210809   0.877   7.867   5.829
20114TIP3    H110810   0.907   7.800   5.891
20114TIP3    H210811   0.876   7.948   5.880
20115TIP3   OH210812   0.264   7.640   7.060
20115TIP3    H110813   0.202   7.590   7.113
20115TIP3    H210814   0.342   7.647   7.114
20116TIP3   OH210815   0.483   7.656   7.223
20116TIP3    H110816   0.575   7.632   7.222
20116TIP3    H210817   0.445   7.604   7.294
20117TIP3   OH210818   3.648   7.878   6.650
20117TIP3    H110819   3.695   7.915   6.725
20117TIP3    H210820   3.621   7.954   6.599
20118TIP3   OH210821   2.430   8.026   6.277
20118TIP3    H110822   2.472   8.086   6.217
20118TIP3    H210823   2.409   7.949   6.224
20119TIP3   OH210824   3.289   8.027   6.147
20119TIP3    H110825   3.322   7.968   6.215
20119TIP3    H210826   3.278   8.111   6.192
20120TIP3   OH210827   3.776   7.995   6.862
20120TIP3    H110828   3.786   8.084   6.828
20120TIP3    H210829   3.707   8.001   6.928
20121TIP3   OH210830   2.334   7.889   6.700
20121TIP3    H110831   2.300   7.966   6.656
20121TIP3    H210832   2.274   7.876   6.774
20122TIP3   OH210833   3.400   7.931   6.397
20122TIP3    H110834   3.326   7.924   6.457
20122TIP3    H210835   3.453   8.003   6.431
20123TIP3   OH210836   2.271   8.082   6.494
20123TIP3    H110837   2.323   0.008   6.534
20123TIP3    H210838   2.324   8.051   6.421
20124TIP3   OH210839   3.403   7.783   6.738
20124TIP3    H110840   3.338   7.826   6.683
20124TIP3    H210841   3.487   7.808   6.700
20125TIP3   OH210842   2.653   7.576   6.433
20125TIP3    H110843   2.648   7.482   6.452
20125TIP3    H210844   2.578   7.614   6.477
20126TIP3   OH210845   3.557   7.619   5.751
20126TIP3    H110846   3.472   7.635   5.792
20126TIP3    H210847   3.545   7.648   5.661
20127TIP3   OH210848   2.422   7.682   6.540
20127TIP3    H110849   2.336   7.676   6.500
20127TIP3    H210850   2.417   7.758   6.598
20128TIP3   OH210851   2.929   7.671   6.915
20128TIP3    H110852   2.979   7.618   6.976
20128TIP3    H210853   2.838   7.658   6.940
20129TIP3   OH210854   3.225   8.083   6.972
20129TIP3    H110855   3.180   8.037   7.043
20129TIP3    H210856   3.192   0.029   6.978
20130TIP3   OH210857   2.910   7.878   5.593
20130TIP3    H110858   2.852   7.864   5.668
20130TIP3    H210859   2.977   7.810   5.601
20131TIP3   OH210860   2.446   7.996   5.484
20131TIP3    H110861   2.470   7.964   5.571
20131TIP3    H210862   2.529   8.026   5.446
20132TIP3   OH210863   1.998   7.862   6.220
20132TIP3    H110864   2.007   7.890   6.311
20132TIP3    H210865   2.053   7.784   6.213
20133TIP3   OH210866   1.873   8.052   5.772
20133TIP3    H110867   1.946   8.109   5.748
20133TIP3    H210868   1.800   8.113   5.787
20134TIP3   OH210869   2.728   7.957   6.245
20134TIP3    H110870   2.663   7.980   6.311
20134TIP3    H210871   2.779   7.887   6.286
20135TIP3   OH210872   2.168   8.019   6.064
20135TIP3    H110873   2.099   7.973   6.111
20135TIP3    H210874   2.243   7.959   6.065
20136TIP3   OH210875   2.517   8.120   5.902
20136TIP3    H110876   2.606   8.105   5.933
20136TIP3    H210877   2.481   0.041   5.962
20137TIP3   OH210878   3.188   7.880   6.570
20137TIP3    H110879   3.140   7.903   6.650
20137TIP3    H210880   3.135   7.810   6.531
20138TIP3   OH210881   2.355   7.804   6.124
20138TIP3    H110882   2.288   7.737   6.133
20138TIP3    H210883   2.438   7.756   6.131
20139TIP3   OH210884   2.736   8.095   6.685
20139TIP3    H110885   2.673   0.010   6.727
20139TIP3    H210886   2.806   8.085   6.748
20140TIP3   OH210887   3.126   8.023   5.740
20140TIP3    H110888   3.044   8.008   5.692
20140TIP3    H210889   3.190   7.967   5.695
20141TIP3   OH210890   2.156   7.855   6.904
20141TIP3    H110891   2.110   7.921   6.956
20141TIP3    H210892   2.163   7.780   6.963
20142TIP3   OH210893   3.055   7.900   6.815
20142TIP3    H110894   3.117   7.931   6.882
20142TIP3    H210895   3.016   7.822   6.853
20143TIP3   OH210896   3.084   7.903   5.992
20143TIP3    H110897   3.101   7.942   5.906
20143TIP3    H210898   3.151   7.942   6.048
20144TIP3   OH210899   2.768   8.076   6.002
20144TIP3    H110900   2.823   0.009   6.021
20144TIP3    H210901   2.761   8.030   6.085
20145TIP3   OH210902   2.878   8.091   6.943
20145TIP3    H110903   2.863   8.064   7.033
20145TIP3    H210904   2.936   8.025   6.907
20146TIP3   OH210905   2.873   7.737   6.048
20146TIP3    H110906   2.873   7.735   6.144
20146TIP3    H210907   2.947   7.795   6.026
20147TIP3   OH210908   2.488   7.901   5.737
20147TIP3    H110909   2.480   7.976   5.796
20147TIP3    H210910   2.571   7.860   5.760
20148TIP3   OH210911   3.480   7.997   6.927
20148TIP3    H110912   3.392   8.028   6.949
20148TIP3    H210913   3.465   7.912   6.886
20149TIP3   OH210914   2.166   7.656   6.439
20149TIP3    H110915   2.171   7.637   6.346
20149TIP3    H210916   2.148   7.572   6.481
20150TIP3   OH210917   2.470   8.059   6.981
20150TIP3    H110918   2.425   7.991   7.030
20150TIP3    H210919   2.503   8.119   7.048
20151TIP3   OH210920   2.606   7.847   6.748
20151TIP3    H110921   2.652   7.928   6.728
20151TIP3    H210922   2.514   7.873   6.754
20152TIP3   OH210923   2.648   7.617   6.890
20152TIP3    H110924   2.636   7.702   6.847
20152TIP3    H210925   2.576   7.563   6.858
20153TIP3   OH210926   2.825   8.043   7.216
20153TIP3    H110927   2.804   8.109   7.283
20153TIP3    H210928   2.789   7.962   7.251
20154TIP3   OH210929   3.076   7.940   7.143
20154TIP3    H110930   2.994   7.967   7.185
20154TIP3    H210931   3.131   7.910   7.215
20155TIP3   OH210932   3.239   7.860   7.353
20155TIP3    H110933   3.213   7.768   7.355
20155TIP3    H210934   3.206   7.896   7.435
20156TIP3   OH210935   2.195   7.921   7.270
20156TIP3    H110936   2.227   7.832   7.282
20156TIP3    H210937   2.159   7.945   7.355
20157TIP3   OH210938   2.631   7.602   7.169
20157TIP3    H110939   2.671   7.519   7.196
20157TIP3    H210940   2.637   7.602   7.074
20158TIP3   OH210941   2.726   7.814   7.333
20158TIP3    H110942   2.707   7.731   7.288
20158TIP3    H210943   2.640   7.851   7.351
20159TIP3   OH210944   3.511   8.016   5.538
20159TIP3    H110945   3.505   8.061   5.622
20159TIP3    H210946   3.438   7.954   5.539
20160TIP3   OH210947   3.525   8.047   5.998
20160TIP3    H110948   3.434   8.050   6.027
20160TIP3    H210949   3.524   8.091   5.913
20161TIP3   OH210950   3.568   8.125   6.557
20161TIP3    H110951   3.643   0.010   6.610
20161TIP3    H210952   3.503   0.051   6.566
20162TIP3   OH210953   2.015   8.013   7.083
20162TIP3    H110954   2.084   8.000   7.148
20162TIP3    H210955   1.943   7.959   7.113
20163TIP3   OH210956   3.733   7.696   7.394
20163TIP3    H110957   3.779   7.613   7.382
20163TIP3    H210958   3.732   7.735   7.307
20164TIP3   OH210959   3.444   7.744   6.066
20164TIP3    H110960   3.419   7.666   6.115
20164TIP3    H210961   3.391   7.741   5.986
20165TIP3   OH210962   2.048   7.907   6.486
20165TIP3    H110963   2.091   7.823   6.497
20165TIP3    H210964   2.117   7.972   6.503
20166TIP3   OH210965   3.690   7.837   7.156
20166TIP3    H110966   3.619   7.871   7.210
20166TIP3    H210967   3.649   7.774   7.097
20167TIP3   OH210968   3.786   7.758   5.597
20167TIP3    H110969   3.699   7.749   5.556
20167TIP3    H210970   3.793   7.851   5.618
20168TIP3   OH210971   1.893   7.786   5.884
20168TIP3    H110972   1.812   7.782   5.936
20168TIP3    H210973   1.917   7.879   5.885
20169TIP3   OH210974   1.919   7.637   6.732
20169TIP3    H110975   1.867   7.628   6.811
20169TIP3    H210976   1.893   7.721   6.695
20170TIP3   OH210977   3.615   7.596   6.947
20170TIP3    H110978   3.523   7.596   6.971
20170TIP3    H210979   3.639   7.503   6.944
20171TIP3   OH210980   2.864   7.722   6.324
20171TIP3    H110981   2.804   7.669   6.376
20171TIP3    H210982   2.951   7.691   6.349
20172TIP3   OH210983   3.406   7.647   6.394
20172TIP3    H110984   3.424   7.741   6.392
20172TIP3    H210985   3.311   7.641   6.388
20173TIP3   OH210986   3.682   7.718   6.273
20173TIP3    H110987   3.741   7.647   6.250
20173TIP3    H210988   3.667   7.708   6.367
20174TIP3   OH210989   2.159   7.606   6.167
20174TIP3    H110990   2.069   7.579   6.149
20174TIP3    H210991   2.209   7.524   6.163
20175TIP3   OH210992   1.986   7.675   5.655
20175TIP3    H110993   2.081   7.683   5.652
20175TIP3    H210994   1.962   7.701   5.744
20176TIP3   OH210995   2.590   7.651   6.167
20176TIP3    H110996   2.670   7.693   6.136
20176TIP3    H210997   2.608   7.628   6.258
20177TIP3   OH210998   3.133   7.623   6.332
20177TIP3    H110999   3.145   7.611   6.238
20177TIP3    H211000   3.116   7.535   6.365
20178TIP3   OH211001   3.305   7.660   5.842
20178TIP3    H111002   3.272   7.697   5.761
20178TIP3    H211003   3.248   7.585   5.859
20179TIP3   OH211004   2.261   7.783   5.617
20179TIP3    H111005   2.271   7.688   5.617
20179TIP3    H211006   2.333   7.815   5.671
20180TIP3   OH211007   2.756   7.862   5.827
20180TIP3    H111008   2.785   7.797   5.892
20180TIP3    H211009   2.762   7.946   5.873
20181TIP3   OH211010   2.185   7.639   7.079
20181TIP3    H111011   2.130   7.580   7.131
20181TIP3    H211012   2.262   7.654   7.133
20182TIP3   OH211013   2.380   7.676   7.281
20182TIP3    H111014   2.463   7.644   7.246
20182TIP3    H211015   2.366   7.626   7.361
20183TIP3   OH211016   3.215   7.580   7.302
20183TIP3    H111017   3.205   7.525   7.380
20183TIP3    H211018   3.310   7.585   7.289
20184TIP3   OH211019   5.555   7.882   6.647
20184TIP3    H111020   5.606   7.922   6.718
20184TIP3    H211021   5.512   7.955   6.604
20185TIP3   OH211022   4.337   8.024   6.284
20185TIP3    H111023   4.363   8.097   6.229
20185TIP3    H211024   4.301   7.959   6.224
20186TIP3   OH211025   5.113   8.005   6.126
20186TIP3    H111026   5.149   7.970   6.207
20186TIP3    H211027   5.190   8.031   6.075
20187TIP3   OH211028   5.665   8.006   6.866
20187TIP3    H111029   5.682   8.098   6.845
20187TIP3    H211030   5.582   8.007   6.913
20188TIP3   OH211031   4.224   7.882   6.728
20188TIP3    H111032   4.195   7.948   6.665
20188TIP3    H211033   4.153   7.877   6.792
20189TIP3   OH211034   5.232   7.942   6.362
20189TIP3    H111035   5.188   7.915   6.443
20189TIP3    H211036   5.257   8.033   6.377
20190TIP3   OH211037   4.194   8.061   6.516
20190TIP3    H111038   4.235   8.141   6.550
20190TIP3    H211039   4.247   8.037   6.440
20191TIP3   OH211040   5.314   7.778   6.742
20191TIP3    H111041   5.244   7.811   6.686
20191TIP3    H211042   5.394   7.805   6.698
20192TIP3   OH211043   4.552   7.581   6.451
20192TIP3    H111044   4.540   7.486   6.463
20192TIP3    H211045   4.476   7.620   6.493
20193TIP3   OH211046   5.413   7.593   5.764
20193TIP3    H111047   5.330   7.613   5.808
20193TIP3    H211048   5.440   7.675   5.723
20194TIP3   OH211049   4.322   7.688   6.560
20194TIP3    H111050   4.239   7.679   6.514
20194TIP3    H211051   4.308   7.761   6.621
20195TIP3   OH211052   4.824   7.654   6.915
20195TIP3    H111053   4.875   7.606   6.980
20195TIP3    H211054   4.733   7.643   6.943
20196TIP3   OH211055   5.118   8.076   6.971
20196TIP3    H111056   5.060   8.041   7.039
20196TIP3    H211057   5.083   0.019   6.952
20197TIP3   OH211058   4.802   7.870   5.617
20197TIP3    H111059   4.739   7.874   5.689
20197TIP3    H211060   4.793   7.781   5.582
20198TIP3   OH211061   4.387   7.937   5.455
20198TIP3    H111062   4.392   7.920   5.549
20198TIP3    H211063   4.395   8.032   5.448
20199TIP3   OH211064   3.812   7.994   6.212
20199TIP3    H111065   3.848   7.971   6.297
20199TIP3    H211066   3.888   8.005   6.155
20200TIP3   OH211067   3.913   7.967   5.772
20200TIP3    H111068   3.986   7.925   5.726
20200TIP3    H211069   3.912   8.056   5.738
20201TIP3   OH211070   4.617   7.960   6.242
20201TIP3    H111071   4.538   7.972   6.294
20201TIP3    H211072   4.665   7.890   6.287
20202TIP3   OH211073   4.034   8.004   6.041
20202TIP3    H111074   4.003   7.977   5.954
20202TIP3    H211075   4.108   7.945   6.059
20203TIP3   OH211076   4.406   8.127   5.873
20203TIP3    H111077   4.488   8.117   5.921
20203TIP3    H211078   4.370   0.066   5.904
20204TIP3   OH211079   5.094   7.840   6.577
20204TIP3    H111080   5.039   7.864   6.652
20204TIP3    H211081   5.038   7.783   6.524
20205TIP3   OH211082   4.244   7.817   6.122
20205TIP3    H111083   4.176   7.752   6.143
20205TIP3    H211084   4.326   7.768   6.128
20206TIP3   OH211085   4.579   8.102   6.712
20206TIP3    H111086   4.531   0.022   6.764
20206TIP3    H211087   4.660   8.086   6.761
20207TIP3   OH211088   5.038   7.984   5.701
20207TIP3    H111089   4.959   7.943   5.664
20207TIP3    H211090   5.019   8.077   5.702
20208TIP3   OH211091   4.026   7.876   6.916
20208TIP3    H111092   3.939   7.913   6.904
20208TIP3    H211093   4.015   7.810   6.983
20209TIP3   OH211094   4.956   7.875   6.815
20209TIP3    H111095   5.015   7.905   6.884
20209TIP3    H211096   4.913   7.798   6.852
20210TIP3   OH211097   4.990   7.842   5.945
20210TIP3    H111098   5.007   7.888   5.862
20210TIP3    H211099   5.023   7.901   6.012
20211TIP3   OH211100   4.647   8.085   6.003
20211TIP3    H111101   4.699   0.019   6.023
20211TIP3    H211102   4.638   8.039   6.087
20212TIP3   OH211103   4.776   8.068   6.904
20212TIP3    H111104   4.776   8.046   6.997
20212TIP3    H211105   4.835   8.004   6.864
20213TIP3   OH211106   4.759   7.722   6.045
20213TIP3    H111107   4.763   7.731   6.140
20213TIP3    H211108   4.840   7.763   6.014
20214TIP3   OH211109   4.381   7.898   5.727
20214TIP3    H111110   4.374   7.980   5.776
20214TIP3    H211111   4.461   7.857   5.761
20215TIP3   OH211112   5.378   8.005   6.921
20215TIP3    H111113   5.289   8.031   6.947
20215TIP3    H211114   5.365   7.926   6.869
20216TIP3   OH211115   4.071   7.658   6.451
20216TIP3    H111116   4.073   7.645   6.356
20216TIP3    H211117   4.048   7.573   6.486
20217TIP3   OH211118   4.432   7.955   7.144
20217TIP3    H111119   4.436   7.930   7.051
20217TIP3    H211120   4.363   8.021   7.148
20218TIP3   OH211121   4.456   7.897   6.868
20218TIP3    H111122   4.505   7.958   6.814
20218TIP3    H211123   4.370   7.890   6.826
20219TIP3   OH211124   4.537   7.633   6.896
20219TIP3    H111125   4.509   7.725   6.887
20219TIP3    H211126   4.463   7.582   6.864
20220TIP3   OH211127   4.689   8.006   7.245
20220TIP3    H111128   4.698   7.993   7.340
20220TIP3    H211129   4.603   7.969   7.225
20221TIP3   OH211130   4.936   7.959   7.134
20221TIP3    H111131   4.853   7.971   7.181
20221TIP3    H211132   4.991   7.912   7.196
20222TIP3   OH211133   5.096   7.834   7.320
20222TIP3    H111134   5.091   7.739   7.325
20222TIP3    H211135   5.068   7.865   7.407
20223TIP3   OH211136   4.081   7.903   7.279
20223TIP3    H111137   4.098   7.831   7.218
20223TIP3    H211138   4.017   7.868   7.341
20224TIP3   OH211139   4.534   7.597   7.171
20224TIP3    H111140   4.589   7.520   7.184
20224TIP3    H211141   4.535   7.611   7.077
20225TIP3   OH211142   4.463   7.798   7.369
20225TIP3    H111143   4.502   7.717   7.337
20225TIP3    H211144   4.443   7.848   7.289
20226TIP3   OH211145   5.295   7.984   5.555
20226TIP3    H111146   5.361   7.925   5.591
20226TIP3    H211147   5.219   7.973   5.613
20227TIP3   OH211148   5.331   8.058   5.969
20227TIP3    H111149   5.366   7.970   5.983
20227TIP3    H211150   5.389   8.098   5.905
20228TIP3   OH211151   5.420   8.104   6.568
20228TIP3    H111152   5.378   8.139   6.490
20228TIP3    H211153   5.409   0.028   6.635
20229TIP3   OH211154   3.872   8.052   7.160
20229TIP3    H111155   3.950   8.004   7.184
20229TIP3    H211156   3.804   7.986   7.151
20230TIP3   OH211157   5.670   7.685   7.341
20230TIP3    H111158   5.702   7.598   7.316
20230TIP3    H211159   5.649   7.727   7.258
20231TIP3   OH211160   5.418   7.802   6.014
20231TIP3    H111161   5.442   7.780   6.104
20231TIP3    H211162   5.345   7.744   5.994
20232TIP3   OH211163   3.970   7.920   6.428
20232TIP3    H111164   3.991   7.829   6.450
20232TIP3    H211165   4.038   7.971   6.471
20233TIP3   OH211166   5.591   7.841   7.123
20233TIP3    H111167   5.511   7.853   7.175
20233TIP3    H211168   5.566   7.779   7.054
20234TIP3   OH211169   5.508   7.822   5.637
20234TIP3    H111170   5.547   7.771   5.566
20234TIP3    H211171   5.578   7.880   5.666
20235TIP3   OH211172   3.732   7.807   5.919
20235TIP3    H111173   3.683   7.757   5.854
20235TIP3    H211174   3.791   7.862   5.867
20236TIP3   OH211175   3.794   7.660   6.745
20236TIP3    H111176   3.737   7.646   6.821
20236TIP3    H211177   3.758   7.737   6.702
20237TIP3   OH211178   5.499   7.627   6.954
20237TIP3    H111179   5.410   7.641   6.923
20237TIP3    H211180   5.494   7.547   7.007
20238TIP3   OH211181   4.752   7.727   6.322
20238TIP3    H111182   4.696   7.672   6.378
20238TIP3    H211183   4.841   7.705   6.348
20239TIP3   OH211184   5.314   7.630   6.382
20239TIP3    H111185   5.372   7.700   6.353
20239TIP3    H211186   5.231   7.674   6.402
20240TIP3   OH211187   5.545   7.746   6.256
20240TIP3    H111188   5.592   7.666   6.232
20240TIP3    H211189   5.589   7.777   6.335
20241TIP3   OH211190   4.067   7.611   6.178
20241TIP3    H111191   3.973   7.599   6.168
20241TIP3    H211192   4.102   7.522   6.178
20242TIP3   OH211193   3.949   7.613   5.781
20242TIP3    H111194   4.024   7.669   5.763
20242TIP3    H211195   3.880   7.646   5.723
20243TIP3   OH211196   4.478   7.651   6.176
20243TIP3    H111197   4.559   7.685   6.138
20243TIP3    H211198   4.500   7.634   6.268
20244TIP3   OH211199   5.018   7.648   6.356
20244TIP3    H111200   5.057   7.635   6.269
20244TIP3    H211201   5.003   7.559   6.388
20245TIP3   OH211202   5.197   7.656   5.922
20245TIP3    H111203   5.121   7.715   5.926
20245TIP3    H211204   5.158   7.568   5.926
20246TIP3   OH211205   4.121   7.816   5.663
20246TIP3    H111206   4.128   7.808   5.568
20246TIP3    H211207   4.210   7.837   5.693
20247TIP3   OH211208   4.637   7.863   5.839
20247TIP3    H111209   4.665   7.798   5.903
20247TIP3    H211210   4.639   7.946   5.886
20248TIP3   OH211211   4.035   7.667   7.111
20248TIP3    H111212   3.970   7.609   7.151
20248TIP3    H211213   4.119   7.635   7.144
20249TIP3   OH211214   4.263   7.581   7.232
20249TIP3    H111215   4.354   7.597   7.208
20249TIP3    H211216   4.265   7.501   7.284
20250TIP3   OH211217   5.120   7.557   7.333
20250TIP3    H111218   5.097   7.560   7.426
20250TIP3    H211219   5.192   7.495   7.328
20251TIP3   OH211220   7.472   7.855   6.623
20251TIP3    H111221   7.466   7.914   6.698
20251TIP3    H211222   7.552   7.881   6.578
20252TIP3   OH211223   6.222   7.996   6.276
20252TIP3    H111224   6.185   8.069   6.227
20252TIP3    H211225   6.191   7.918   6.230
20253TIP3   OH211226   7.043   7.982   6.144
20253TIP3    H111227   7.074   7.933   6.221
20253TIP3    H211228   7.122   8.020   6.107
20254TIP3   OH211229   7.463   8.016   6.840
20254TIP3    H111230   7.471   8.109   6.820
20254TIP3    H211231   7.511   8.005   6.923
20255TIP3   OH211232   6.096   7.866   6.717
20255TIP3    H111233   6.062   7.931   6.654
20255TIP3    H211234   6.029   7.862   6.785
20256TIP3   OH211235   7.161   7.956   6.407
20256TIP3    H111236   7.069   7.967   6.432
20256TIP3    H211237   7.195   7.893   6.471
20257TIP3   OH211238   6.067   8.039   6.503
20257TIP3    H111239   6.096   8.126   6.531
20257TIP3    H211240   6.127   8.015   6.432
20258TIP3   OH211241   7.217   7.769   6.616
20258TIP3    H111242   7.190   7.796   6.704
20258TIP3    H211243   7.311   7.785   6.613
20259TIP3   OH211244   6.451   7.579   6.450
20259TIP3    H111245   6.436   7.485   6.456
20259TIP3    H211246   6.373   7.619   6.487
20260TIP3   OH211247   7.329   7.602   5.749
20260TIP3    H111248   7.242   7.627   5.783
20260TIP3    H211249   7.356   7.677   5.696
20261TIP3   OH211250   6.209   7.682   6.544
20261TIP3    H111251   6.131   7.665   6.492
20261TIP3    H211252   6.183   7.750   6.606
20262TIP3   OH211253   6.662   7.704   6.899
20262TIP3    H111254   6.683   7.748   6.981
20262TIP3    H211255   6.573   7.672   6.911
20263TIP3   OH211256   7.008   8.018   6.942
20263TIP3    H111257   6.953   8.016   7.020
20263TIP3    H211258   7.068   8.091   6.957
20264TIP3   OH211259   6.682   7.915   5.641
20264TIP3    H111260   6.625   7.893   5.715
20264TIP3    H211261   6.630   7.895   5.564
20265TIP3   OH211262   6.375   7.956   5.452
20265TIP3    H111263   6.342   7.919   5.534
20265TIP3    H211264   6.332   8.041   5.446
20266TIP3   OH211265   5.751   7.978   6.165
20266TIP3    H111266   5.775   7.948   6.253
20266TIP3    H211267   5.695   7.909   6.131
20267TIP3   OH211268   5.707   7.993   5.730
20267TIP3    H111269   5.799   8.004   5.706
20267TIP3    H211270   5.670   8.081   5.726
20268TIP3   OH211271   6.504   7.968   6.245
20268TIP3    H111272   6.415   7.971   6.280
20268TIP3    H211273   6.548   7.901   6.298
20269TIP3   OH211274   6.000   8.041   6.072
20269TIP3    H111275   5.912   8.018   6.099
20269TIP3    H211276   6.046   7.957   6.065
20270TIP3   OH211277   6.293   8.105   5.869
20270TIP3    H111278   6.369   8.123   5.924
20270TIP3    H211279   6.220   0.003   5.915
20271TIP3   OH211280   6.886   7.965   6.476
20271TIP3    H111281   6.884   7.949   6.570
20271TIP3    H211282   6.822   7.904   6.439
20272TIP3   OH211283   6.134   7.790   6.115
20272TIP3    H111284   6.058   7.733   6.122
20272TIP3    H211285   6.210   7.731   6.115
20273TIP3   OH211286   6.482   8.112   6.699
20273TIP3    H111287   6.429   0.028   6.752
20273TIP3    H211288   6.557   8.091   6.754
20274TIP3   OH211289   6.895   8.050   5.750
20274TIP3    H111290   6.821   8.000   5.715
20274TIP3    H211291   6.913   8.117   5.684
20275TIP3   OH211292   5.907   7.875   6.917
20275TIP3    H111293   5.823   7.919   6.906
20275TIP3    H211294   5.893   7.812   6.987
20276TIP3   OH211295   6.861   7.895   6.740
20276TIP3    H111296   6.911   7.940   6.807
20276TIP3    H211297   6.801   7.838   6.789
20277TIP3   OH211298   6.886   7.852   5.957
20277TIP3    H111299   6.885   7.917   5.887
20277TIP3    H211300   6.933   7.895   6.029
20278TIP3   OH211301   6.526   8.127   6.030
20278TIP3    H111302   6.598   0.042   6.049
20278TIP3    H211303   6.526   8.064   6.102
20279TIP3   OH211304   6.643   8.085   6.929
20279TIP3    H111305   6.568   8.060   6.983
20279TIP3    H211306   6.719   8.051   6.976
20280TIP3   OH211307   6.656   7.726   6.064
20280TIP3    H111308   6.663   7.742   6.158
20280TIP3    H211309   6.737   7.760   6.027
20281TIP3   OH211310   6.278   7.884   5.703
20281TIP3    H111311   6.265   7.965   5.753
20281TIP3    H211312   6.349   7.839   5.750
20282TIP3   OH211313   7.216   7.843   6.880
20282TIP3    H111314   7.141   7.895   6.908
20282TIP3    H211315   7.292   7.890   6.916
20283TIP3   OH211316   5.968   7.634   6.423
20283TIP3    H111317   5.954   7.623   6.329
20283TIP3    H211318   5.940   7.550   6.461
20284TIP3   OH211319   6.332   8.011   7.057
20284TIP3    H111320   6.317   7.958   6.979
20284TIP3    H211321   6.245   8.038   7.085
20285TIP3   OH211322   6.348   7.879   6.812
20285TIP3    H111323   6.391   7.947   6.760
20285TIP3    H211324   6.258   7.876   6.777
20286TIP3   OH211325   6.394   7.623   6.908
20286TIP3    H111326   6.374   7.713   6.883
20286TIP3    H211327   6.326   7.570   6.866
20287TIP3   OH211328   6.548   8.011   7.218
20287TIP3    H111329   6.535   7.969   7.303
20287TIP3    H211330   6.464   7.999   7.173
20288TIP3   OH211331   6.806   7.958   7.132
20288TIP3    H111332   6.722   7.976   7.173
20288TIP3    H211333   6.866   7.942   7.205
20289TIP3   OH211334   6.981   7.923   7.352
20289TIP3    H111335   7.075   7.918   7.369
20289TIP3    H211336   6.941   7.880   7.427
20290TIP3   OH211337   5.967   7.896   7.272
20290TIP3    H111338   5.955   7.823   7.211
20290TIP3    H211339   5.952   7.857   7.358
20291TIP3   OH211340   6.446   7.525   7.176
20291TIP3    H111341   6.378   7.468   7.213
20291TIP3    H211342   6.412   7.550   7.090
20292TIP3   OH211343   6.514   7.733   7.356
20292TIP3    H111344   6.490   7.661   7.296
20292TIP3    H211345   6.433   7.783   7.366
20293TIP3   OH211346   7.205   7.977   5.533
20293TIP3    H111347   7.282   7.924   5.553
20293TIP3    H211348   7.138   7.947   5.595
20294TIP3   OH211349   7.300   8.071   6.081
20294TIP3    H111350   7.312   7.979   6.060
20294TIP3    H211351   7.316   8.117   5.998
20295TIP3   OH211352   7.370   0.001   6.560
20295TIP3    H111353   7.442   0.043   6.607
20295TIP3    H211354   7.308   8.119   6.628
20296TIP3   OH211355   5.761   8.077   7.196
20296TIP3    H111356   5.833   8.018   7.221
20296TIP3    H211357   5.695   8.019   7.160
20297TIP3   OH211358   7.503   7.655   7.251
20297TIP3    H111359   7.558   7.578   7.235
20297TIP3    H211360   7.542   7.696   7.328
20298TIP3   OH211361   7.299   7.809   6.008
20298TIP3    H111362   7.325   7.761   6.087
20298TIP3    H211363   7.230   7.755   5.969
20299TIP3   OH211364   5.853   7.888   6.403
20299TIP3    H111365   5.882   7.799   6.425
20299TIP3    H211366   5.913   7.946   6.449
20300TIP3   OH211367   7.377   7.889   7.167
20300TIP3    H111368   7.326   7.913   7.244
20300TIP3    H211369   7.417   7.805   7.191
20301TIP3   OH211370   7.426   7.822   5.595
20301TIP3    H111371   7.457   7.814   5.505
20301TIP3    H211372   7.491   7.878   5.638
20302TIP3   OH211373   5.677   7.790   5.917
20302TIP3    H111374   5.586   7.787   5.945
20302TIP3    H211375   5.684   7.872   5.867
20303TIP3   OH211376   5.677   7.648   6.741
20303TIP3    H111377   5.621   7.641   6.819
20303TIP3    H211378   5.647   7.726   6.697
20304TIP3   OH211379   7.264   7.562   6.971
20304TIP3    H111380   7.274   7.651   6.936
20304TIP3    H211381   7.344   7.517   6.943
20305TIP3   OH211382   6.658   7.752   6.346
20305TIP3    H111383   6.602   7.692   6.394
20305TIP3    H211384   6.742   7.706   6.340
20306TIP3   OH211385   7.226   7.606   6.390
20306TIP3    H111386   7.296   7.655   6.348
20306TIP3    H211387   7.205   7.657   6.469
20307TIP3   OH211388   7.419   7.726   6.241
20307TIP3    H111389   7.480   7.657   6.219
20307TIP3    H211390   7.474   7.802   6.259
20308TIP3   OH211391   5.933   7.603   6.149
20308TIP3    H111392   5.839   7.593   6.138
20308TIP3    H211393   5.967   7.513   6.148
20309TIP3   OH211394   5.802   7.627   5.734
20309TIP3    H111395   5.874   7.684   5.706
20309TIP3    H211396   5.756   7.677   5.801
20310TIP3   OH211397   6.387   7.626   6.167
20310TIP3    H111398   6.468   7.661   6.131
20310TIP3    H211399   6.405   7.613   6.261
20311TIP3   OH211400   6.895   7.623   6.295
20311TIP3    H111401   6.977   7.606   6.248
20311TIP3    H211402   6.879   7.544   6.346
20312TIP3   OH211403   7.090   7.668   5.887
20312TIP3    H111404   7.016   7.726   5.903
20312TIP3    H211405   7.055   7.580   5.900
20313TIP3   OH211406   6.029   7.755   5.629
20313TIP3    H111407   6.061   7.670   5.596
20313TIP3    H211408   6.109   7.800   5.658
20314TIP3   OH211409   6.521   7.869   5.862
20314TIP3    H111410   6.555   7.811   5.931
20314TIP3    H211411   6.507   7.953   5.906
20315TIP3   OH211412   5.928   7.656   7.120
20315TIP3    H111413   5.862   7.594   7.152
20315TIP3    H211414   6.007   7.633   7.168
20316TIP3   OH211415   6.108   7.575   7.314
20316TIP3    H111416   6.176   7.508   7.307
20316TIP3    H211417   6.049   7.543   7.382
20317TIP3   OH211418   7.003   7.436   7.371
20317TIP3    H111419   6.937   7.466   7.433
20317TIP3    H211420   7.057   7.513   7.353
20318TIP3   OH211421   8.013   7.997   6.289
20318TIP3    H111422   8.097   8.041   6.290
20318TIP3    H211423   8.026   7.918   6.343
20319TIP3   OH211424   7.950   7.844   6.722
20319TIP3    H111425   7.938   7.931   6.683
20319TIP3    H211426   7.882   7.838   6.788
20320TIP3   OH211427   7.917   8.084   6.563
20320TIP3    H111428   7.971   8.130   6.627
20320TIP3    H211429   7.974   8.076   6.486
20321TIP3   OH211430   8.049   7.776   6.441
20321TIP3    H111431   7.968   7.734   6.469
20321TIP3    H211432   8.108   7.770   6.517
20322TIP3   OH211433   7.541   7.981   6.284
20322TIP3    H111434   7.589   7.966   6.365
20322TIP3    H211435   7.609   7.990   6.217
20323TIP3   OH211436   7.636   7.971   5.698
20323TIP3    H111437   7.689   7.954   5.620
20323TIP3    H211438   7.647   8.064   5.715
20324TIP3   OH211439   7.776   8.023   6.139
20324TIP3    H111440   7.792   7.952   6.076
20324TIP3    H211441   7.851   8.019   6.199
20325TIP3   OH211442   7.959   7.809   6.063
20325TIP3    H111443   7.906   7.749   6.116
20325TIP3    H211444   8.015   7.853   6.126
20326TIP3   OH211445   7.752   7.833   6.915
20326TIP3    H111446   7.713   7.904   6.966
20326TIP3    H211447   7.787   7.773   6.980
20327TIP3   OH211448   7.998   7.894   5.747
20327TIP3    H111449   7.973   7.967   5.804
20327TIP3    H211450   8.086   7.916   5.716
20328TIP3   OH211451   7.793   7.667   6.450
20328TIP3    H111452   7.798   7.651   6.356
20328TIP3    H211453   7.787   7.580   6.489
20329TIP3   OH211454   7.826   7.975   7.233
20329TIP3    H111455   7.919   7.986   7.214
20329TIP3    H211456   7.823   7.923   7.313
20330TIP3   OH211457   7.608   8.008   7.073
20330TIP3    H111458   7.678   8.005   7.139
20330TIP3    H211459   7.530   7.978   7.120
20331TIP3   OH211460   7.702   7.922   6.494
20331TIP3    H111461   7.742   7.835   6.490
20331TIP3    H211462   7.772   7.979   6.527
20332TIP3   OH211463   7.570   7.838   5.937
20332TIP3    H111464   7.476   7.828   5.953
20332TIP3    H211465   7.576   7.898   5.863
20333TIP3   OH211466   7.570   7.660   6.789
20333TIP3    H111467   7.618   7.717   6.849
20333TIP3    H211468   7.529   7.721   6.727
20334TIP3   OH211469   7.806   7.615   6.176
20334TIP3    H111470   7.716   7.588   6.156
20334TIP3    H211471   7.853   7.533   6.189
20335TIP3   OH211472   7.762   7.679   5.829
20335TIP3    H111473   7.736   7.702   5.740
20335TIP3    H211474   7.700   7.727   5.885
20336TIP3   OH211475   7.848   7.812   5.528
20336TIP3    H111476   7.924   7.808   5.470
20336TIP3    H211477   7.884   7.840   5.612
20337TIP3   OH211478   7.831   7.633   7.081
20337TIP3    H111479   7.773   7.576   7.132
20337TIP3    H211480   7.907   7.645   7.138
20338TIP3   OH211481   8.028   7.619   7.270
20338TIP3    H111482   8.115   7.586   7.249
20338TIP3    H211483   7.991   7.553   7.328
20339TIP3   OH211484   1.336   1.813   7.484
20339TIP3    H111485   1.374   1.725   7.486
20339TIP3    H211486   1.283   1.819   7.563
20340TIP3   OH211487   0.954   0.385   7.575
20340TIP3    H111488   0.909   0.341   7.648
20340TIP3    H211489   0.922   0.340   7.497
20341TIP3   OH211490   0.655   0.446   7.452
20341TIP3    H111491   0.623   0.405   7.533
20341TIP3    H211492   0.637   0.539   7.464
20342TIP3   OH211493   0.593   0.712   7.509
20342TIP3    H111494   0.500   0.696   7.495
20342TIP3    H211495   0.596   0.773   7.583
20343TIP3   OH211496   1.209   0.462   7.483
20343TIP3    H111497   1.123   0.436   7.515
20343TIP3    H211498   1.257   0.487   7.562
20344TIP3   OH211499   1.338   0.559   7.706
20344TIP3    H111500   1.360   0.525   7.792
20344TIP3    H211501   1.408   0.620   7.685
20345TIP3   OH211502   1.029   1.351   7.638
20345TIP3    H111503   1.081   1.414   7.687
20345TIP3    H211504   1.022   1.275   7.696
20346TIP3   OH211505   0.171   0.969   7.483
20346TIP3    H111506   0.235   1.016   7.537
20346TIP3    H211507   0.126   0.911   7.545
20347TIP3   OH211508   1.415   1.318   7.493
20347TIP3    H111509   1.408   1.262   7.570
20347TIP3    H211510   1.331   1.308   7.448
20348TIP3   OH211511   0.757   1.429   7.417
20348TIP3    H111512   0.769   1.347   7.370
20348TIP3    H211513   0.727   1.403   7.504
20349TIP3   OH211514   0.659   1.357   7.670
20349TIP3    H111515   0.626   1.274   7.703
20349TIP3    H211516   0.741   1.370   7.717
20350TIP3   OH211517   0.348   1.135   7.630
20350TIP3    H111518   0.278   1.156   7.692
20350TIP3    H211519   0.426   1.125   7.684
20351TIP3   OH211520   0.561   0.337   7.691
20351TIP3    H111521   0.513   0.362   7.769
20351TIP3    H211522   0.637   0.288   7.723
20352TIP3   OH211523   0.442   1.464   7.512
20352TIP3    H111524   0.505   1.445   7.582
20352TIP3    H211525   0.444   1.386   7.456
20353TIP3   OH211526   0.323   0.647   7.503
20353TIP3    H111527   0.288   0.685   7.584
20353TIP3    H211528   0.318   0.552   7.518
20354TIP3   OH211529   0.952   1.629   7.394
20354TIP3    H111530   0.896   1.553   7.412
20354TIP3    H211531   1.004   1.640   7.473
20355TIP3   OH211532   1.456   1.569   7.391
20355TIP3    H111533   1.446   1.490   7.444
20355TIP3    H211534   1.543   1.561   7.353
20356TIP3   OH211535   0.489   1.214   7.379
20356TIP3    H111536   0.469   1.163   7.457
20356TIP3    H211537   0.580   1.193   7.360
20357TIP3   OH211538   1.151   1.307   7.388
20357TIP3    H111539   1.099   1.323   7.467
20357TIP3    H211540   1.148   1.212   7.376
20358TIP3   OH211541   1.582   1.067   7.336
20358TIP3    H111542   1.547   1.030   7.417
20358TIP3    H211543   1.624   1.149   7.362
20359TIP3   OH211544   0.185   1.312   7.466
20359TIP3    H111545   0.185   1.365   7.545
20359TIP3    H211546   0.243   1.238   7.486
20360TIP3   OH211547   0.100   0.165   7.540
20360TIP3    H111548   0.106   0.203   7.628
20360TIP3    H211549   0.125   0.073   7.552
20361TIP3   OH211550   0.337   0.342   7.508
20361TIP3    H111551   0.269   0.285   7.544
20361TIP3    H211552   0.412   0.332   7.567
20362TIP3   OH211553   0.364   1.752   7.547
20362TIP3    H111554   0.426   1.780   7.481
20362TIP3    H211555   0.374   1.657   7.551
20363TIP3   OH211556   2.983   0.812   7.485
20363TIP3    H111557   3.004   0.764   7.565
20363TIP3    H211558   2.893   0.788   7.465
20364TIP3   OH211559   3.502   0.032   7.487
20364TIP3    H111560   3.487   8.136   7.572
20364TIP3    H211561   3.558   0.108   7.505
20365TIP3   OH211562   3.611   1.506   7.552
20365TIP3    H111563   3.628   1.596   7.581
20365TIP3    H211564   3.656   1.452   7.617
20366TIP3   OH211565   3.292   1.061   7.413
20366TIP3    H111566   3.279   1.021   7.327
20366TIP3    H211567   3.385   1.048   7.431
20367TIP3   OH211568   2.554   0.395   7.434
20367TIP3    H111569   2.611   0.376   7.508
20367TIP3    H211570   2.530   0.487   7.445
20368TIP3   OH211571   2.464   0.648   7.497
20368TIP3    H111572   2.372   0.665   7.516
20368TIP3    H211573   2.507   0.647   7.583
20369TIP3   OH211574   3.110   0.483   7.503
20369TIP3    H111575   3.039   0.461   7.565
20369TIP3    H211576   3.175   0.528   7.557
20370TIP3   OH211577   3.307   0.613   7.647
20370TIP3    H111578   3.350   0.537   7.688
20370TIP3    H211579   3.311   0.681   7.714
20371TIP3   OH211580   2.055   1.011   7.505
20371TIP3    H111581   2.126   1.069   7.531
20371TIP3    H211582   2.028   0.968   7.586
20372TIP3   OH211583   3.635   1.763   7.652
20372TIP3    H111584   3.727   1.791   7.645
20372TIP3    H211585   3.616   1.768   7.746
20373TIP3   OH211586   2.187   0.647   7.518
20373TIP3    H111587   2.141   0.658   7.601
20373TIP3    H211588   2.192   0.552   7.507
20374TIP3   OH211589   2.885   1.609   7.392
20374TIP3    H111590   2.817   1.554   7.430
20374TIP3    H211591   2.956   1.548   7.371
20375TIP3   OH211592   3.370   1.551   7.414
20375TIP3    H111593   3.442   1.530   7.473
20375TIP3    H211594   3.413   1.582   7.334
20376TIP3   OH211595   2.961   1.322   7.448
20376TIP3    H111596   2.875   1.355   7.474
20376TIP3    H211597   2.944   1.237   7.409
20377TIP3   OH211598   2.724   0.735   7.453
20377TIP3    H111599   2.630   0.739   7.431
20377TIP3    H211600   2.727   0.688   7.536
20378TIP3   OH211601   3.569   1.063   7.390
20378TIP3    H111602   3.566   1.024   7.303
20378TIP3    H211603   3.575   1.157   7.375
20379TIP3   OH211604   2.612   1.942   7.504
20379TIP3    H111605   2.567   1.908   7.581
20379TIP3    H211606   2.701   1.908   7.511
20380TIP3   OH211607   3.631   0.892   7.592
20380TIP3    H111608   3.612   0.961   7.528
20380TIP3    H211609   3.589   0.922   7.673
20381TIP3   OH211610   3.668   0.658   7.440
20381TIP3    H111611   3.647   0.736   7.492
20381TIP3    H211612   3.583   0.615   7.426
20382TIP3   OH211613   3.482   0.379   7.334
20382TIP3    H111614   3.522   0.344   7.413
20382TIP3    H211615   3.392   0.347   7.336
20383TIP3   OH211616   3.682   0.247   7.530
20383TIP3    H111617   3.736   0.204   7.464
20383TIP3    H211618   3.745   0.282   7.593
20384TIP3   OH211619   2.277   0.380   7.495
20384TIP3    H111620   2.370   0.374   7.476
20384TIP3    H211621   2.272   0.378   7.591
20385TIP3   OH211622   2.865   1.833   7.547
20385TIP3    H111623   2.869   1.800   7.637
20385TIP3    H211624   2.871   1.755   7.492
20386TIP3   OH211625   2.298   1.689   7.420
20386TIP3    H111626   2.275   1.683   7.512
20386TIP3    H211627   2.371   1.628   7.410
20387TIP3   OH211628   5.551   1.556   7.493
20387TIP3    H111629   5.484   1.583   7.430
20387TIP3    H211630   5.550   1.460   7.489
20388TIP3   OH211631   5.311   0.929   7.403
20388TIP3    H111632   5.248   0.946   7.332
20388TIP3    H211633   5.277   0.979   7.477
20389TIP3   OH211634   4.810   0.375   7.610
20389TIP3    H111635   4.763   0.442   7.661
20389TIP3    H211636   4.744   0.340   7.551
20390TIP3   OH211637   4.449   0.414   7.433
20390TIP3    H111638   4.412   0.371   7.511
20390TIP3    H211639   4.377   0.465   7.397
20391TIP3   OH211640   4.377   0.764   7.460
20391TIP3    H111641   4.319   0.711   7.405
20391TIP3    H211642   4.440   0.701   7.496
20392TIP3   OH211643   5.035   0.496   7.513
20392TIP3    H111644   4.953   0.462   7.550
20392TIP3    H211645   5.086   0.523   7.590
20393TIP3   OH211646   5.153   0.558   7.750
20393TIP3    H111647   5.161   0.468   7.782
20393TIP3    H211648   5.108   0.604   7.821
20394TIP3   OH211649   4.802   1.338   7.613
20394TIP3    H111650   4.780   1.423   7.651
20394TIP3    H211651   4.757   1.275   7.669
20395TIP3   OH211652   5.576   0.665   7.680
20395TIP3    H111653   5.552   0.576   7.705
20395TIP3    H211654   5.534   0.679   7.595
20396TIP3   OH211655   5.210   1.289   7.446
20396TIP3    H111656   5.217   1.218   7.510
20396TIP3    H211657   5.118   1.289   7.420
20397TIP3   OH211658   4.559   1.431   7.383
20397TIP3    H111659   4.580   1.339   7.363
20397TIP3    H211660   4.509   1.426   7.465
20398TIP3   OH211661   4.396   1.428   7.608
20398TIP3    H111662   4.315   1.413   7.655
20398TIP3    H211663   4.441   1.495   7.660
20399TIP3   OH211664   4.342   0.269   7.650
20399TIP3    H111665   4.307   0.320   7.723
20399TIP3    H211666   4.396   0.202   7.692
20400TIP3   OH211667   3.940   0.666   7.434
20400TIP3    H111668   3.972   0.621   7.513
20400TIP3    H211669   3.845   0.657   7.438
20401TIP3   OH211670   4.773   1.595   7.336
20401TIP3    H111671   4.697   1.539   7.355
20401TIP3    H211672   4.817   1.605   7.420
20402TIP3   OH211673   5.285   1.541   7.364
20402TIP3    H111674   5.226   1.598   7.413
20402TIP3    H211675   5.268   1.453   7.397
20403TIP3   OH211676   4.331   1.130   7.340
20403TIP3    H111677   4.308   1.128   7.433
20403TIP3    H211678   4.423   1.154   7.338
20404TIP3   OH211679   4.942   1.290   7.381
20404TIP3    H111680   4.888   1.310   7.457
20404TIP3    H211681   4.917   1.200   7.357
20405TIP3   OH211682   4.440   0.973   7.625
20405TIP3    H111683   4.410   0.904   7.566
20405TIP3    H211684   4.527   0.944   7.653
20406TIP3   OH211685   4.667   0.869   7.431
20406TIP3    H111686   4.578   0.904   7.437
20406TIP3    H211687   4.690   0.847   7.522
20407TIP3   OH211688   5.572   1.040   7.386
20407TIP3    H111689   5.497   0.985   7.409
20407TIP3    H211690   5.548   1.127   7.419
20408TIP3   OH211691   4.443   1.890   7.580
20408TIP3    H111692   4.472   1.838   7.655
20408TIP3    H211693   4.389   1.959   7.618
20409TIP3   OH211694   5.459   0.701   7.439
20409TIP3    H111695   5.401   0.776   7.428
20409TIP3    H211696   5.423   0.634   7.380
20410TIP3   OH211697   5.341   0.400   7.315
20410TIP3    H111698   5.387   0.385   7.398
20410TIP3    H211699   5.255   0.362   7.329
20411TIP3   OH211700   5.514   0.340   7.522
20411TIP3    H111701   5.571   0.264   7.512
20411TIP3    H211702   5.471   0.326   7.607
20412TIP3   OH211703   4.114   0.247   7.485
20412TIP3    H111704   4.191   0.257   7.541
20412TIP3    H211705   4.040   0.260   7.544
20413TIP3   OH211706   4.150   1.833   7.444
20413TIP3    H111707   4.171   1.858   7.534
20413TIP3    H211708   4.216   1.768   7.421
20414TIP3   OH211709   7.024   0.955   7.346
20414TIP3    H111710   7.053   0.960   7.254
20414TIP3    H211711   7.100   0.987   7.396
20415TIP3   OH211712   6.604   0.421   7.500
20415TIP3    H111713   6.605   0.415   7.596
20415TIP3    H211714   6.543   0.353   7.472
20416TIP3   OH211715   6.276   0.616   7.419
20416TIP3    H111716   6.210   0.645   7.356
20416TIP3    H211717   6.329   0.695   7.436
20417TIP3   OH211718   6.882   0.508   7.486
20417TIP3    H111719   6.789   0.485   7.493
20417TIP3    H211720   6.901   0.553   7.568
20418TIP3   OH211721   7.451   0.617   7.614
20418TIP3    H111722   7.541   0.584   7.611
20418TIP3    H211723   7.425   0.607   7.706
20419TIP3   OH211724   5.849   0.858   7.468
20419TIP3    H111725   5.912   0.884   7.535
20419TIP3    H211726   5.768   0.903   7.492
20420TIP3   OH211727   7.506   1.813   7.649
20420TIP3    H111728   7.597   1.807   7.676
20420TIP3    H211729   7.462   1.743   7.697
20421TIP3   OH211730   6.493   1.390   7.385
20421TIP3    H111731   6.573   1.352   7.349
20421TIP3    H211732   6.520   1.426   7.469
20422TIP3   OH211733   6.591   1.497   7.616
20422TIP3    H111734   6.529   1.488   7.688
20422TIP3    H211735   6.676   1.477   7.655
20423TIP3   OH211736   6.170   1.740   7.649
20423TIP3    H111737   6.189   1.834   7.646
20423TIP3    H211738   6.217   1.708   7.726
20424TIP3   OH211739   5.794   0.580   7.432
20424TIP3    H111740   5.818   0.672   7.442
20424TIP3    H211741   5.713   0.571   7.483
20425TIP3   OH211742   6.733   1.606   7.390
20425TIP3    H111743   6.672   1.591   7.463
20425TIP3    H211744   6.814   1.562   7.417
20426TIP3   OH211745   6.206   1.202   7.341
20426TIP3    H111746   6.194   1.139   7.412
20426TIP3    H211747   6.283   1.170   7.294
20427TIP3   OH211748   6.748   1.299   7.309
20427TIP3    H111749   6.805   1.327   7.380
20427TIP3    H211750   6.757   1.204   7.307
20428TIP3   OH211751   6.195   1.021   7.554
20428TIP3    H111752   6.199   1.054   7.644
20428TIP3    H211753   6.256   0.947   7.553
20429TIP3   OH211754   6.435   0.840   7.453
20429TIP3    H111755   6.449   0.870   7.363
20429TIP3    H211756   6.523   0.820   7.485
20430TIP3   OH211757   7.277   1.044   7.418
20430TIP3    H111758   7.327   0.964   7.432
20430TIP3    H211759   7.308   1.104   7.486
20431TIP3   OH211760   6.506   1.847   7.530
20431TIP3    H111761   6.481   1.878   7.617
20431TIP3    H211762   6.496   1.923   7.473
20432TIP3   OH211763   7.274   0.551   7.415
20432TIP3    H111764   7.337   0.585   7.478
20432TIP3    H211765   7.226   0.484   7.463
20433TIP3   OH211766   5.753   0.004   7.701
20433TIP3    H111767   5.741   0.067   7.630
20433TIP3    H211768   5.794   0.055   7.771
20434TIP3   OH211769   6.792   1.902   7.559
20434TIP3    H111770   6.826   1.858   7.637
20434TIP3    H211771   6.709   1.858   7.541
20435TIP3   OH211772   5.972   1.835   7.473
20435TIP3    H111773   5.925   1.898   7.528
20435TIP3    H211774   6.036   1.795   7.531
20436TIP3   OH211775   7.705   0.504   7.634
20436TIP3    H111776   7.797   0.492   7.659
20436TIP3    H211777   7.658   0.437   7.684
20437TIP3   OH211778   8.074   0.663   7.419
20437TIP3    H111779   8.085   0.576   7.456
20437TIP3    H211780   8.102   0.723   7.489
20438TIP3   OH211781   7.785   0.923   7.523
20438TIP3    H111782   7.850   0.914   7.592
20438TIP3    H211783   7.731   0.997   7.549
20439TIP3   OH211784   8.102   0.414   7.535
20439TIP3    H111785   8.120   0.446   7.623
20439TIP3    H211786   0.017   0.339   7.526
20440TIP3   OH211787   7.941   1.456   7.529
20440TIP3    H111788   7.967   1.430   7.618
20440TIP3    H211789   7.970   1.384   7.474
20441TIP3   OH211790   7.714   0.683   7.399
20441TIP3    H111791   7.738   0.764   7.445
20441TIP3    H211792   7.709   0.617   7.468
20442TIP3   OH211793   8.074   1.228   7.406
20442TIP3    H111794   8.052   1.163   7.473
20442TIP3    H211795   0.015   1.263   7.433
20443TIP3   OH211796   7.651   0.165   7.566
20443TIP3    H111797   7.738   0.196   7.543
20443TIP3    H211798   7.627   0.214   7.645
20444TIP3   OH211799   7.893   0.250   7.470
20444TIP3    H111800   7.939   0.169   7.453
20444TIP3    H211801   7.960   0.309   7.505
20445TIP3   OH211802   7.875   1.733   7.492
20445TIP3    H111803   7.829   1.761   7.571
20445TIP3    H211804   7.889   1.639   7.504
20446TIP3   OH211805   1.738   3.382   7.427
20446TIP3    H111806   1.755   3.468   7.465
20446TIP3    H211807   1.823   3.338   7.428
20447TIP3   OH211808   1.514   2.845   7.496
20447TIP3    H111809   1.473   2.904   7.433
20447TIP3    H211810   1.453   2.843   7.570
20448TIP3   OH211811   1.003   2.208   7.548
20448TIP3    H111812   1.009   2.136   7.611
20448TIP3    H211813   0.944   2.176   7.480
20449TIP3   OH211814   0.545   2.286   7.432
20449TIP3    H111815   0.563   2.277   7.526
20449TIP3    H211816   0.591   2.366   7.407
20450TIP3   OH211817   1.238   2.355   7.490
20450TIP3    H111818   1.163   2.306   7.525
20450TIP3    H211819   1.262   2.415   7.561
20451TIP3   OH211820   1.063   3.239   7.611
20451TIP3    H111821   1.099   3.302   7.673
20451TIP3    H211822   0.997   3.191   7.662
20452TIP3   OH211823   1.774   2.575   7.732
20452TIP3    H111824   1.778   2.498   7.788
20452TIP3    H211825   1.841   2.634   7.766
20453TIP3   OH211826   0.162   2.825   7.596
20453TIP3    H111827   0.240   2.862   7.637
20453TIP3    H211828   0.091   2.846   7.657
20454TIP3   OH211829   1.784   3.639   7.530
20454TIP3    H111830   1.852   3.671   7.589
20454TIP3    H211831   1.709   3.697   7.545
20455TIP3   OH211832   0.846   3.265   7.375
20455TIP3    H111833   0.929   3.225   7.351
20455TIP3    H211834   0.816   3.215   7.451
20456TIP3   OH211835   0.903   3.511   7.673
20456TIP3    H111836   0.981   3.487   7.722
20456TIP3    H211837   0.933   3.513   7.582
20457TIP3   OH211838   0.639   3.565   7.660
20457TIP3    H111839   0.725   3.528   7.676
20457TIP3    H211840   0.579   3.490   7.663
20458TIP3   OH211841   0.163   2.553   7.568
20458TIP3    H111842   0.244   2.529   7.612
20458TIP3    H211843   0.160   2.649   7.574
20459TIP3   OH211844   1.002   3.492   7.403
20459TIP3    H111845   0.942   3.417   7.391
20459TIP3    H211846   1.087   3.452   7.418
20460TIP3   OH211847   1.463   3.490   7.390
20460TIP3    H111848   1.404   3.510   7.462
20460TIP3    H211849   1.539   3.449   7.432
20461TIP3   OH211850   1.100   3.181   7.347
20461TIP3    H111851   1.098   3.194   7.442
20461TIP3    H211852   1.185   3.142   7.330
20462TIP3   OH211853   0.872   2.688   7.545
20462TIP3    H111854   0.847   2.749   7.476
20462TIP3    H211855   0.966   2.703   7.556
20463TIP3   OH211856   0.238   3.286   7.458
20463TIP3    H111857   0.320   3.322   7.493
20463TIP3    H211858   0.205   3.231   7.529
20464TIP3   OH211859   1.639   2.574   7.496
20464TIP3    H111860   1.566   2.635   7.508
20464TIP3    H211861   1.680   2.569   7.583
20465TIP3   OH211862   1.072   3.736   7.524
20465TIP3    H111863   1.157   3.700   7.548
20465TIP3    H211864   1.033   3.670   7.468
20466TIP3   OH211865   0.269   3.638   7.497
20466TIP3    H111866   0.278   3.721   7.545
20466TIP3    H211867   0.359   3.611   7.478
20467TIP3   OH211868   2.976   2.761   7.562
20467TIP3    H111869   2.946   2.826   7.626
20467TIP3    H211870   3.049   2.717   7.606
20468TIP3   OH211871   3.637   3.363   7.461
20468TIP3    H111872   3.624   3.377   7.555
20468TIP3    H211873   3.730   3.345   7.451
20469TIP3   OH211874   3.260   3.691   7.529
20469TIP3    H111875   3.285   3.602   7.504
20469TIP3    H211876   3.302   3.705   7.614
20470TIP3   OH211877   3.396   2.787   7.484
20470TIP3    H111878   3.344   2.863   7.455
20470TIP3    H211879   3.374   2.777   7.576
20471TIP3   OH211880   1.982   2.370   7.617
20471TIP3    H111881   2.071   2.345   7.644
20471TIP3    H211882   1.933   2.372   7.699
20472TIP3   OH211883   3.185   2.409   7.587
20472TIP3    H111884   3.168   2.497   7.622
20472TIP3    H211885   3.214   2.358   7.663
20473TIP3   OH211886   3.281   3.205   7.539
20473TIP3    H111887   3.278   3.193   7.634
20473TIP3    H211888   3.189   3.202   7.512
20474TIP3   OH211889   2.645   3.309   7.389
20474TIP3    H111890   2.659   3.230   7.336
20474TIP3    H211891   2.602   3.277   7.469
20475TIP3   OH211892   2.284   3.055   7.695
20475TIP3    H111893   2.214   3.025   7.753
20475TIP3    H211894   2.360   3.065   7.753
20476TIP3   OH211895   2.268   3.247   7.445
20476TIP3    H111896   2.289   3.258   7.538
20476TIP3    H211897   2.323   3.174   7.417
20477TIP3   OH211898   2.010   2.631   7.515
20477TIP3    H111899   2.038   2.676   7.594
20477TIP3    H211900   2.001   2.539   7.541
20478TIP3   OH211901   2.886   3.432   7.355
20478TIP3    H111902   2.801   3.393   7.375
20478TIP3    H211903   2.950   3.367   7.385
20479TIP3   OH211904   3.353   3.442   7.414
20479TIP3    H111905   3.328   3.368   7.470
20479TIP3    H211906   3.448   3.436   7.407
20480TIP3   OH211907   2.433   3.031   7.383
20480TIP3    H111908   2.435   3.014   7.477
20480TIP3    H211909   2.524   3.045   7.358
20481TIP3   OH211910   3.017   3.194   7.447
20481TIP3    H111911   2.951   3.142   7.493
20481TIP3    H211912   3.036   3.145   7.367
20482TIP3   OH211913   2.582   2.836   7.593
20482TIP3    H111914   2.525   2.807   7.665
20482TIP3    H211915   2.634   2.907   7.630
20483TIP3   OH211916   2.732   2.680   7.437
20483TIP3    H111917   2.672   2.738   7.483
20483TIP3    H211918   2.819   2.706   7.467
20484TIP3   OH211919   3.633   2.905   7.343
20484TIP3    H111920   3.578   2.844   7.391
20484TIP3    H211921   3.591   2.990   7.356
20485TIP3   OH211922   2.689   3.678   7.552
20485TIP3    H111923   2.715   3.765   7.521
20485TIP3    H211924   2.625   3.647   7.489
20486TIP3   OH211925   1.988   3.259   7.415
20486TIP3    H111926   2.072   3.273   7.459
20486TIP3    H211927   2.000   3.177   7.366
20487TIP3   OH211928   3.627   2.527   7.480
20487TIP3    H111929   3.548   2.573   7.451
20487TIP3    H211930   3.599   2.436   7.489
20488TIP3   OH211931   3.441   2.208   7.281
20488TIP3    H111932   3.484   2.213   7.367
20488TIP3    H211933   3.354   2.246   7.295
20489TIP3   OH211934   3.569   2.182   7.519
20489TIP3    H111935   3.640   2.119   7.512
20489TIP3    H211936   3.535   2.170   7.608
20490TIP3   OH211937   2.276   2.182   7.459
20490TIP3    H111938   2.314   2.098   7.432
20490TIP3    H211939   2.288   2.185   7.554
20491TIP3   OH211940   4.873   2.659   7.445
20491TIP3    H111941   4.814   2.638   7.517
20491TIP3    H211942   4.961   2.650   7.483
20492TIP3   OH211943   5.129   2.664   7.540
20492TIP3    H111944   5.169   2.687   7.624
20492TIP3    H211945   5.142   2.741   7.484
20493TIP3   OH211946   5.554   3.379   7.421
20493TIP3    H111947   5.553   3.463   7.468
20493TIP3    H211948   5.638   3.339   7.443
20494TIP3   OH211949   5.158   2.861   7.350
20494TIP3    H111950   5.173   2.831   7.260
20494TIP3    H211951   5.243   2.890   7.381
20495TIP3   OH211952   4.842   2.257   7.491
20495TIP3    H111953   4.803   2.308   7.563
20495TIP3    H211954   4.767   2.216   7.448
20496TIP3   OH211955   4.441   2.363   7.429
20496TIP3    H111956   4.394   2.350   7.512
20496TIP3    H211957   4.377   2.344   7.361
20497TIP3   OH211958   4.922   3.170   7.594
20497TIP3    H111959   4.901   3.263   7.596
20497TIP3    H211960   4.856   3.130   7.651
20498TIP3   OH211961   3.938   2.810   7.515
20498TIP3    H111962   3.989   2.865   7.574
20498TIP3    H211963   3.869   2.867   7.482
20499TIP3   OH211964   5.187   3.215   7.524
20499TIP3    H111965   5.237   3.151   7.576
20499TIP3    H211966   5.096   3.196   7.546
20500TIP3   OH211967   5.537   3.624   7.546
20500TIP3    H111968   5.608   3.644   7.607
20500TIP3    H211969   5.457   3.639   7.596
20501TIP3   OH211970   4.549   3.264   7.377
20501TIP3    H111971   4.622   3.322   7.358
20501TIP3    H211972   4.525   3.284   7.467
20502TIP3   OH211973   4.476   3.326   7.633
20502TIP3    H111974   4.405   3.285   7.683
20502TIP3    H211975   4.508   3.397   7.688
20503TIP3   OH211976   4.188   3.286   7.499
20503TIP3    H111977   4.211   3.255   7.587
20503TIP3    H211978   4.246   3.361   7.485
20504TIP3   OH211979   3.903   2.534   7.453
20504TIP3    H111980   3.925   2.624   7.478
20504TIP3    H211981   3.808   2.532   7.453
20505TIP3   OH211982   4.742   3.469   7.355
20505TIP3    H111983   4.678   3.530   7.393
20505TIP3    H211984   4.799   3.446   7.429
20506TIP3   OH211985   5.235   3.459   7.389
20506TIP3    H111986   5.212   3.400   7.460
20506TIP3    H211987   5.330   3.464   7.391
20507TIP3   OH211988   4.329   3.110   7.327
20507TIP3    H111989   4.268   3.147   7.392
20507TIP3    H211990   4.409   3.161   7.338
20508TIP3   OH211991   4.896   3.146   7.323
20508TIP3    H111992   4.896   3.166   7.416
20508TIP3    H211993   4.884   3.051   7.319
20509TIP3   OH211994   4.536   2.620   7.471
20509TIP3    H111995   4.502   2.531   7.470
20509TIP3    H211996   4.605   2.619   7.536
20510TIP3   OH211997   5.419   2.937   7.338
20510TIP3    H111998   5.442   2.909   7.250
20510TIP3    H211999   5.413   3.032   7.333
20511TIP3   OH212000   4.562   3.647   7.464
20511TIP3    H112001   4.591   3.615   7.550
20511TIP3    H212002   4.566   3.743   7.472
20512TIP3   OH212003   3.915   3.281   7.443
20512TIP3    H112004   4.001   3.279   7.484
20512TIP3    H212005   3.901   3.192   7.410
20513TIP3   OH212006   5.369   2.246   7.311
20513TIP3    H112007   5.419   2.232   7.392
20513TIP3    H212008   5.277   2.245   7.339
20514TIP3   OH212009   5.552   2.182   7.513
20514TIP3    H112010   5.501   2.172   7.593
20514TIP3    H212011   5.626   2.237   7.538
20515TIP3   OH212012   4.102   3.675   7.414
20515TIP3    H112013   4.118   3.712   7.501
20515TIP3    H212014   4.169   3.607   7.405
20516TIP3   OH212015   6.671   2.700   7.482
20516TIP3    H112016   6.709   2.701   7.570
20516TIP3    H212017   6.579   2.678   7.496
20517TIP3   OH212018   7.468   3.345   7.462
20517TIP3    H112019   7.462   3.399   7.541
20517TIP3    H212020   7.560   3.319   7.458
20518TIP3   OH212021   7.071   2.819   7.450
20518TIP3    H112022   7.157   2.859   7.439
20518TIP3    H212023   7.063   2.807   7.545
20519TIP3   OH212024   6.696   2.164   7.539
20519TIP3    H112025   6.722   2.078   7.571
20519TIP3    H212026   6.616   2.148   7.489
20520TIP3   OH212027   6.316   2.273   7.398
20520TIP3    H112028   6.246   2.229   7.445
20520TIP3    H212029   6.275   2.350   7.358
20521TIP3   OH212030   5.779   2.289   7.666
20521TIP3    H112031   5.795   2.285   7.760
20521TIP3    H212032   5.730   2.371   7.653
20522TIP3   OH212033   7.537   2.540   7.673
20522TIP3    H112034   7.462   2.596   7.653
20522TIP3    H212035   7.537   2.535   7.769
20523TIP3   OH212036   7.034   3.222   7.497
20523TIP3    H112037   7.070   3.179   7.575
20523TIP3    H212038   6.945   3.187   7.491
20524TIP3   OH212039   7.503   3.674   7.479
20524TIP3    H112040   7.510   3.602   7.543
20524TIP3    H212041   7.444   3.737   7.520
20525TIP3   OH212042   6.541   3.240   7.405
20525TIP3    H112043   6.508   3.182   7.336
20525TIP3    H212044   6.485   3.221   7.481
20526TIP3   OH212045   6.077   3.378   7.526
20526TIP3    H112046   6.146   3.375   7.591
20526TIP3    H212047   6.092   3.301   7.471
20527TIP3   OH212048   6.718   3.453   7.387
20527TIP3    H112049   6.647   3.394   7.412
20527TIP3    H212050   6.687   3.495   7.307
20528TIP3   OH212051   6.185   3.010   7.390
20528TIP3    H112052   6.157   2.919   7.396
20528TIP3    H212053   6.174   3.044   7.479
20529TIP3   OH212054   6.778   3.125   7.474
20529TIP3    H112055   6.701   3.172   7.442
20529TIP3    H212056   6.787   3.051   7.415
20530TIP3   OH212057   6.396   2.651   7.451
20530TIP3    H112058   6.312   2.606   7.440
20530TIP3    H212059   6.392   2.724   7.389
20531TIP3   OH212060   7.326   2.911   7.402
20531TIP3    H112061   7.328   2.890   7.309
20531TIP3    H212062   7.322   3.006   7.406
20532TIP3   OH212063   6.583   3.782   7.564
20532TIP3    H112064   6.594   3.821   7.651
20532TIP3    H212065   6.511   3.719   7.575
20533TIP3   OH212066   5.819   3.262   7.472
20533TIP3    H112067   5.883   3.314   7.521
20533TIP3    H212068   5.816   3.178   7.519
20534TIP3   OH212069   7.333   2.722   7.609
20534TIP3    H112070   7.345   2.796   7.550
20534TIP3    H212071   7.268   2.752   7.673
20535TIP3   OH212072   7.212   2.516   7.461
20535TIP3    H112073   7.250   2.589   7.510
20535TIP3    H212074   7.246   2.527   7.372
20536TIP3   OH212075   7.256   2.163   7.428
20536TIP3    H112076   7.311   2.192   7.355
20536TIP3    H212077   7.202   2.093   7.392
20537TIP3   OH212078   5.777   2.003   7.662
20537TIP3    H112079   5.780   2.096   7.642
20537TIP3    H212080   5.725   1.998   7.743
20538TIP3   OH212081   6.064   2.157   7.494
20538TIP3    H112082   6.117   2.091   7.539
20538TIP3    H212083   5.994   2.178   7.556
20539TIP3   OH212084   6.832   3.669   7.518
20539TIP3    H112085   6.755   3.722   7.538
20539TIP3    H212086   6.797   3.590   7.477
20540TIP3   OH212087   6.079   3.651   7.474
20540TIP3    H112088   6.003   3.669   7.418
20540TIP3    H212089   6.068   3.560   7.501
20541TIP3   OH212090   8.021   2.583   7.495
20541TIP3    H112091   8.045   2.584   7.402
20541TIP3    H212092   8.104   2.576   7.541
20542TIP3   OH212093   8.029   2.174   7.698
20542TIP3    H112094   7.993   2.239   7.758
20542TIP3    H212095   8.002   2.090   7.733
20543TIP3   OH212096   7.925   3.258   7.612
20543TIP3    H112097   7.904   3.238   7.703
20543TIP3    H212098   7.984   3.187   7.585
20544TIP3   OH212099   8.076   3.052   7.438
20544TIP3    H112100   8.113   3.017   7.519
20544TIP3    H212101   0.002   3.044   7.374
20545TIP3   OH212102   7.723   3.244   7.433
20545TIP3    H112103   7.786   3.250   7.505
20545TIP3    H212104   7.714   3.150   7.416
20546TIP3   OH212105   7.901   2.150   7.451
20546TIP3    H112106   7.940   2.068   7.422
20546TIP3    H212107   7.937   2.164   7.539
20547TIP3   OH212108   7.921   3.639   7.418
20547TIP3    H112109   7.858   3.669   7.483
20547TIP3    H212110   7.879   3.564   7.376
20548TIP3   OH212111   1.115   4.606   7.461
20548TIP3    H112112   1.127   4.597   7.555
20548TIP3    H212113   1.171   4.539   7.422
20549TIP3   OH212114   1.298   4.761   7.932
20549TIP3    H112115   1.319   4.668   7.921
20549TIP3    H212116   1.361   4.806   7.876
20550TIP3   OH212117   1.643   3.870   7.619
20550TIP3    H112118   1.680   3.841   7.702
20550TIP3    H212119   1.705   3.935   7.586
20551TIP3   OH212120   1.785   5.327   7.466
20551TIP3    H112121   1.813   5.401   7.520
20551TIP3    H212122   1.861   5.269   7.463
20552TIP3   OH212123   1.406   5.517   7.540
20552TIP3    H112124   1.447   5.442   7.498
20552TIP3    H212125   1.391   5.489   7.631
20553TIP3   OH212126   0.931   4.151   7.518
20553TIP3    H112127   0.885   4.170   7.600
20553TIP3    H212128   0.897   4.066   7.491
20554TIP3   OH212129   0.632   4.191   7.462
20554TIP3    H112130   0.674   4.188   7.548
20554TIP3    H212131   0.610   4.283   7.449
20555TIP3   OH212132   0.470   4.557   7.668
20555TIP3    H112133   0.376   4.549   7.683
20555TIP3    H212134   0.509   4.492   7.727
20556TIP3   OH212135   1.865   5.551   7.624
20556TIP3    H112136   1.911   5.630   7.595
20556TIP3    H212137   1.899   5.535   7.712
20557TIP3   OH212138   0.746   5.178   7.372
20557TIP3    H112139   0.842   5.174   7.364
20557TIP3    H212140   0.732   5.229   7.452
20558TIP3   OH212141   0.385   4.973   7.555
20558TIP3    H112142   0.350   4.906   7.614
20558TIP3    H212143   0.331   5.050   7.572
20559TIP3   OH212144   0.692   5.349   7.587
20559TIP3    H112145   0.743   5.428   7.569
20559TIP3    H212146   0.662   5.361   7.678
20560TIP3   OH212147   0.132   4.486   7.433
20560TIP3    H112148   0.117   4.544   7.508
20560TIP3    H212149   0.178   4.411   7.470
20561TIP3   OH212150   0.985   5.360   7.360
20561TIP3    H112151   0.977   5.412   7.440
20561TIP3    H212152   1.074   5.326   7.361
20562TIP3   OH212153   1.519   5.306   7.394
20562TIP3    H112154   1.601   5.297   7.441
20562TIP3    H212155   1.544   5.332   7.305
20563TIP3   OH212156   0.531   4.997   7.323
20563TIP3    H112157   0.487   4.985   7.407
20563TIP3    H212158   0.609   5.049   7.343
20564TIP3   OH212159   1.077   5.045   7.400
20564TIP3    H112160   1.158   5.046   7.451
20564TIP3    H212161   1.081   4.962   7.352
20565TIP3   OH212162   1.651   4.896   7.389
20565TIP3    H112163   1.643   4.841   7.310
20565TIP3    H212164   1.699   4.842   7.451
20566TIP3   OH212165   0.831   5.576   7.531
20566TIP3    H112166   0.879   5.620   7.601
20566TIP3    H212167   0.785   5.647   7.485
20567TIP3   OH212168   1.768   4.584   7.566
20567TIP3    H112169   1.744   4.618   7.652
20567TIP3    H212170   1.864   4.584   7.567
20568TIP3   OH212171   1.827   4.101   7.553
20568TIP3    H112172   1.840   4.041   7.479
20568TIP3    H212173   1.913   4.108   7.594
20569TIP3   OH212174   0.214   3.875   7.620
20569TIP3    H112175   0.260   3.957   7.604
20569TIP3    H212176   0.149   3.897   7.687
20570TIP3   OH212177   0.377   4.105   7.547
20570TIP3    H112178   0.461   4.118   7.503
20570TIP3    H212179   0.390   4.144   7.634
20571TIP3   OH212180   2.959   4.636   7.464
20571TIP3    H112181   3.011   4.684   7.528
20571TIP3    H212182   3.013   4.562   7.439
20572TIP3   OH212183   3.259   4.651   7.598
20572TIP3    H112184   3.343   4.616   7.629
20572TIP3    H212185   3.230   4.708   7.669
20573TIP3   OH212186   3.195   5.524   7.503
20573TIP3    H112187   3.225   5.441   7.467
20573TIP3    H212188   3.214   5.518   7.596
20574TIP3   OH212189   3.265   4.828   7.383
20574TIP3    H112190   3.297   4.781   7.306
20574TIP3    H212191   3.263   4.762   7.453
20575TIP3   OH212192   2.644   4.181   7.474
20575TIP3    H112193   2.676   4.164   7.562
20575TIP3    H212194   2.564   4.232   7.486
20576TIP3   OH212195   2.435   4.448   7.455
20576TIP3    H112196   2.395   4.470   7.540
20576TIP3    H212197   2.519   4.492   7.456
20577TIP3   OH212198   3.075   4.179   7.566
20577TIP3    H112199   3.038   4.108   7.619
20577TIP3    H212200   2.999   4.226   7.532
20578TIP3   OH212201   3.347   5.054   7.530
20578TIP3    H112202   3.306   5.059   7.616
20578TIP3    H212203   3.307   4.977   7.489
20579TIP3   OH212204   2.622   5.191   7.423
20579TIP3    H112205   2.627   5.125   7.354
20579TIP3    H212206   2.628   5.141   7.505
20580TIP3   OH212207   2.536   5.116   7.692
20580TIP3    H112208   2.490   5.037   7.720
20580TIP3    H212209   2.616   5.117   7.745
20581TIP3   OH212210   2.839   5.371   7.362
20581TIP3    H112211   2.763   5.318   7.385
20581TIP3    H212212   2.906   5.307   7.338
20582TIP3   OH212213   3.295   5.291   7.392
20582TIP3    H112214   3.327   5.214   7.439
20582TIP3    H212215   3.363   5.311   7.329
20583TIP3   OH212216   2.411   4.919   7.375
20583TIP3    H112217   2.414   4.883   7.464
20583TIP3    H212218   2.503   4.932   7.351
20584TIP3   OH212219   2.679   4.585   7.438
20584TIP3    H112220   2.672   4.636   7.357
20584TIP3    H212221   2.770   4.595   7.465
20585TIP3   OH212222   3.710   4.766   7.383
20585TIP3    H112223   3.660   4.685   7.393
20585TIP3    H212224   3.645   4.836   7.395
20586TIP3   OH212225   2.584   5.629   7.482
20586TIP3    H112226   2.594   5.657   7.573
20586TIP3    H212227   2.649   5.680   7.434
20587TIP3   OH212228   2.017   5.143   7.440
20587TIP3    H112229   2.043   5.109   7.525
20587TIP3    H212230   2.007   5.065   7.385
20588TIP3   OH212231   3.576   4.527   7.435
20588TIP3    H112232   3.545   4.540   7.524
20588TIP3    H212233   3.564   4.434   7.418
20589TIP3   OH212234   3.481   4.180   7.310
20589TIP3    H112235   3.533   4.138   7.378
20589TIP3    H212236   3.391   4.151   7.327
20590TIP3   OH212237   3.685   4.071   7.466
20590TIP3    H112238   3.714   4.006   7.529
20590TIP3    H212239   3.726   4.153   7.495
20591TIP3   OH212240   2.170   4.110   7.514
20591TIP3    H112241   2.190   4.030   7.563
20591TIP3    H212242   2.171   4.179   7.581
20592TIP3   OH212243   2.921   5.579   7.540
20592TIP3    H112244   3.014   5.568   7.518
20592TIP3    H212245   2.875   5.516   7.484
20593TIP3   OH212246   4.843   4.591   7.534
20593TIP3    H112247   4.880   4.589   7.622
20593TIP3    H212248   4.883   4.516   7.489
20594TIP3   OH212249   5.345   3.847   7.647
20594TIP3    H112250   5.392   3.820   7.726
20594TIP3    H212251   5.398   3.919   7.611
20595TIP3   OH212252   5.527   5.221   7.422
20595TIP3    H112253   5.528   5.292   7.486
20595TIP3    H212254   5.617   5.188   7.420
20596TIP3   OH212255   5.288   4.836   7.396
20596TIP3    H112256   5.234   4.790   7.332
20596TIP3    H212257   5.267   4.794   7.480
20597TIP3   OH212258   4.790   4.099   7.480
20597TIP3    H112259   4.750   4.158   7.544
20597TIP3    H212260   4.716   4.059   7.434
20598TIP3   OH212261   3.816   4.270   7.606
20598TIP3    H112262   3.842   4.203   7.669
20598TIP3    H212263   3.752   4.324   7.654
20599TIP3   OH212264   4.264   4.546   7.534
20599TIP3    H112265   4.179   4.504   7.550
20599TIP3    H212266   4.299   4.562   7.622
20600TIP3   OH212267   5.649   4.313   7.654
20600TIP3    H112268   5.583   4.375   7.622
20600TIP3    H212269   5.684   4.355   7.733
20601TIP3   OH212270   3.946   4.683   7.493
20601TIP3    H112271   3.977   4.749   7.555
20601TIP3    H212272   3.860   4.715   7.465
20602TIP3   OH212273   5.512   5.426   7.612
20602TIP3    H112274   5.575   5.498   7.607
20602TIP3    H212275   5.505   5.405   7.705
20603TIP3   OH212276   4.624   5.187   7.432
20603TIP3    H112277   4.584   5.116   7.381
20603TIP3    H212278   4.600   5.167   7.522
20604TIP3   OH212279   4.037   4.862   7.678
20604TIP3    H112280   4.100   4.829   7.742
20604TIP3    H212281   4.062   4.953   7.666
20605TIP3   OH212282   4.115   5.117   7.510
20605TIP3    H112283   4.171   5.184   7.549
20605TIP3    H212284   4.175   5.061   7.462
20606TIP3   OH212285   4.010   4.420   7.478
20606TIP3    H112286   3.979   4.511   7.487
20606TIP3    H212287   3.940   4.367   7.516
20607TIP3   OH212288   4.801   5.398   7.406
20607TIP3    H112289   4.734   5.332   7.422
20607TIP3    H212290   4.881   5.348   7.387
20608TIP3   OH212291   4.302   4.927   7.389
20608TIP3    H112292   4.315   4.868   7.463
20608TIP3    H212293   4.390   4.943   7.355
20609TIP3   OH212294   4.883   5.078   7.378
20609TIP3    H112295   4.793   5.095   7.406
20609TIP3    H212296   4.890   4.982   7.377
20610TIP3   OH212297   4.559   4.587   7.509
20610TIP3    H112298   4.653   4.595   7.521
20610TIP3    H212299   4.522   4.593   7.597
20611TIP3   OH212300   5.546   4.889   7.293
20611TIP3    H112301   5.467   4.874   7.345
20611TIP3    H212302   5.529   4.970   7.244
20612TIP3   OH212303   3.828   5.145   7.495
20612TIP3    H112304   3.916   5.164   7.528
20612TIP3    H212305   3.842   5.077   7.429
20613TIP3   OH212306   5.665   4.695   7.536
20613TIP3    H112307   5.585   4.727   7.577
20613TIP3    H212308   5.729   4.691   7.608
20614TIP3   OH212309   5.465   4.411   7.438
20614TIP3    H112310   5.409   4.468   7.490
20614TIP3    H212311   5.406   4.350   7.395
20615TIP3   OH212312   5.311   4.186   7.331
20615TIP3    H112313   5.358   4.147   7.405
20615TIP3    H212314   5.221   4.156   7.342
20616TIP3   OH212315   5.477   4.086   7.533
20616TIP3    H112316   5.528   4.019   7.487
20616TIP3    H212317   5.543   4.144   7.571
20617TIP3   OH212318   3.856   3.925   7.626
20617TIP3    H112319   3.925   3.883   7.574
20617TIP3    H212320   3.881   3.907   7.717
20618TIP3   OH212321   4.116   5.557   7.493
20618TIP3    H112322   4.022   5.572   7.502
20618TIP3    H212323   4.143   5.520   7.577
20619TIP3   OH212324   6.698   4.597   7.575
20619TIP3    H112325   6.724   4.655   7.647
20619TIP3    H212326   6.774   4.596   7.517
20620TIP3   OH212327   7.193   4.859   7.767
20620TIP3    H112328   7.201   4.764   7.758
20620TIP3    H212329   7.106   4.873   7.804
20621TIP3   OH212330   7.236   3.809   7.631
20621TIP3    H112331   7.281   3.767   7.704
20621TIP3    H212332   7.298   3.873   7.597
20622TIP3   OH212333   7.407   5.262   7.549
20622TIP3    H112334   7.430   5.354   7.533
20622TIP3    H212335   7.462   5.236   7.623
20623TIP3   OH212336   6.939   5.557   7.529
20623TIP3    H112337   6.984   5.474   7.514
20623TIP3    H212338   6.938   5.567   7.624
20624TIP3   OH212339   7.079   4.812   7.387
20624TIP3    H112340   7.068   4.753   7.312
20624TIP3    H212341   7.172   4.804   7.409
20625TIP3   OH212342   6.355   4.317   7.565
20625TIP3    H112343   6.313   4.246   7.614
20625TIP3    H212344   6.314   4.314   7.479
20626TIP3   OH212345   7.020   5.059   7.606
20626TIP3    H112346   7.080   5.004   7.657
20626TIP3    H212347   6.938   5.056   7.655
20627TIP3   OH212348   7.483   5.526   7.548
20627TIP3    H112349   7.570   5.540   7.585
20627TIP3    H212350   7.430   5.598   7.582
20628TIP3   OH212351   6.520   5.141   7.380
20628TIP3    H112352   6.516   5.067   7.321
20628TIP3    H212353   6.428   5.162   7.399
20629TIP3   OH212354   6.255   4.149   7.755
20629TIP3    H112355   6.201   4.145   7.834
20629TIP3    H212356   6.343   4.128   7.785
20630TIP3   OH212357   5.735   4.369   7.389
20630TIP3    H112358   5.752   4.341   7.479
20630TIP3    H212359   5.643   4.395   7.388
20631TIP3   OH212360   6.639   5.394   7.373
20631TIP3    H112361   6.594   5.310   7.385
20631TIP3    H212362   6.726   5.370   7.342
20632TIP3   OH212363   7.092   5.329   7.409
20632TIP3    H112364   7.150   5.288   7.473
20632TIP3    H212365   7.150   5.354   7.337
20633TIP3   OH212366   6.279   4.979   7.425
20633TIP3    H112367   6.192   4.948   7.400
20633TIP3    H212368   6.337   4.946   7.357
20634TIP3   OH212369   6.800   5.044   7.349
20634TIP3    H112370   6.717   5.066   7.391
20634TIP3    H212371   6.786   4.957   7.311
20635TIP3   OH212372   6.431   4.642   7.510
20635TIP3    H112373   6.425   4.645   7.414
20635TIP3    H212374   6.524   4.634   7.527
20636TIP3   OH212375   7.352   4.830   7.395
20636TIP3    H112376   7.377   4.788   7.313
20636TIP3    H212377   7.425   4.810   7.454
20637TIP3   OH212378   6.365   5.596   7.501
20637TIP3    H112379   6.374   5.542   7.579
20637TIP3    H212380   6.426   5.669   7.515
20638TIP3   OH212381   5.796   5.138   7.438
20638TIP3    H112382   5.805   5.128   7.533
20638TIP3    H212383   5.805   5.049   7.404
20639TIP3   OH212384   7.522   4.795   7.616
20639TIP3    H112385   7.457   4.744   7.663
20639TIP3    H212386   7.547   4.865   7.677
20640TIP3   OH212387   7.416   4.400   7.405
20640TIP3    H112388   7.386   4.382   7.495
20640TIP3    H212389   7.345   4.368   7.350
20641TIP3   OH212390   7.236   4.168   7.412
20641TIP3    H112391   7.244   4.214   7.496
20641TIP3    H212392   7.142   4.148   7.405
20642TIP3   OH212393   7.448   3.952   7.522
20642TIP3    H112394   7.538   3.935   7.549
20642TIP3    H212395   7.444   4.046   7.510
20643TIP3   OH212396   5.972   5.545   7.449
20643TIP3    H112397   5.986   5.507   7.536
20643TIP3    H212398   6.047   5.517   7.397
20644TIP3   OH212399   7.988   4.496   7.457
20644TIP3    H112400   8.069   4.469   7.413
20644TIP3    H212401   8.018   4.544   7.534
20645TIP3   OH212402   7.728   4.694   7.463
20645TIP3    H112403   7.801   4.734   7.510
20645TIP3    H212404   7.650   4.720   7.512
20646TIP3   OH212405   7.852   4.879   7.661
20646TIP3    H112406   7.761   4.868   7.687
20646TIP3    H212407   7.863   4.974   7.652
20647TIP3   OH212408   0.004   4.125   7.638
20647TIP3    H112409   0.029   4.197   7.697
20647TIP3    H212410   8.141   4.049   7.696
20648TIP3   OH212411   7.904   5.235   7.494
20648TIP3    H112412   7.861   5.214   7.576
20648TIP3    H212413   7.959   5.159   7.475
20649TIP3   OH212414   7.752   4.361   7.380
20649TIP3    H112415   7.825   4.413   7.412
20649TIP3    H212416   7.675   4.397   7.426
20650TIP3   OH212417   8.053   4.988   7.403
20650TIP3    H112418   8.024   4.918   7.462
20650TIP3    H212419   8.131   4.952   7.360
20651TIP3   OH212420   7.716   3.912   7.599
20651TIP3    H112421   7.795   3.948   7.559
20651TIP3    H212422   7.747   3.866   7.677
20652TIP3   OH212423   7.952   4.003   7.472
20652TIP3    H112424   8.025   3.943   7.491
20652TIP3    H212425   7.980   4.086   7.510
20653TIP3   OH212426   7.875   5.518   7.471
20653TIP3    H112427   7.882   5.552   7.560
20653TIP3    H212428   7.890   5.424   7.480
20654TIP3   OH212429   1.030   6.520   7.521
20654TIP3    H112430   1.059   6.552   7.606
20654TIP3    H212431   1.097   6.456   7.495
20655TIP3   OH212432   1.747   7.155   7.401
20655TIP3    H112433   1.778   7.238   7.437
20655TIP3    H212434   1.826   7.103   7.388
20656TIP3   OH212435   1.378   6.580   7.350
20656TIP3    H112436   1.401   6.601   7.260
20656TIP3    H212437   1.457   6.601   7.400
20657TIP3   OH212438   0.695   6.066   7.431
20657TIP3    H112439   0.690   6.039   7.523
20657TIP3    H212440   0.638   6.142   7.425
20658TIP3   OH212441   0.179   6.308   7.723
20658TIP3    H112442   0.232   6.369   7.774
20658TIP3    H212443   0.172   6.230   7.778
20659TIP3   OH212444   0.545   6.303   7.409
20659TIP3    H112445   0.518   6.335   7.323
20659TIP3    H212446   0.625   6.351   7.429
20660TIP3   OH212447   1.233   6.071   7.547
20660TIP3    H112448   1.172   6.009   7.586
20660TIP3    H212449   1.233   6.146   7.608
20661TIP3   OH212450   0.165   6.690   7.573
20661TIP3    H112451   0.227   6.674   7.645
20661TIP3    H212452   0.092   6.736   7.614
20662TIP3   OH212453   1.379   7.014   7.535
20662TIP3    H112454   1.368   6.979   7.623
20662TIP3    H212455   1.300   6.986   7.488
20663TIP3   OH212456   1.883   7.368   7.497
20663TIP3    H112457   1.956   7.398   7.443
20663TIP3    H212458   1.925   7.319   7.569
20664TIP3   OH212459   0.759   7.094   7.387
20664TIP3    H112460   0.751   7.006   7.350
20664TIP3    H212461   0.719   7.086   7.474
20665TIP3   OH212462   0.576   5.992   7.677
20665TIP3    H112463   0.560   6.026   7.765
20665TIP3    H212464   0.658   5.943   7.685
20666TIP3   OH212465   0.269   6.307   7.457
20666TIP3    H112466   0.363   6.290   7.457
20666TIP3    H212467   0.242   6.297   7.548
20667TIP3   OH212468   0.977   7.280   7.385
20667TIP3    H112469   0.911   7.212   7.400
20667TIP3    H212470   1.043   7.265   7.453
20668TIP3   OH212471   1.479   7.232   7.402
20668TIP3    H112472   1.440   7.167   7.460
20668TIP3    H212473   1.573   7.215   7.406
20669TIP3   OH212474   1.139   6.959   7.405
20669TIP3    H112475   1.077   6.959   7.478
20669TIP3    H212476   1.134   6.870   7.370
20670TIP3   OH212477   0.778   6.444   7.425
20670TIP3    H112478   0.792   6.491   7.343
20670TIP3    H212479   0.859   6.457   7.474
20671TIP3   OH212480   1.650   6.652   7.415
20671TIP3    H112481   1.672   6.633   7.324
20671TIP3    H212482   1.634   6.747   7.417
20672TIP3   OH212483   0.729   7.476   7.510
20672TIP3    H112484   0.715   7.425   7.589
20672TIP3    H212485   0.816   7.513   7.520
20673TIP3   OH212486   0.226   6.995   7.418
20673TIP3    H112487   0.188   6.994   7.506
20673TIP3    H212488   0.188   6.920   7.374
20674TIP3   OH212489   1.858   6.646   7.607
20674TIP3    H112490   1.787   6.642   7.543
20674TIP3    H212491   1.883   6.738   7.609
20675TIP3   OH212492   1.616   6.285   7.499
20675TIP3    H112493   1.711   6.295   7.492
20675TIP3    H212494   1.595   6.215   7.437
20676TIP3   OH212495   1.551   6.095   7.305
20676TIP3    H112496   1.618   6.041   7.263
20676TIP3    H212497   1.471   6.042   7.301
20677TIP3   OH212498   0.385   5.923   7.486
20677TIP3    H112499   0.337   5.864   7.544
20677TIP3    H212500   0.457   5.955   7.539
20678TIP3   OH212501   0.324   7.454   7.367
20678TIP3    H112502   0.294   7.464   7.457
20678TIP3    H212503   0.401   7.397   7.373
20679TIP3   OH212504   3.012   6.507   7.415
20679TIP3    H112505   3.043   6.596   7.431
20679TIP3    H212506   2.950   6.490   7.485
20680TIP3   OH212507   3.691   7.176   7.427
20680TIP3    H112508   3.700   7.264   7.462
20680TIP3    H212509   3.779   7.138   7.433
20681TIP3   OH212510   3.335   6.672   7.473
20681TIP3    H112511   3.247   6.708   7.462
20681TIP3    H212512   3.349   6.671   7.568
20682TIP3   OH212513   2.934   6.024   7.469
20682TIP3    H112514   3.004   6.026   7.534
20682TIP3    H212515   2.897   5.936   7.475
20683TIP3   OH212516   2.559   6.061   7.396
20683TIP3    H112517   2.542   6.025   7.483
20683TIP3    H212518   2.513   6.146   7.396
20684TIP3   OH212519   2.107   6.535   7.526
20684TIP3    H112520   2.176   6.587   7.566
20684TIP3    H212521   2.026   6.569   7.565
20685TIP3   OH212522   3.700   7.426   7.550
20685TIP3    H112523   3.780   7.470   7.578
20685TIP3    H212524   3.669   7.380   7.628
20686TIP3   OH212525   2.650   7.090   7.370
20686TIP3    H112526   2.673   7.004   7.336
20686TIP3    H212527   2.640   7.077   7.464
20687TIP3   OH212528   2.287   6.715   7.649
20687TIP3    H112529   2.281   6.810   7.661
20687TIP3    H212530   2.371   6.691   7.689
20688TIP3   OH212531   2.511   5.954   7.645
20688TIP3    H112532   2.538   6.015   7.713
20688TIP3    H212533   2.546   5.870   7.672
20689TIP3   OH212534   2.044   6.259   7.506
20689TIP3    H112535   2.066   6.352   7.512
20689TIP3    H212536   2.050   6.228   7.597
20690TIP3   OH212537   2.886   7.231   7.381
20690TIP3    H112538   2.797   7.195   7.385
20690TIP3    H212539   2.943   7.153   7.380
20691TIP3   OH212540   3.359   7.205   7.343
20691TIP3    H112541   3.313   7.232   7.423
20691TIP3    H212542   3.405   7.126   7.367
20692TIP3   OH212543   2.438   6.788   7.337
20692TIP3    H112544   2.426   6.772   7.430
20692TIP3    H212545   2.530   6.812   7.327
20693TIP3   OH212546   3.544   6.760   7.313
20693TIP3    H112547   3.478   6.706   7.356
20693TIP3    H212548   3.532   6.848   7.351
20694TIP3   OH212549   2.620   7.489   7.460
20694TIP3    H112550   2.699   7.508   7.510
20694TIP3    H212551   2.548   7.523   7.513
20695TIP3   OH212552   1.988   7.033   7.360
20695TIP3    H112553   2.049   7.053   7.432
20695TIP3    H212554   2.007   6.942   7.336
20696TIP3   OH212555   3.774   6.614   7.643
20696TIP3    H112556   3.708   6.667   7.688
20696TIP3    H212557   3.841   6.598   7.710
20697TIP3   OH212558   3.669   6.305   7.362
20697TIP3    H112559   3.644   6.370   7.428
20697TIP3    H212560   3.604   6.236   7.371
20698TIP3   OH212561   3.506   6.069   7.361
20698TIP3    H112562   3.546   6.022   7.434
20698TIP3    H212563   3.412   6.051   7.370
20699TIP3   OH212564   3.663   5.926   7.568
20699TIP3    H112565   3.626   5.865   7.632
20699TIP3    H212566   3.717   5.986   7.619
20700TIP3   OH212567   1.993   5.790   7.551
20700TIP3    H112568   2.079   5.827   7.536
20700TIP3    H212569   1.950   5.850   7.612
20701TIP3   OH212570   2.253   5.889   7.472
20701TIP3    H112571   2.301   5.832   7.413
20701TIP3    H212572   2.317   5.911   7.541
20702TIP3   OH212573   2.944   7.448   7.552
20702TIP3    H112574   3.018   7.413   7.602
20702TIP3    H212575   2.922   7.379   7.489
20703TIP3   OH212576   2.236   7.438   7.447
20703TIP3    H112577   2.286   7.487   7.512
20703TIP3    H212578   2.295   7.367   7.420
20704TIP3   OH212579   5.581   7.154   7.515
20704TIP3    H112580   5.591   7.247   7.538
20704TIP3    H212581   5.640   7.108   7.574
20705TIP3   OH212582   5.126   6.582   7.332
20705TIP3    H112583   5.151   6.595   7.240
20705TIP3    H212584   5.201   6.612   7.382
20706TIP3   OH212585   4.843   5.931   7.526
20706TIP3    H112586   4.806   5.989   7.593
20706TIP3    H212587   4.782   5.937   7.453
20707TIP3   OH212588   4.426   6.028   7.396
20707TIP3    H112589   4.424   6.043   7.490
20707TIP3    H212590   4.334   6.029   7.370
20708TIP3   OH212591   4.233   6.367   7.497
20708TIP3    H112592   4.189   6.292   7.537
20708TIP3    H212593   4.185   6.443   7.531
20709TIP3   OH212594   5.086   6.148   7.546
20709TIP3    H112595   5.023   6.098   7.599
20709TIP3    H212596   5.150   6.181   7.610
20710TIP3   OH212597   4.837   6.960   7.671
20710TIP3    H112598   4.896   7.019   7.717
20710TIP3    H212599   4.820   6.889   7.732
20711TIP3   OH212600   3.965   6.561   7.454
20711TIP3    H112601   4.029   6.616   7.499
20711TIP3    H212602   3.887   6.566   7.509
20712TIP3   OH212603   5.175   7.035   7.536
20712TIP3    H112604   5.136   7.061   7.619
20712TIP3    H212605   5.103   6.995   7.487
20713TIP3   OH212606   5.611   7.422   7.597
20713TIP3    H112607   5.683   7.446   7.655
20713TIP3    H212608   5.543   7.487   7.613
20714TIP3   OH212609   4.600   7.055   7.354
20714TIP3    H112610   4.580   6.967   7.323
20714TIP3    H212611   4.552   7.063   7.436
20715TIP3   OH212612   4.477   7.083   7.594
20715TIP3    H112613   4.538   7.075   7.668
20715TIP3    H212614   4.415   7.150   7.622
20716TIP3   OH212615   4.155   6.691   7.607
20716TIP3    H112616   4.104   6.651   7.678
20716TIP3    H212617   4.143   6.786   7.620
20717TIP3   OH212618   4.392   6.046   7.665
20717TIP3    H112619   4.334   6.063   7.739
20717TIP3    H212620   4.419   5.954   7.677
20718TIP3   OH212621   4.167   6.973   7.573
20718TIP3    H112622   4.214   7.053   7.597
20718TIP3    H212623   4.213   6.941   7.496
20719TIP3   OH212624   4.762   7.274   7.359
20719TIP3    H112625   4.712   7.192   7.361
20719TIP3    H212626   4.774   7.297   7.451
20720TIP3   OH212627   5.256   7.250   7.381
20720TIP3    H112628   5.229   7.183   7.444
20720TIP3    H212629   5.352   7.247   7.383
20721TIP3   OH212630   4.280   6.825   7.370
20721TIP3    H112631   4.270   6.754   7.434
20721TIP3    H212632   4.370   6.817   7.339
20722TIP3   OH212633   4.940   6.964   7.413
20722TIP3    H112634   4.888   6.962   7.494
20722TIP3    H212635   4.914   6.884   7.366
20723TIP3   OH212636   5.383   6.677   7.387
20723TIP3    H112637   5.412   6.672   7.296
20723TIP3    H212638   5.393   6.770   7.410
20724TIP3   OH212639   3.941   7.049   7.421
20724TIP3    H112640   4.000   7.028   7.493
20724TIP3    H212641   3.915   6.964   7.386
20725TIP3   OH212642   5.607   6.580   7.516
20725TIP3    H112643   5.520   6.594   7.479
20725TIP3    H212644   5.633   6.665   7.550
20726TIP3   OH212645   5.469   6.257   7.433
20726TIP3    H112646   5.444   6.317   7.504
20726TIP3    H212647   5.427   6.294   7.355
20727TIP3   OH212648   5.370   6.004   7.385
20727TIP3    H112649   5.395   6.091   7.414
20727TIP3    H212650   5.278   6.011   7.363
20728TIP3   OH212651   6.765   6.501   7.460
20728TIP3    H112652   6.826   6.497   7.534
20728TIP3    H212653   6.680   6.476   7.497
20729TIP3   OH212654   6.985   6.485   7.635
20729TIP3    H112655   7.030   6.518   7.712
20729TIP3    H212656   7.021   6.536   7.562
20730TIP3   OH212657   7.359   5.718   7.709
20730TIP3    H112658   7.287   5.699   7.770
20730TIP3    H212659   7.432   5.742   7.766
20731TIP3   OH212660   7.465   7.207   7.434
20731TIP3    H112661   7.481   7.298   7.458
20731TIP3    H212662   7.543   7.160   7.462
20732TIP3   OH212663   7.062   6.620   7.410
20732TIP3    H112664   7.084   6.611   7.318
20732TIP3    H212665   7.102   6.703   7.436
20733TIP3   OH212666   6.366   6.082   7.422
20733TIP3    H112667   6.351   6.138   7.499
20733TIP3    H212668   6.287   6.093   7.369
20734TIP3   OH212669   5.715   6.126   7.614
20734TIP3    H112670   5.760   6.185   7.553
20734TIP3    H212671   5.664   6.185   7.670
20735TIP3   OH212672   7.091   6.237   7.692
20735TIP3    H112673   7.066   6.236   7.785
20735TIP3    H212674   7.052   6.317   7.657
20736TIP3   OH212675   5.878   6.561   7.475
20736TIP3    H112676   5.914   6.636   7.523
20736TIP3    H212677   5.783   6.567   7.490
20737TIP3   OH212678   7.444   7.474   7.496
20737TIP3    H112679   7.521   7.531   7.488
20737TIP3    H212680   7.405   7.499   7.580
20738TIP3   OH212681   6.116   7.194   7.494
20738TIP3    H112682   6.126   7.171   7.586
20738TIP3    H212683   6.088   7.113   7.452
20739TIP3   OH212684   5.820   6.293   7.426
20739TIP3    H112685   5.861   6.376   7.450
20739TIP3    H212686   5.733   6.318   7.394
20740TIP3   OH212687   6.235   6.826   7.332
20740TIP3    H112688   6.229   6.769   7.409
20740TIP3    H212689   6.325   6.857   7.332
20741TIP3   OH212690   6.707   6.975   7.378
20741TIP3    H112691   6.624   6.962   7.332
20741TIP3    H212692   6.752   6.891   7.369
20742TIP3   OH212693   6.277   6.673   7.556
20742TIP3    H112694   6.277   6.743   7.621
20742TIP3    H212695   6.258   6.593   7.605
20743TIP3   OH212696   6.596   7.630   7.607
20743TIP3    H112697   6.566   7.688   7.676
20743TIP3    H212698   6.564   7.670   7.526
20744TIP3   OH212699   7.503   6.530   7.527
20744TIP3    H112700   7.440   6.466   7.495
20744TIP3    H212701   7.468   6.559   7.611
20745TIP3   OH212702   7.301   6.326   7.430
20745TIP3    H112703   7.288   6.362   7.342
20745TIP3    H212704   7.253   6.243   7.429
20746TIP3   OH212705   7.219   6.029   7.318
20746TIP3    H112706   7.278   5.957   7.338
20746TIP3    H212707   7.237   6.050   7.226
20747TIP3   OH212708   6.025   5.945   7.558
20747TIP3    H112709   6.078   5.934   7.479
20747TIP3    H212710   6.065   6.018   7.604
20748TIP3   OH212711   6.825   7.481   7.581
20748TIP3    H112712   6.868   7.498   7.665
20748TIP3    H212713   6.744   7.531   7.585
20749TIP3   OH212714   5.952   7.428   7.496
20749TIP3    H112715   5.918   7.447   7.583
20749TIP3    H212716   5.998   7.345   7.505
20750TIP3   OH212717   8.092   6.357   7.580
20750TIP3    H112718   8.046   6.276   7.600
20750TIP3    H212719   0.030   6.351   7.629
20751TIP3   OH212720   7.775   6.579   7.534
20751TIP3    H112721   7.801   6.648   7.594
20751TIP3    H212722   7.679   6.575   7.543
20752TIP3   OH212723   8.100   5.979   7.713
20752TIP3    H112724   8.026   6.024   7.753
20752TIP3    H212725   8.127   5.914   7.777
20753TIP3   OH212726   7.804   6.315   7.444
20753TIP3    H112727   7.791   6.398   7.490
20753TIP3    H212728   7.778   6.248   7.508
20754TIP3   OH212729   8.057   6.733   7.392
20754TIP3    H112730   8.058   6.771   7.479
20754TIP3    H212731   8.135   6.768   7.349
20755TIP3   OH212732   7.719   7.057   7.434
20755TIP3    H112733   7.777   7.042   7.509
20755TIP3    H212734   7.701   6.969   7.400
20756TIP3   OH212735   7.929   5.912   7.501
20756TIP3    H112736   7.861   5.888   7.564
20756TIP3    H212737   8.002   5.942   7.555
20757TIP3   OH212738   7.907   7.410   7.400
20757TIP3    H112739   7.893   7.404   7.494
20757TIP3    H212740   7.925   7.320   7.372
20758TIP3   OH212741   1.666   7.740   7.703
20758TIP3    H112742   1.596   7.710   7.761
20758TIP3    H212743   1.705   7.814   7.750
20759TIP3   OH212744   1.021   7.933   7.517
20759TIP3    H112745   0.970   7.982   7.582
20759TIP3    H212746   0.959   7.872   7.479
20760TIP3   OH212747   0.584   7.903   7.496
20760TIP3    H112748   0.598   7.950   7.579
20760TIP3    H212749   0.491   7.882   7.496
20761TIP3   OH212750   1.305   7.918   7.502
20761TIP3    H112751   1.209   7.926   7.500
20761TIP3    H212752   1.324   7.877   7.586
20762TIP3   OH212753   1.597   7.900   7.446
20762TIP3    H112754   1.640   7.969   7.496
20762TIP3    H212755   1.503   7.913   7.462
20763TIP3   OH212756   1.919   7.791   7.542
20763TIP3    H112757   1.967   7.749   7.614
20763TIP3    H212758   1.971   7.868   7.520
20764TIP3   OH212759   2.873   7.913   7.553
20764TIP3    H112760   2.802   7.968   7.585
20764TIP3    H212761   2.835   7.864   7.480
20765TIP3   OH212762   2.482   7.932   7.366
20765TIP3    H112763   2.469   7.917   7.459
20765TIP3    H212764   2.432   7.861   7.324
20766TIP3   OH212765   2.101   7.999   7.513
20766TIP3    H112766   2.182   7.983   7.563
20766TIP3    H212767   2.047   8.051   7.573
20767TIP3   OH212768   3.146   7.993   7.578
20767TIP3    H112769   3.054   7.972   7.588
20767TIP3    H212770   3.177   8.009   7.668
20768TIP3   OH212771   3.509   7.934   7.343
20768TIP3    H112772   3.506   8.023   7.380
20768TIP3    H212773   3.417   7.907   7.338
20769TIP3   OH212774   5.387   7.613   7.630
20769TIP3    H112775   5.396   7.611   7.725
20769TIP3    H212776   5.293   7.599   7.615
20770TIP3   OH212777   4.728   7.962   7.524
20770TIP3    H112778   4.720   8.024   7.597
20770TIP3    H212779   4.701   7.878   7.561
20771TIP3   OH212780   3.819   8.058   7.647
20771TIP3    H112781   3.833   8.125   7.580
20771TIP3    H212782   3.794   8.107   7.725
20772TIP3   OH212783   5.000   7.918   7.566
20772TIP3    H112784   4.908   7.934   7.545
20772TIP3    H212785   4.998   7.849   7.633
20773TIP3   OH212786   5.370   7.826   7.292
20773TIP3    H112787   5.387   7.819   7.386
20773TIP3    H212788   5.277   7.846   7.286
20774TIP3   OH212789   3.935   7.546   7.634
20774TIP3    H112790   3.965   7.455   7.627
20774TIP3    H212791   4.005   7.590   7.683
20775TIP3   OH212792   6.293   7.901   7.385
20775TIP3    H112793   6.295   7.900   7.481
20775TIP3    H212794   6.214   7.852   7.362
20776TIP3   OH212795   6.279   7.856   7.654
20776TIP3    H112796   6.214   7.844   7.723
20776TIP3    H212797   6.363   7.847   7.699
20777TIP3   OH212798   7.249   7.952   7.425
20777TIP3    H112799   7.326   7.903   7.453
20777TIP3    H212800   7.245   8.027   7.485
20778TIP3   OH212801   7.495   7.847   7.493
20778TIP3    H112802   7.547   7.771   7.518
20778TIP3    H212803   7.534   7.920   7.542
20779TIP3   OH212804   7.632   8.035   7.632
20779TIP3    H112805   7.642   8.130   7.625
20779TIP3    H212806   7.696   8.009   7.698
20780TIP3   OH212807   8.027   8.008   7.582
20780TIP3    H112808   8.122   8.009   7.593
20780TIP3    H212809   7.994   7.965   7.661
20781TIP3   OH212810   7.682   7.635   7.492
20781TIP3    H112811   7.745   7.703   7.466
20781TIP3    H212812   7.728   7.586   7.561
20782TIP3   OH212813   7.885   7.809   7.442
20782TIP3    H112814   7.956   7.748   7.424
20782TIP3    H212815   7.917   7.863   7.514
20783TIP3   OH212816   1.041   0.777   5.273
20783TIP3    H112817   1.070   0.799   5.361
20783TIP3    H212818   1.101   0.708   5.244
20784TIP3   OH212819   1.802   0.019   5.431
20784TIP3    H112820   1.709   0.000   5.434
20784TIP3    H212821   1.811   0.087   5.364
20785TIP3   OH212822   1.735   1.504   5.397
20785TIP3    H112823   1.775   1.587   5.374
20785TIP3    H212824   1.808   1.442   5.399
20786TIP3   OH212825   1.332   1.758   5.297
20786TIP3    H112826   1.407   1.701   5.280
20786TIP3    H212827   1.320   1.754   5.392
20787TIP3   OH212828   1.452   0.959   5.244
20787TIP3    H112829   1.409   1.021   5.185
20787TIP3    H212830   1.545   0.981   5.240
20788TIP3   OH212831   1.006   0.395   5.349
20788TIP3    H112832   1.006   0.390   5.444
20788TIP3    H212833   0.930   0.344   5.322
20789TIP3   OH212834   0.584   0.640   5.369
20789TIP3    H112835   0.554   0.595   5.290
20789TIP3    H212836   0.647   0.705   5.338
20790TIP3   OH212837   1.203   0.551   5.241
20790TIP3    H112838   1.136   0.490   5.270
20790TIP3    H212839   1.253   0.571   5.320
20791TIP3   OH212840   1.319   0.616   5.484
20791TIP3    H112841   1.328   0.539   5.540
20791TIP3    H212842   1.406   0.655   5.482
20792TIP3   OH212843   0.197   0.887   5.359
20792TIP3    H112844   0.261   0.955   5.336
20792TIP3    H212845   0.167   0.911   5.447
20793TIP3   OH212846   1.296   1.382   5.270
20793TIP3    H112847   1.387   1.362   5.289
20793TIP3    H212848   1.249   1.359   5.351
20794TIP3   OH212849   1.859   1.735   5.308
20794TIP3    H112850   1.936   1.793   5.315
20794TIP3    H212851   1.785   1.792   5.331
20795TIP3   OH212852   0.331   1.335   5.274
20795TIP3    H112853   0.364   1.331   5.364
20795TIP3    H212854   0.383   1.404   5.232
20796TIP3   OH212855   0.206   0.713   5.145
20796TIP3    H112856   0.211   0.767   5.224
20796TIP3    H212857   0.178   0.627   5.176
20797TIP3   OH212858   0.771   0.818   5.265
20797TIP3    H112859   0.734   0.827   5.178
20797TIP3    H212860   0.865   0.806   5.251
20798TIP3   OH212861   0.783   1.910   5.297
20798TIP3    H112862   0.835   1.832   5.277
20798TIP3    H212863   0.760   1.945   5.211
20799TIP3   OH212864   0.061   1.259   5.237
20799TIP3    H112865   0.147   1.297   5.253
20799TIP3    H212866   0.062   1.233   5.146
20800TIP3   OH212867   1.645   0.643   5.230
20800TIP3    H112868   1.584   0.687   5.170
20800TIP3    H212869   1.656   0.555   5.193
20801TIP3   OH212870   1.829   0.194   5.223
20801TIP3    H112871   1.774   0.190   5.145
20801TIP3    H212872   1.915   0.221   5.191
20802TIP3   OH212873   0.197   0.173   5.337
20802TIP3    H112874   0.276   0.225   5.328
20802TIP3    H212875   0.129   0.236   5.359
20803TIP3   OH212876   0.412   0.333   5.285
20803TIP3    H112877   0.443   0.393   5.217
20803TIP3    H212878   0.477   0.342   5.355
20804TIP3   OH212879   0.390   1.739   5.268
20804TIP3    H112880   0.337   1.752   5.347
20804TIP3    H212881   0.440   1.819   5.258
20805TIP3   OH212882   2.912   0.769   5.272
20805TIP3    H112883   2.928   0.787   5.365
20805TIP3    H212884   2.979   0.706   5.248
20806TIP3   OH212885   3.605   0.069   5.375
20806TIP3    H112886   3.567   8.137   5.421
20806TIP3    H212887   3.564   0.145   5.416
20807TIP3   OH212888   3.664   1.520   5.313
20807TIP3    H112889   3.687   1.613   5.312
20807TIP3    H212890   3.650   1.500   5.406
20808TIP3   OH212891   3.206   1.767   5.349
20808TIP3    H112892   3.277   1.703   5.345
20808TIP3    H212893   3.185   1.775   5.442
20809TIP3   OH212894   3.312   0.944   5.142
20809TIP3    H112895   3.276   1.026   5.108
20809TIP3    H212896   3.397   0.968   5.179
20810TIP3   OH212897   2.909   0.388   5.349
20810TIP3    H112898   2.915   0.375   5.443
20810TIP3    H212899   2.840   0.328   5.320
20811TIP3   OH212900   2.398   0.692   5.340
20811TIP3    H112901   2.396   0.617   5.280
20811TIP3    H212902   2.483   0.733   5.325
20812TIP3   OH212903   3.093   0.556   5.238
20812TIP3    H112904   3.031   0.490   5.270
20812TIP3    H212905   3.135   0.590   5.317
20813TIP3   OH212906   3.178   0.665   5.478
20813TIP3    H112907   3.199   0.587   5.530
20813TIP3    H212908   3.244   0.729   5.502
20814TIP3   OH212909   2.192   0.879   5.324
20814TIP3    H112910   2.270   0.827   5.342
20814TIP3    H212911   2.163   0.908   5.410
20815TIP3   OH212912   3.141   1.406   5.308
20815TIP3    H112913   3.216   1.425   5.364
20815TIP3    H212914   3.076   1.369   5.367
20816TIP3   OH212915   3.735   1.783   5.313
20816TIP3    H112916   3.806   1.848   5.311
20816TIP3    H212917   3.656   1.835   5.326
20817TIP3   OH212918   2.226   1.325   5.270
20817TIP3    H112919   2.270   1.409   5.267
20817TIP3    H212920   2.288   1.266   5.312
20818TIP3   OH212921   2.086   0.718   5.126
20818TIP3    H112922   2.120   0.773   5.197
20818TIP3    H212923   2.085   0.630   5.163
20819TIP3   OH212924   2.640   0.795   5.260
20819TIP3    H112925   2.606   0.796   5.171
20819TIP3    H212926   2.735   0.786   5.250
20820TIP3   OH212927   2.675   1.900   5.335
20820TIP3    H112928   2.730   1.833   5.296
20820TIP3    H212929   2.621   1.932   5.263
20821TIP3   OH212930   1.955   1.308   5.357
20821TIP3    H112931   2.047   1.315   5.329
20821TIP3    H212932   1.908   1.284   5.277
20822TIP3   OH212933   3.543   0.692   5.179
20822TIP3    H112934   3.449   0.708   5.166
20822TIP3    H212935   3.556   0.603   5.149
20823TIP3   OH212936   3.723   0.263   5.209
20823TIP3    H112937   3.675   0.184   5.236
20823TIP3    H212938   3.794   0.270   5.274
20824TIP3   OH212939   2.151   0.032   5.461
20824TIP3    H112940   2.207   0.106   5.440
20824TIP3    H212941   2.096   0.063   5.533
20825TIP3   OH212942   2.310   0.334   5.261
20825TIP3    H112943   2.355   0.391   5.198
20825TIP3    H212944   2.359   0.345   5.342
20826TIP3   OH212945   2.205   1.806   5.241
20826TIP3    H112946   2.218   1.789   5.335
20826TIP3    H212947   2.245   1.730   5.198
20827TIP3   OH212948   4.806   0.778   5.283
20827TIP3    H112949   4.820   0.791   5.377
20827TIP3    H212950   4.868   0.710   5.258
20828TIP3   OH212951   5.463   0.023   5.431
20828TIP3    H112952   5.405   8.103   5.470
20828TIP3    H212953   5.419   0.107   5.444
20829TIP3   OH212954   5.594   1.539   5.313
20829TIP3    H112955   5.599   1.634   5.310
20829TIP3    H212956   5.565   1.519   5.402
20830TIP3   OH212957   5.113   1.766   5.378
20830TIP3    H112958   5.177   1.695   5.377
20830TIP3    H212959   5.092   1.779   5.471
20831TIP3   OH212960   5.237   0.961   5.132
20831TIP3    H112961   5.196   1.032   5.082
20831TIP3    H212962   5.187   0.957   5.214
20832TIP3   OH212963   4.744   0.392   5.297
20832TIP3    H112964   4.657   0.413   5.330
20832TIP3    H212965   4.734   0.307   5.254
20833TIP3   OH212966   4.330   0.646   5.351
20833TIP3    H112967   4.323   0.594   5.271
20833TIP3    H212968   4.395   0.714   5.331
20834TIP3   OH212969   4.968   0.550   5.241
20834TIP3    H112970   4.899   0.489   5.267
20834TIP3    H212971   5.008   0.577   5.324
20835TIP3   OH212972   5.062   0.676   5.476
20835TIP3    H112973   5.087   0.602   5.531
20835TIP3    H212974   5.125   0.745   5.498
20836TIP3   OH212975   3.966   0.904   5.338
20836TIP3    H112976   3.988   0.905   5.431
20836TIP3    H212977   3.891   0.963   5.330
20837TIP3   OH212978   5.069   1.373   5.305
20837TIP3    H112979   5.138   1.408   5.361
20837TIP3    H212980   5.005   1.336   5.366
20838TIP3   OH212981   5.623   1.808   5.311
20838TIP3    H112982   5.696   1.869   5.325
20838TIP3    H212983   5.545   1.858   5.334
20839TIP3   OH212984   4.176   1.336   5.325
20839TIP3    H112985   4.210   1.356   5.413
20839TIP3    H212986   4.216   1.402   5.269
20840TIP3   OH212987   4.001   0.743   5.119
20840TIP3    H112988   4.000   0.800   5.196
20840TIP3    H212989   3.987   0.655   5.154
20841TIP3   OH212990   4.536   0.811   5.258
20841TIP3    H112991   4.507   0.807   5.167
20841TIP3    H212992   4.631   0.802   5.253
20842TIP3   OH212993   4.565   1.880   5.349
20842TIP3    H112994   4.619   1.817   5.301
20842TIP3    H212995   4.527   1.936   5.281
20843TIP3   OH212996   3.952   1.323   5.174
20843TIP3    H112997   4.021   1.322   5.240
20843TIP3    H212998   3.878   1.281   5.218
20844TIP3   OH212999   5.532   0.626   5.215
20844TIP3    H113000   5.452   0.601   5.169
20844TIP3    H213001   5.577   0.544   5.234
20845TIP3   OH213002   5.640   0.374   5.234
20845TIP3    H113003   5.561   0.339   5.194
20845TIP3    H213004   5.679   0.300   5.280
20846TIP3   OH213005   3.976   0.122   5.379
20846TIP3    H113006   4.055   0.176   5.374
20846TIP3    H213007   3.959   0.112   5.473
20847TIP3   OH213008   4.192   0.295   5.354
20847TIP3    H113009   4.194   0.313   5.260
20847TIP3    H213010   4.274   0.331   5.387
20848TIP3   OH213011   4.170   1.745   5.283
20848TIP3    H113012   4.136   1.740   5.373
20848TIP3    H213013   4.182   1.838   5.266
20849TIP3   OH213014   6.697   0.755   5.167
20849TIP3    H113015   6.741   0.839   5.176
20849TIP3    H213016   6.757   0.692   5.207
20850TIP3   OH213017   7.239   0.092   5.438
20850TIP3    H113018   7.230   0.001   5.464
20850TIP3    H213019   7.318   0.094   5.384
20851TIP3   OH213020   7.496   1.548   5.300
20851TIP3    H113021   7.506   1.643   5.309
20851TIP3    H213022   7.457   1.520   5.383
20852TIP3   OH213023   6.972   1.746   5.356
20852TIP3    H113024   7.031   1.671   5.357
20852TIP3    H213025   6.960   1.769   5.448
20853TIP3   OH213026   7.100   0.951   5.160
20853TIP3    H113027   7.038   1.019   5.183
20853TIP3    H213028   7.186   0.988   5.182
20854TIP3   OH213029   6.629   0.400   5.294
20854TIP3    H113030   6.539   0.432   5.295
20854TIP3    H213031   6.626   0.324   5.235
20855TIP3   OH213032   6.165   0.667   5.304
20855TIP3    H113033   6.187   0.599   5.240
20855TIP3    H213034   6.243   0.724   5.307
20856TIP3   OH213035   6.861   0.559   5.276
20856TIP3    H113036   6.791   0.497   5.299
20856TIP3    H213037   6.906   0.575   5.359
20857TIP3   OH213038   6.992   0.650   5.515
20857TIP3    H113039   7.083   0.618   5.522
20857TIP3    H213040   7.000   0.745   5.507
20858TIP3   OH213041   5.810   0.932   5.356
20858TIP3    H113042   5.869   1.002   5.330
20858TIP3    H213043   5.819   0.927   5.451
20859TIP3   OH213044   7.117   1.242   5.399
20859TIP3    H113045   7.076   1.280   5.478
20859TIP3    H213046   7.046   1.240   5.335
20860TIP3   OH213047   7.522   1.819   5.311
20860TIP3    H113048   7.585   1.891   5.315
20860TIP3    H213049   7.439   1.858   5.335
20861TIP3   OH213050   6.028   1.322   5.273
20861TIP3    H113051   6.047   1.407   5.311
20861TIP3    H213052   6.089   1.262   5.317
20862TIP3   OH213053   5.858   0.641   5.250
20862TIP3    H113054   5.952   0.652   5.268
20862TIP3    H213055   5.847   0.548   5.233
20863TIP3   OH213056   6.434   0.802   5.261
20863TIP3    H113057   6.409   0.867   5.196
20863TIP3    H213058   6.520   0.772   5.233
20864TIP3   OH213059   6.512   1.983   5.279
20864TIP3    H113060   6.549   1.897   5.258
20864TIP3    H213061   6.422   1.978   5.246
20865TIP3   OH213062   5.764   1.268   5.365
20865TIP3    H113063   5.846   1.293   5.323
20865TIP3    H213064   5.698   1.279   5.296
20866TIP3   OH213065   7.314   0.627   5.262
20866TIP3    H113066   7.293   0.705   5.210
20866TIP3    H213067   7.299   0.554   5.202
20867TIP3   OH213068   7.436   0.202   5.250
20867TIP3    H113069   7.399   0.178   5.165
20867TIP3    H213070   7.403   0.290   5.268
20868TIP3   OH213071   5.834   0.148   5.368
20868TIP3    H113072   5.917   0.195   5.365
20868TIP3    H213073   5.817   0.135   5.462
20869TIP3   OH213074   6.071   0.297   5.345
20869TIP3    H113075   6.079   0.302   5.250
20869TIP3    H213076   6.150   0.341   5.378
20870TIP3   OH213077   6.023   1.821   5.241
20870TIP3    H113078   6.017   1.806   5.335
20870TIP3    H213079   6.060   1.740   5.206
20871TIP3   OH213080   8.081   0.619   5.284
20871TIP3    H113081   7.991   0.628   5.253
20871TIP3    H213082   8.112   0.709   5.295
20872TIP3   OH213083   7.739   0.899   5.346
20872TIP3    H113084   7.743   0.906   5.442
20872TIP3    H213085   7.690   0.977   5.319
20873TIP3   OH213086   0.007   0.372   5.389
20873TIP3    H113087   8.138   0.461   5.358
20873TIP3    H213088   0.004   0.379   5.485
20874TIP3   OH213089   7.926   1.331   5.233
20874TIP3    H113090   7.929   1.400   5.299
20874TIP3    H213091   8.014   1.293   5.234
20875TIP3   OH213092   7.814   0.677   5.205
20875TIP3    H113093   7.797   0.762   5.247
20875TIP3    H213094   7.728   0.635   5.200
20876TIP3   OH213095   7.668   1.265   5.350
20876TIP3    H113096   7.750   1.277   5.301
20876TIP3    H213097   7.600   1.282   5.285
20877TIP3   OH213098   7.678   0.087   5.332
20877TIP3    H113099   7.745   0.155   5.346
20877TIP3    H213100   7.600   0.136   5.307
20878TIP3   OH213101   7.903   0.264   5.333
20878TIP3    H113102   7.907   0.223   5.246
20878TIP3    H213103   7.991   0.299   5.347
20879TIP3   OH213104   7.868   1.818   5.237
20879TIP3    H113105   7.875   1.803   5.331
20879TIP3    H213106   7.903   1.738   5.197
20880TIP3   OH213107   1.026   2.650   5.269
20880TIP3    H113108   1.048   2.674   5.359
20880TIP3    H213109   1.090   2.584   5.244
20881TIP3   OH213110   1.665   1.915   5.378
20881TIP3    H113111   1.583   1.938   5.422
20881TIP3    H213112   1.690   1.995   5.332
20882TIP3   OH213113   1.758   3.379   5.270
20882TIP3    H113114   1.773   3.471   5.289
20882TIP3    H213115   1.803   3.332   5.341
20883TIP3   OH213116   1.309   3.653   5.357
20883TIP3    H113117   1.399   3.621   5.351
20883TIP3    H213118   1.290   3.654   5.451
20884TIP3   OH213119   1.439   2.815   5.135
20884TIP3    H113120   1.398   2.892   5.097
20884TIP3    H213121   1.520   2.848   5.175
20885TIP3   OH213122   1.019   2.259   5.344
20885TIP3    H113123   1.018   2.248   5.439
20885TIP3    H213124   0.964   2.188   5.311
20886TIP3   OH213125   0.502   2.565   5.297
20886TIP3    H113126   0.530   2.495   5.238
20886TIP3    H213127   0.580   2.619   5.309
20887TIP3   OH213128   1.206   2.436   5.251
20887TIP3    H113129   1.143   2.370   5.280
20887TIP3    H213130   1.253   2.461   5.331
20888TIP3   OH213131   1.329   2.526   5.486
20888TIP3    H113132   1.390   2.460   5.516
20888TIP3    H213133   1.375   2.609   5.498
20889TIP3   OH213134   0.198   2.857   5.283
20889TIP3    H113135   0.264   2.820   5.342
20889TIP3    H213136   0.129   2.790   5.280
20890TIP3   OH213137   1.349   3.278   5.319
20890TIP3    H113138   1.435   3.308   5.292
20890TIP3    H213139   1.347   3.291   5.414
20891TIP3   OH213140   1.843   3.638   5.308
20891TIP3    H113141   1.918   3.698   5.316
20891TIP3    H213142   1.768   3.691   5.333
20892TIP3   OH213143   0.329   3.232   5.252
20892TIP3    H113144   0.373   3.205   5.332
20892TIP3    H213145   0.389   3.296   5.212
20893TIP3   OH213146   0.249   2.510   5.203
20893TIP3    H113147   0.329   2.543   5.244
20893TIP3    H213148   0.256   2.415   5.209
20894TIP3   OH213149   0.754   2.678   5.263
20894TIP3    H113150   0.722   2.681   5.173
20894TIP3    H213151   0.849   2.669   5.255
20895TIP3   OH213152   0.797   3.793   5.298
20895TIP3    H113153   0.849   3.716   5.275
20895TIP3    H213154   0.764   3.826   5.214
20896TIP3   OH213155   0.053   3.210   5.258
20896TIP3    H113156   0.148   3.204   5.257
20896TIP3    H213157   0.033   3.297   5.224
20897TIP3   OH213158   1.659   2.581   5.212
20897TIP3    H113159   1.573   2.615   5.187
20897TIP3    H213160   1.665   2.496   5.169
20898TIP3   OH213161   1.788   2.107   5.214
20898TIP3    H113162   1.795   2.052   5.136
20898TIP3    H213163   1.865   2.085   5.266
20899TIP3   OH213164   0.200   2.047   5.377
20899TIP3    H113165   0.275   2.102   5.399
20899TIP3    H213166   0.217   1.964   5.423
20900TIP3   OH213167   0.441   2.234   5.254
20900TIP3    H113168   0.496   2.283   5.194
20900TIP3    H213169   0.482   2.246   5.340
20901TIP3   OH213170   0.380   3.622   5.258
20901TIP3    H113171   0.340   3.625   5.345
20901TIP3    H213172   0.397   3.714   5.237
20902TIP3   OH213173   2.892   2.670   5.299
20902TIP3    H113174   2.920   2.676   5.390
20902TIP3    H213175   2.950   2.604   5.261
20903TIP3   OH213176   3.525   1.952   5.346
20903TIP3    H113177   3.448   1.968   5.402
20903TIP3    H213178   3.566   2.038   5.338
20904TIP3   OH213179   3.656   3.381   5.246
20904TIP3    H113180   3.666   3.473   5.269
20904TIP3    H213181   3.699   3.333   5.317
20905TIP3   OH213182   3.204   3.640   5.359
20905TIP3    H113183   3.280   3.582   5.362
20905TIP3    H213184   3.187   3.662   5.451
20906TIP3   OH213185   3.322   2.824   5.122
20906TIP3    H113186   3.275   2.906   5.106
20906TIP3    H213187   3.401   2.850   5.168
20907TIP3   OH213188   2.906   2.262   5.352
20907TIP3    H113189   2.908   2.250   5.447
20907TIP3    H213190   2.853   2.189   5.320
20908TIP3   OH213191   2.393   2.509   5.351
20908TIP3    H113192   2.317   2.540   5.303
20908TIP3    H213193   2.455   2.481   5.284
20909TIP3   OH213194   3.074   2.454   5.254
20909TIP3    H113195   3.017   2.384   5.285
20909TIP3    H213196   3.123   2.482   5.331
20910TIP3   OH213197   3.207   2.546   5.486
20910TIP3    H113198   3.271   2.481   5.516
20910TIP3    H213199   3.253   2.630   5.494
20911TIP3   OH213200   2.057   2.796   5.295
20911TIP3    H113201   2.106   2.878   5.290
20911TIP3    H213202   2.041   2.784   5.389
20912TIP3   OH213203   3.217   3.151   5.387
20912TIP3    H113204   3.267   3.216   5.338
20912TIP3    H213205   3.239   3.169   5.479
20913TIP3   OH213206   3.725   3.643   5.287
20913TIP3    H113207   3.801   3.700   5.297
20913TIP3    H213208   3.651   3.696   5.320
20914TIP3   OH213209   2.232   3.209   5.249
20914TIP3    H113210   2.282   3.182   5.326
20914TIP3    H213211   2.282   3.281   5.212
20915TIP3   OH213212   2.172   2.568   5.183
20915TIP3    H113213   2.132   2.648   5.217
20915TIP3    H213214   2.105   2.501   5.197
20916TIP3   OH213215   2.693   2.839   5.216
20916TIP3    H113216   2.632   2.787   5.164
20916TIP3    H213217   2.766   2.781   5.234
20917TIP3   OH213218   2.563   3.742   5.221
20917TIP3    H113219   2.647   3.708   5.251
20917TIP3    H213220   2.585   3.798   5.146
20918TIP3   OH213221   1.969   3.188   5.344
20918TIP3    H113222   2.056   3.203   5.306
20918TIP3    H213223   1.918   3.149   5.273
20919TIP3   OH213224   3.541   2.577   5.194
20919TIP3    H113225   3.453   2.611   5.176
20919TIP3    H213226   3.540   2.489   5.155
20920TIP3   OH213227   3.689   2.170   5.315
20920TIP3    H113228   3.774   2.127   5.321
20920TIP3    H213229   3.681   2.222   5.395
20921TIP3   OH213230   1.995   1.996   5.385
20921TIP3    H113231   2.084   1.976   5.358
20921TIP3    H213232   1.998   1.995   5.481
20922TIP3   OH213233   2.324   2.213   5.215
20922TIP3    H113234   2.379   2.280   5.175
20922TIP3    H213235   2.348   2.215   5.308
20923TIP3   OH213236   2.323   3.610   5.272
20923TIP3    H113237   2.290   3.631   5.360
20923TIP3    H213238   2.399   3.668   5.261
20924TIP3   OH213239   4.807   2.628   5.285
20924TIP3    H113240   4.813   2.669   5.371
20924TIP3    H213241   4.856   2.546   5.294
20925TIP3   OH213242   5.428   1.987   5.374
20925TIP3    H113243   5.337   2.002   5.401
20925TIP3    H213244   5.457   2.072   5.340
20926TIP3   OH213245   5.609   3.378   5.314
20926TIP3    H113246   5.600   3.473   5.302
20926TIP3    H213247   5.582   3.362   5.404
20927TIP3   OH213248   5.115   3.657   5.362
20927TIP3    H113249   5.171   3.580   5.366
20927TIP3    H213250   5.081   3.667   5.451
20928TIP3   OH213251   5.208   2.800   5.179
20928TIP3    H113252   5.176   2.884   5.145
20928TIP3    H213253   5.300   2.815   5.198
20929TIP3   OH213254   4.762   2.296   5.221
20929TIP3    H113255   4.679   2.276   5.263
20929TIP3    H213256   4.746   2.281   5.128
20930TIP3   OH213257   4.328   2.526   5.373
20930TIP3    H113258   4.303   2.486   5.289
20930TIP3    H213259   4.393   2.592   5.350
20931TIP3   OH213260   4.991   2.415   5.304
20931TIP3    H113261   4.916   2.360   5.285
20931TIP3    H213262   5.006   2.405   5.398
20932TIP3   OH213263   5.170   2.616   5.448
20932TIP3    H113264   5.120   2.572   5.517
20932TIP3    H213265   5.175   2.707   5.476
20933TIP3   OH213266   4.006   2.770   5.349
20933TIP3    H113267   4.060   2.847   5.331
20933TIP3    H213268   3.982   2.779   5.441
20934TIP3   OH213269   5.056   3.227   5.329
20934TIP3    H113270   5.116   3.259   5.396
20934TIP3    H213271   4.978   3.200   5.377
20935TIP3   OH213272   5.606   3.647   5.266
20935TIP3    H113273   5.672   3.716   5.275
20935TIP3    H213274   5.528   3.682   5.308
20936TIP3   OH213275   4.124   3.208   5.251
20936TIP3    H113276   4.173   3.184   5.330
20936TIP3    H213277   4.172   3.282   5.214
20937TIP3   OH213278   3.985   2.612   5.124
20937TIP3    H113279   3.995   2.668   5.200
20937TIP3    H213280   3.968   2.525   5.160
20938TIP3   OH213281   4.531   2.684   5.264
20938TIP3    H113282   4.490   2.687   5.178
20938TIP3    H213283   4.624   2.667   5.247
20939TIP3   OH213284   4.609   3.840   5.295
20939TIP3    H113285   4.644   3.755   5.268
20939TIP3    H213286   4.527   3.849   5.247
20940TIP3   OH213287   3.858   3.197   5.342
20940TIP3    H113288   3.946   3.204   5.306
20940TIP3    H213289   3.807   3.151   5.274
20941TIP3   OH213290   5.370   2.512   5.174
20941TIP3    H113291   5.449   2.567   5.167
20941TIP3    H213292   5.394   2.430   5.132
20942TIP3   OH213293   5.611   2.144   5.207
20942TIP3    H113294   5.596   2.077   5.141
20942TIP3    H213295   5.676   2.106   5.266
20943TIP3   OH213296   3.929   2.031   5.370
20943TIP3    H113297   4.011   2.079   5.374
20943TIP3    H213298   3.915   1.999   5.460
20944TIP3   OH213299   4.186   2.196   5.264
20944TIP3    H113300   4.216   2.270   5.210
20944TIP3    H213301   4.239   2.202   5.344
20945TIP3   OH213302   4.157   3.619   5.262
20945TIP3    H113303   4.138   3.619   5.356
20945TIP3    H213304   4.145   3.711   5.236
20946TIP3   OH213305   6.726   2.637   5.252
20946TIP3    H113306   6.757   2.671   5.336
20946TIP3    H213307   6.781   2.560   5.236
20947TIP3   OH213308   7.290   1.949   5.371
20947TIP3    H113309   7.212   1.951   5.427
20947TIP3    H213310   7.307   2.041   5.351
20948TIP3   OH213311   7.464   3.422   5.292
20948TIP3    H113312   7.470   3.517   5.295
20948TIP3    H213313   7.444   3.397   5.382
20949TIP3   OH213314   6.984   3.644   5.367
20949TIP3    H113315   7.046   3.571   5.370
20949TIP3    H213316   6.957   3.655   5.458
20950TIP3   OH213317   7.097   2.825   5.129
20950TIP3    H113318   7.058   2.901   5.086
20950TIP3    H213319   7.176   2.860   5.170
20951TIP3   OH213320   6.641   2.226   5.324
20951TIP3    H113321   6.562   2.267   5.360
20951TIP3    H213322   6.614   2.137   5.300
20952TIP3   OH213323   6.183   2.625   5.226
20952TIP3    H113324   6.136   2.574   5.293
20952TIP3    H213325   6.268   2.643   5.266
20953TIP3   OH213326   6.855   2.389   5.243
20953TIP3    H113327   6.790   2.325   5.271
20953TIP3    H213328   6.893   2.422   5.324
20954TIP3   OH213329   6.949   2.545   5.462
20954TIP3    H113330   6.973   2.476   5.524
20954TIP3    H213331   7.010   2.616   5.480
20955TIP3   OH213332   5.885   2.774   5.331
20955TIP3    H113333   5.956   2.838   5.322
20955TIP3    H213334   5.858   2.781   5.422
20956TIP3   OH213335   6.916   3.275   5.318
20956TIP3    H113336   6.989   3.304   5.373
20956TIP3    H213337   6.850   3.244   5.379
20957TIP3   OH213338   7.501   3.701   5.294
20957TIP3    H113339   7.576   3.731   5.344
20957TIP3    H213340   7.425   3.740   5.338
20958TIP3   OH213341   6.030   3.264   5.322
20958TIP3    H113342   6.053   3.264   5.415
20958TIP3    H213343   6.101   3.313   5.280
20959TIP3   OH213344   5.858   2.599   5.121
20959TIP3    H113345   5.874   2.659   5.194
20959TIP3    H213346   5.838   2.515   5.163
20960TIP3   OH213347   6.455   2.624   5.272
20960TIP3    H113348   6.444   2.534   5.241
20960TIP3    H213349   6.547   2.643   5.258
20961TIP3   OH213350   6.428   3.767   5.330
20961TIP3    H113351   6.489   3.702   5.295
20961TIP3    H213352   6.400   3.818   5.253
20962TIP3   OH213353   5.798   3.226   5.190
20962TIP3    H113354   5.877   3.228   5.243
20962TIP3    H213355   5.731   3.269   5.244
20963TIP3   OH213356   7.321   2.609   5.163
20963TIP3    H113357   7.229   2.635   5.158
20963TIP3    H213358   7.320   2.516   5.144
20964TIP3   OH213359   7.421   2.188   5.303
20964TIP3    H113360   7.505   2.145   5.316
20964TIP3    H213361   7.401   2.227   5.388
20965TIP3   OH213362   5.792   2.019   5.384
20965TIP3    H113363   5.885   2.036   5.367
20965TIP3    H213364   5.786   2.015   5.479
20966TIP3   OH213365   6.108   2.220   5.254
20966TIP3    H113366   6.171   2.266   5.198
20966TIP3    H213367   6.136   2.240   5.343
20967TIP3   OH213368   6.000   3.650   5.170
20967TIP3    H113369   5.913   3.651   5.210
20967TIP3    H213370   6.053   3.708   5.225
20968TIP3   OH213371   0.018   2.652   5.237
20968TIP3    H113372   8.105   2.601   5.295
20968TIP3    H213373   0.092   2.594   5.219
20969TIP3   OH213374   7.739   2.791   5.306
20969TIP3    H113375   7.814   2.850   5.311
20969TIP3    H213376   7.701   2.793   5.393
20970TIP3   OH213377   8.115   2.205   5.378
20970TIP3    H113378   8.107   2.227   5.470
20970TIP3    H213379   0.047   2.148   5.373
20971TIP3   OH213380   7.916   3.180   5.258
20971TIP3    H113381   7.912   3.267   5.299
20971TIP3    H213382   8.009   3.158   5.256
20972TIP3   OH213383   7.769   2.567   5.139
20972TIP3    H113384   7.763   2.639   5.203
20972TIP3    H213385   7.739   2.490   5.188
20973TIP3   OH213386   7.654   3.150   5.362
20973TIP3    H113387   7.739   3.149   5.320
20973TIP3    H213388   7.591   3.140   5.291
20974TIP3   OH213389   7.669   2.077   5.366
20974TIP3    H113390   7.734   2.122   5.313
20974TIP3    H213391   7.714   2.058   5.448
20975TIP3   OH213392   7.882   2.229   5.239
20975TIP3    H113393   7.917   2.291   5.176
20975TIP3    H213394   7.956   2.211   5.298
20976TIP3   OH213395   7.856   3.628   5.246
20976TIP3    H113396   7.869   3.628   5.341
20976TIP3    H213397   7.918   3.563   5.214
20977TIP3   OH213398   1.065   4.571   5.292
20977TIP3    H113399   1.087   4.586   5.384
20977TIP3    H213400   1.124   4.502   5.264
20978TIP3   OH213401   1.648   3.816   5.385
20978TIP3    H113402   1.606   3.844   5.466
20978TIP3    H213403   1.685   3.896   5.348
20979TIP3   OH213404   1.724   5.254   5.283
20979TIP3    H113405   1.741   5.346   5.300
20979TIP3    H213406   1.802   5.209   5.316
20980TIP3   OH213407   1.300   5.535   5.361
20980TIP3    H113408   1.380   5.484   5.349
20980TIP3    H213409   1.289   5.540   5.456
20981TIP3   OH213410   1.442   4.709   5.193
20981TIP3    H113411   1.407   4.786   5.146
20981TIP3    H213412   1.534   4.729   5.207
20982TIP3   OH213413   1.003   4.153   5.343
20982TIP3    H113414   1.008   4.146   5.438
20982TIP3    H213415   0.948   4.080   5.315
20983TIP3   OH213416   0.540   4.429   5.353
20983TIP3    H113417   0.464   4.437   5.296
20983TIP3    H213418   0.610   4.475   5.307
20984TIP3   OH213419   1.191   4.324   5.241
20984TIP3    H113420   1.128   4.260   5.275
20984TIP3    H213421   1.248   4.344   5.315
20985TIP3   OH213422   1.330   4.403   5.471
20985TIP3    H113423   1.392   4.339   5.505
20985TIP3    H213424   1.375   4.487   5.480
20986TIP3   OH213425   0.158   4.643   5.302
20986TIP3    H113426   0.155   4.659   5.397
20986TIP3    H213427   0.071   4.609   5.281
20987TIP3   OH213428   1.380   5.198   5.291
20987TIP3    H113429   1.470   5.189   5.261
20987TIP3    H213430   1.388   5.233   5.380
20988TIP3   OH213431   1.804   5.516   5.301
20988TIP3    H113432   1.889   5.552   5.328
20988TIP3    H213433   1.740   5.583   5.325
20989TIP3   OH213434   0.384   5.068   5.282
20989TIP3    H113435   0.414   5.155   5.307
20989TIP3    H213436   0.438   5.008   5.334
20990TIP3   OH213437   0.312   4.450   5.181
20990TIP3    H113438   0.273   4.532   5.210
20990TIP3    H213439   0.249   4.382   5.207
20991TIP3   OH213440   0.806   4.588   5.232
20991TIP3    H113441   0.783   4.681   5.231
20991TIP3    H213442   0.899   4.586   5.251
20992TIP3   OH213443   0.771   5.648   5.330
20992TIP3    H113444   0.836   5.582   5.302
20992TIP3    H213445   0.746   5.692   5.250
20993TIP3   OH213446   0.103   5.030   5.258
20993TIP3    H113447   0.197   5.046   5.270
20993TIP3    H213448   0.094   5.010   5.164
20994TIP3   OH213449   1.660   4.422   5.230
20994TIP3    H113450   1.611   4.490   5.183
20994TIP3    H213451   1.657   4.346   5.173
20995TIP3   OH213452   1.791   4.035   5.298
20995TIP3    H113453   1.878   3.995   5.306
20995TIP3    H213454   1.800   4.120   5.341
20996TIP3   OH213455   0.190   3.913   5.378
20996TIP3    H113456   0.252   3.977   5.412
20996TIP3    H213457   0.211   3.832   5.423
20997TIP3   OH213458   0.448   4.089   5.245
20997TIP3    H113459   0.489   4.157   5.192
20997TIP3    H213460   0.482   4.103   5.333
20998TIP3   OH213461   0.402   5.563   5.291
20998TIP3    H113462   0.362   5.504   5.355
20998TIP3    H213463   0.431   5.505   5.221
20999TIP3   OH213464   2.927   4.521   5.190
20999TIP3    H113465   2.966   4.597   5.232
20999TIP3    H213466   2.985   4.449   5.213
21000TIP3   OH213467   3.546   3.834   5.368
21000TIP3    H113468   3.484   3.852   5.438
21000TIP3    H213469   3.589   3.919   5.352
21001TIP3   OH213470   3.666   5.288   5.303
21001TIP3    H113471   3.682   5.382   5.302
21001TIP3    H213472   3.651   5.267   5.395
21002TIP3   OH213473   3.210   5.537   5.367
21002TIP3    H113474   3.275   5.466   5.366
21002TIP3    H213475   3.194   5.554   5.460
21003TIP3   OH213476   3.296   4.718   5.130
21003TIP3    H113477   3.274   4.800   5.085
21003TIP3    H213478   3.392   4.719   5.135
21004TIP3   OH213479   2.894   4.169   5.363
21004TIP3    H113480   2.909   4.139   5.452
21004TIP3    H213481   2.799   4.179   5.357
21005TIP3   OH213482   2.404   4.430   5.321
21005TIP3    H113483   2.412   4.372   5.244
21005TIP3    H213484   2.487   4.477   5.323
21006TIP3   OH213485   3.096   4.312   5.250
21006TIP3    H113486   3.031   4.253   5.288
21006TIP3    H213487   3.144   4.347   5.325
21007TIP3   OH213488   3.208   4.414   5.479
21007TIP3    H113489   3.235   4.340   5.533
21007TIP3    H213490   3.275   4.480   5.492
21008TIP3   OH213491   2.145   4.676   5.339
21008TIP3    H113492   2.240   4.674   5.352
21008TIP3    H213493   2.109   4.690   5.426
21009TIP3   OH213494   3.161   5.164   5.286
21009TIP3    H113495   3.247   5.174   5.328
21009TIP3    H213496   3.107   5.123   5.354
21010TIP3   OH213497   3.726   5.553   5.310
21010TIP3    H113498   3.799   5.615   5.305
21010TIP3    H213499   3.653   5.603   5.346
21011TIP3   OH213500   2.260   5.079   5.287
21011TIP3    H113501   2.328   5.043   5.345
21011TIP3    H213502   2.304   5.150   5.240
21012TIP3   OH213503   2.106   4.494   5.139
21012TIP3    H113504   2.117   4.563   5.204
21012TIP3    H213505   2.131   4.414   5.185
21013TIP3   OH213506   2.658   4.540   5.262
21013TIP3    H113507   2.611   4.552   5.179
21013TIP3    H213508   2.750   4.530   5.236
21014TIP3   OH213509   2.555   5.628   5.254
21014TIP3    H113510   2.614   5.626   5.330
21014TIP3    H213511   2.612   5.648   5.180
21015TIP3   OH213512   1.984   5.122   5.295
21015TIP3    H113513   2.078   5.103   5.296
21015TIP3    H213514   1.945   5.052   5.244
21016TIP3   OH213515   3.669   4.385   5.141
21016TIP3    H113516   3.632   4.471   5.161
21016TIP3    H213517   3.593   4.327   5.137
21017TIP3   OH213518   3.691   4.065   5.314
21017TIP3    H113519   3.655   4.115   5.240
21017TIP3    H213520   3.684   4.124   5.389
21018TIP3   OH213521   2.034   3.903   5.366
21018TIP3    H113522   2.128   3.920   5.366
21018TIP3    H213523   2.012   3.889   5.458
21019TIP3   OH213524   2.319   4.094   5.242
21019TIP3    H113525   2.366   4.155   5.184
21019TIP3    H213526   2.355   4.112   5.329
21020TIP3   OH213527   2.307   5.510   5.251
21020TIP3    H113528   2.267   5.535   5.334
21020TIP3    H213529   2.391   5.556   5.249
21021TIP3   OH213530   4.800   4.521   5.279
21021TIP3    H113531   4.825   4.541   5.370
21021TIP3    H213532   4.863   4.455   5.251
21022TIP3   OH213533   5.421   3.800   5.397
21022TIP3    H113534   5.329   3.803   5.423
21022TIP3    H213535   5.445   3.892   5.385
21023TIP3   OH213536   5.589   5.256   5.297
21023TIP3    H113537   5.593   5.352   5.294
21023TIP3    H213538   5.561   5.237   5.387
21024TIP3   OH213539   5.110   5.539   5.349
21024TIP3    H113540   5.172   5.466   5.349
21024TIP3    H213541   5.089   5.553   5.441
21025TIP3   OH213542   5.222   4.715   5.122
21025TIP3    H113543   5.174   4.790   5.088
21025TIP3    H213544   5.294   4.753   5.172
21026TIP3   OH213545   4.752   4.120   5.344
21026TIP3    H113546   4.670   4.169   5.356
21026TIP3    H213547   4.724   4.031   5.325
21027TIP3   OH213548   4.319   4.405   5.375
21027TIP3    H113549   4.253   4.403   5.305
21027TIP3    H213550   4.391   4.457   5.337
21028TIP3   OH213551   4.962   4.295   5.241
21028TIP3    H113552   4.904   4.232   5.285
21028TIP3    H213553   5.021   4.325   5.310
21029TIP3   OH213554   5.135   4.413   5.424
21029TIP3    H113555   5.128   4.357   5.502
21029TIP3    H213556   5.151   4.500   5.459
21030TIP3   OH213557   3.903   4.685   5.307
21030TIP3    H113558   3.949   4.687   5.391
21030TIP3    H213559   3.814   4.713   5.328
21031TIP3   OH213560   5.057   5.166   5.302
21031TIP3    H113561   5.127   5.193   5.362
21031TIP3    H213562   4.991   5.125   5.359
21032TIP3   OH213563   5.611   5.524   5.315
21032TIP3    H113564   5.688   5.581   5.312
21032TIP3    H213565   5.545   5.576   5.361
21033TIP3   OH213566   4.176   5.116   5.328
21033TIP3    H113567   4.202   5.147   5.415
21033TIP3    H213568   4.218   5.177   5.267
21034TIP3   OH213569   4.000   4.465   5.157
21034TIP3    H113570   3.983   4.545   5.206
21034TIP3    H213571   3.929   4.406   5.182
21035TIP3   OH213572   4.527   4.555   5.263
21035TIP3    H113573   4.489   4.559   5.175
21035TIP3    H213574   4.621   4.547   5.249
21036TIP3   OH213575   4.633   5.748   5.272
21036TIP3    H113576   4.663   5.659   5.251
21036TIP3    H213577   4.543   5.752   5.240
21037TIP3   OH213578   3.965   5.084   5.160
21037TIP3    H113579   4.029   5.087   5.231
21037TIP3    H213580   3.890   5.037   5.198
21038TIP3   OH213581   5.426   4.500   5.157
21038TIP3    H113582   5.340   4.541   5.155
21038TIP3    H213583   5.410   4.407   5.140
21039TIP3   OH213584   5.552   4.041   5.306
21039TIP3    H113585   5.523   4.059   5.217
21039TIP3    H213586   5.496   4.095   5.362
21040TIP3   OH213587   3.896   3.869   5.327
21040TIP3    H113588   3.933   3.871   5.415
21040TIP3    H213589   3.829   3.937   5.328
21041TIP3   OH213590   4.240   4.069   5.218
21041TIP3    H113591   4.275   4.141   5.166
21041TIP3    H213592   4.274   4.083   5.306
21042TIP3   OH213593   4.139   5.497   5.276
21042TIP3    H113594   4.052   5.526   5.246
21042TIP3    H213595   4.145   5.529   5.366
21043TIP3   OH213596   6.709   4.535   5.197
21043TIP3    H113597   6.746   4.552   5.283
21043TIP3    H213598   6.781   4.548   5.136
21044TIP3   OH213599   7.289   3.834   5.400
21044TIP3    H113600   7.214   3.802   5.449
21044TIP3    H213601   7.279   3.929   5.400
21045TIP3   OH213602   7.430   5.258   5.256
21045TIP3    H113603   7.405   5.326   5.318
21045TIP3    H213604   7.456   5.184   5.310
21046TIP3   OH213605   6.955   5.483   5.336
21046TIP3    H113606   7.033   5.523   5.297
21046TIP3    H213607   6.989   5.430   5.408
21047TIP3   OH213608   7.056   4.744   5.224
21047TIP3    H113609   7.032   4.819   5.170
21047TIP3    H213610   7.152   4.742   5.221
21048TIP3   OH213611   6.711   4.158   5.346
21048TIP3    H113612   6.680   4.139   5.435
21048TIP3    H213613   6.661   4.099   5.290
21049TIP3   OH213614   6.200   4.430   5.314
21049TIP3    H113615   6.136   4.453   5.247
21049TIP3    H213616   6.280   4.476   5.288
21050TIP3   OH213617   6.948   4.273   5.260
21050TIP3    H113618   6.867   4.231   5.288
21050TIP3    H213619   6.964   4.340   5.327
21051TIP3   OH213620   6.997   4.451   5.484
21051TIP3    H113621   7.075   4.412   5.524
21051TIP3    H213622   7.016   4.544   5.480
21052TIP3   OH213623   5.809   4.708   5.248
21052TIP3    H113624   5.876   4.775   5.255
21052TIP3    H213625   5.743   4.733   5.313
21053TIP3   OH213626   6.938   5.080   5.330
21053TIP3    H113627   7.026   5.107   5.357
21053TIP3    H213628   6.926   5.118   5.243
21054TIP3   OH213629   7.474   5.577   5.292
21054TIP3    H113630   7.503   5.557   5.203
21054TIP3    H213631   7.379   5.585   5.285
21055TIP3   OH213632   6.021   5.091   5.251
21055TIP3    H113633   6.089   5.059   5.311
21055TIP3    H213634   6.055   5.174   5.219
21056TIP3   OH213635   5.931   4.469   5.164
21056TIP3    H113636   5.898   4.553   5.194
21056TIP3    H213637   5.854   4.411   5.162
21057TIP3   OH213638   6.442   4.559   5.268
21057TIP3    H113639   6.403   4.599   5.191
21057TIP3    H213640   6.535   4.549   5.245
21058TIP3   OH213641   6.445   5.664   5.350
21058TIP3    H113642   6.491   5.605   5.290
21058TIP3    H213643   6.424   5.741   5.297
21059TIP3   OH213644   5.774   5.015   5.363
21059TIP3    H113645   5.853   5.051   5.323
21059TIP3    H213646   5.704   5.035   5.301
21060TIP3   OH213647   7.342   4.436   5.213
21060TIP3    H113648   7.352   4.449   5.118
21060TIP3    H213649   7.268   4.376   5.221
21061TIP3   OH213650   7.492   3.993   5.202
21061TIP3    H113651   7.546   3.978   5.280
21061TIP3    H213652   7.434   4.065   5.226
21062TIP3   OH213653   5.775   3.865   5.326
21062TIP3    H113654   5.804   3.858   5.417
21062TIP3    H213655   5.701   3.925   5.329
21063TIP3   OH213656   6.118   4.098   5.195
21063TIP3    H113657   6.167   4.156   5.137
21063TIP3    H213658   6.150   4.118   5.283
21064TIP3   OH213659   6.039   5.557   5.242
21064TIP3    H113660   5.949   5.585   5.258
21064TIP3    H213661   6.091   5.636   5.252
21065TIP3   OH213662   8.064   4.532   5.216
21065TIP3    H113663   7.978   4.526   5.258
21065TIP3    H213664   8.049   4.500   5.127
21066TIP3   OH213665   7.653   4.764   5.263
21066TIP3    H113666   7.659   4.808   5.347
21066TIP3    H213667   7.601   4.822   5.208
21067TIP3   OH213668   8.078   4.025   5.396
21067TIP3    H113669   8.087   4.081   5.473
21067TIP3    H213670   0.020   3.985   5.384
21068TIP3   OH213671   7.997   5.150   5.322
21068TIP3    H113672   7.981   5.142   5.416
21068TIP3    H213673   8.082   5.109   5.309
21069TIP3   OH213674   7.787   4.512   5.293
21069TIP3    H113675   7.752   4.601   5.293
21069TIP3    H213676   7.729   4.463   5.235
21070TIP3   OH213677   7.754   5.098   5.195
21070TIP3    H113678   7.834   5.115   5.246
21070TIP3    H213679   7.688   5.077   5.261
21071TIP3   OH213680   7.681   3.928   5.394
21071TIP3    H113681   7.745   3.966   5.333
21071TIP3    H213682   7.725   3.931   5.479
21072TIP3   OH213683   7.868   4.037   5.216
21072TIP3    H113684   7.880   4.123   5.175
21072TIP3    H213685   7.944   4.027   5.273
21073TIP3   OH213686   7.920   5.618   5.207
21073TIP3    H113687   7.855   5.587   5.270
21073TIP3    H213688   7.963   5.539   5.175
21074TIP3   OH213689   1.034   6.421   5.277
21074TIP3    H113690   1.052   6.440   5.369
21074TIP3    H213691   1.100   6.356   5.253
21075TIP3   OH213692   1.640   5.725   5.363
21075TIP3    H113693   1.599   5.748   5.446
21075TIP3    H213694   1.699   5.798   5.344
21076TIP3   OH213695   1.763   7.173   5.277
21076TIP3    H113696   1.773   7.265   5.301
21076TIP3    H213697   1.825   7.126   5.333
21077TIP3   OH213698   1.303   7.420   5.360
21077TIP3    H113699   1.369   7.351   5.348
21077TIP3    H213700   1.295   7.430   5.455
21078TIP3   OH213701   1.441   6.596   5.154
21078TIP3    H113702   1.406   6.675   5.112
21078TIP3    H213703   1.531   6.619   5.176
21079TIP3   OH213704   1.017   6.037   5.348
21079TIP3    H113705   1.019   6.027   5.443
21079TIP3    H213706   0.954   5.971   5.318
21080TIP3   OH213707   0.533   6.320   5.332
21080TIP3    H113708   0.538   6.249   5.268
21080TIP3    H213709   0.610   6.374   5.313
21081TIP3   OH213710   1.211   6.206   5.255
21081TIP3    H113711   1.147   6.142   5.286
21081TIP3    H213712   1.257   6.233   5.335
21082TIP3   OH213713   1.326   6.302   5.492
21082TIP3    H113714   1.388   6.238   5.526
21082TIP3    H213715   1.372   6.386   5.497
21083TIP3   OH213716   0.275   6.592   5.290
21083TIP3    H113717   0.341   6.598   5.359
21083TIP3    H213718   0.210   6.660   5.312
21084TIP3   OH213719   1.347   7.082   5.283
21084TIP3    H113720   1.441   7.089   5.271
21084TIP3    H213721   1.335   7.079   5.378
21085TIP3   OH213722   1.815   7.442   5.317
21085TIP3    H113723   1.893   7.497   5.308
21085TIP3    H213724   1.745   7.504   5.340
21086TIP3   OH213725   0.389   6.962   5.294
21086TIP3    H113726   0.434   7.034   5.250
21086TIP3    H213727   0.455   6.924   5.351
21087TIP3   OH213728   0.176   6.356   5.189
21087TIP3    H113729   0.215   6.431   5.234
21087TIP3    H213730   0.232   6.282   5.211
21088TIP3   OH213731   0.764   6.453   5.256
21088TIP3    H113732   0.736   6.455   5.165
21088TIP3    H213733   0.859   6.442   5.252
21089TIP3   OH213734   0.849   7.620   5.247
21089TIP3    H113735   0.885   7.532   5.250
21089TIP3    H213736   0.803   7.624   5.163
21090TIP3   OH213737   0.122   6.934   5.340
21090TIP3    H113738   0.215   6.941   5.322
21090TIP3    H213739   0.080   6.987   5.273
21091TIP3   OH213740   1.652   6.316   5.247
21091TIP3    H113741   1.579   6.366   5.212
21091TIP3    H213742   1.654   6.236   5.195
21092TIP3   OH213743   1.830   5.913   5.308
21092TIP3    H113744   1.916   5.871   5.313
21092TIP3    H213745   1.829   5.976   5.380
21093TIP3   OH213746   0.172   5.782   5.371
21093TIP3    H113747   0.121   5.863   5.377
21093TIP3    H213748   0.111   5.713   5.397
21094TIP3   OH213749   0.480   5.938   5.283
21094TIP3    H113750   0.501   5.997   5.211
21094TIP3    H213751   0.525   5.975   5.359
21095TIP3   OH213752   0.391   7.392   5.252
21095TIP3    H113753   0.348   7.401   5.337
21095TIP3    H213754   0.431   7.478   5.236
21096TIP3   OH213755   2.909   6.410   5.258
21096TIP3    H113756   2.919   6.439   5.349
21096TIP3    H213757   2.975   6.341   5.247
21097TIP3   OH213758   3.548   5.737   5.403
21097TIP3    H113759   3.462   5.754   5.442
21097TIP3    H213760   3.583   5.824   5.384
21098TIP3   OH213761   3.669   7.214   5.272
21098TIP3    H113762   3.665   7.302   5.310
21098TIP3    H213763   3.584   7.176   5.292
21099TIP3   OH213764   3.197   7.413   5.344
21099TIP3    H113765   3.244   7.334   5.371
21099TIP3    H213766   3.182   7.461   5.426
21100TIP3   OH213767   3.373   6.628   5.106
21100TIP3    H113768   3.327   6.690   5.048
21100TIP3    H213769   3.386   6.678   5.187
21101TIP3   OH213770   2.831   6.064   5.220
21101TIP3    H113771   2.844   6.107   5.305
21101TIP3    H213772   2.841   5.971   5.238
21102TIP3   OH213773   2.391   6.375   5.260
21102TIP3    H113774   2.410   6.287   5.229
21102TIP3    H213775   2.472   6.424   5.245
21103TIP3   OH213776   3.111   6.215   5.256
21103TIP3    H113777   3.054   6.168   5.317
21103TIP3    H213778   3.176   6.257   5.312
21104TIP3   OH213779   3.270   6.316   5.453
21104TIP3    H113780   3.260   6.244   5.515
21104TIP3    H213781   3.311   6.386   5.503
21105TIP3   OH213782   2.202   6.675   5.311
21105TIP3    H113783   2.240   6.669   5.398
21105TIP3    H213784   2.142   6.600   5.305
21106TIP3   OH213785   3.201   6.989   5.211
21106TIP3    H113786   3.283   6.953   5.244
21106TIP3    H213787   3.146   7.000   5.289
21107TIP3   OH213788   3.702   7.474   5.372
21107TIP3    H113789   3.784   7.519   5.351
21107TIP3    H213790   3.637   7.544   5.379
21108TIP3   OH213791   2.250   6.939   5.249
21108TIP3    H113792   2.321   6.970   5.306
21108TIP3    H213793   2.243   6.846   5.268
21109TIP3   OH213794   2.121   6.407   5.217
21109TIP3    H113795   2.215   6.407   5.232
21109TIP3    H213796   2.098   6.315   5.203
21110TIP3   OH213797   2.648   6.468   5.184
21110TIP3    H113798   2.657   6.496   5.093
21110TIP3    H213799   2.737   6.442   5.209
21111TIP3   OH213800   2.673   7.574   5.328
21111TIP3    H113801   2.738   7.508   5.306
21111TIP3    H213802   2.613   7.575   5.254
21112TIP3   OH213803   1.986   6.996   5.330
21112TIP3    H113804   2.077   6.981   5.304
21112TIP3    H213805   1.934   6.943   5.269
21113TIP3   OH213806   3.604   6.220   5.230
21113TIP3    H113807   3.600   6.309   5.195
21113TIP3    H213808   3.544   6.170   5.175
21114TIP3   OH213809   3.694   5.946   5.272
21114TIP3    H113810   3.655   5.927   5.187
21114TIP3    H213811   3.672   6.038   5.288
21115TIP3   OH213812   2.079   5.795   5.346
21115TIP3    H113813   2.152   5.857   5.342
21115TIP3    H213814   2.111   5.724   5.401
21116TIP3   OH213815   2.300   5.978   5.270
21116TIP3    H113816   2.340   6.039   5.208
21116TIP3    H213817   2.358   5.981   5.347
21117TIP3   OH213818   2.288   7.461   5.223
21117TIP3    H113819   2.292   7.442   5.317
21117TIP3    H213820   2.313   7.378   5.181
21118TIP3   OH213821   4.797   6.418   5.258
21118TIP3    H113822   4.819   6.445   5.348
21118TIP3    H213823   4.850   6.340   5.243
21119TIP3   OH213824   5.447   5.717   5.423
21119TIP3    H113825   5.354   5.732   5.434
21119TIP3    H213826   5.476   5.786   5.364
21120TIP3   OH213827   5.587   7.159   5.306
21120TIP3    H113828   5.606   7.253   5.308
21120TIP3    H213829   5.551   7.140   5.392
21121TIP3   OH213830   5.104   7.412   5.335
21121TIP3    H113831   5.167   7.340   5.344
21121TIP3    H213832   5.078   7.432   5.425
21122TIP3   OH213833   5.222   6.574   5.166
21122TIP3    H113834   5.177   6.650   5.130
21122TIP3    H213835   5.307   6.608   5.194
21123TIP3   OH213836   4.725   5.999   5.361
21123TIP3    H113837   4.636   6.034   5.366
21123TIP3    H213838   4.714   5.909   5.330
21124TIP3   OH213839   4.317   6.301   5.370
21124TIP3    H113840   4.257   6.291   5.297
21124TIP3    H213841   4.390   6.351   5.335
21125TIP3   OH213842   4.936   6.173   5.252
21125TIP3    H113843   4.875   6.108   5.287
21125TIP3    H213844   4.985   6.202   5.329
21126TIP3   OH213845   5.064   6.294   5.467
21126TIP3    H113846   5.091   6.225   5.527
21126TIP3    H213847   5.127   6.365   5.483
21127TIP3   OH213848   3.927   6.541   5.336
21127TIP3    H113849   3.953   6.557   5.427
21127TIP3    H213850   3.838   6.574   5.331
21128TIP3   OH213851   5.060   7.044   5.278
21128TIP3    H113852   5.138   7.064   5.330
21128TIP3    H213853   4.997   7.011   5.342
21129TIP3   OH213854   5.644   7.422   5.338
21129TIP3    H113855   5.715   7.487   5.339
21129TIP3    H213856   5.569   7.468   5.374
21130TIP3   OH213857   4.183   6.972   5.342
21130TIP3    H113858   4.223   7.060   5.339
21130TIP3    H213859   4.249   6.918   5.385
21131TIP3   OH213860   4.034   6.358   5.156
21131TIP3    H113861   4.009   6.432   5.211
21131TIP3    H213862   3.962   6.296   5.164
21132TIP3   OH213863   4.524   6.452   5.261
21132TIP3    H113864   4.482   6.451   5.175
21132TIP3    H213865   4.618   6.442   5.242
21133TIP3   OH213866   4.617   7.626   5.250
21133TIP3    H113867   4.655   7.539   5.240
21133TIP3    H213868   4.523   7.613   5.234
21134TIP3   OH213869   3.974   6.995   5.160
21134TIP3    H113870   4.028   6.974   5.236
21134TIP3    H213871   3.892   6.948   5.175
21135TIP3   OH213872   5.424   6.357   5.188
21135TIP3    H113873   5.338   6.399   5.177
21135TIP3    H213874   5.416   6.274   5.142
21136TIP3   OH213875   5.569   5.872   5.218
21136TIP3    H113876   5.554   5.817   5.141
21136TIP3    H213877   5.522   5.953   5.199
21137TIP3   OH213878   3.904   5.769   5.320
21137TIP3    H113879   3.954   5.800   5.396
21137TIP3    H213880   3.831   5.831   5.313
21138TIP3   OH213881   4.237   5.970   5.228
21138TIP3    H113882   4.277   6.038   5.173
21138TIP3    H213883   4.284   5.976   5.311
21139TIP3   OH213884   4.193   7.466   5.218
21139TIP3    H113885   4.176   7.452   5.311
21139TIP3    H213886   4.218   7.380   5.184
21140TIP3   OH213887   6.709   6.456   5.275
21140TIP3    H113888   6.730   6.457   5.368
21140TIP3    H213889   6.754   6.378   5.241
21141TIP3   OH213890   7.250   5.800   5.437
21141TIP3    H113891   7.211   5.741   5.372
21141TIP3    H213892   7.317   5.847   5.388
21142TIP3   OH213893   7.468   7.167   5.323
21142TIP3    H113894   7.488   7.260   5.336
21142TIP3    H213895   7.431   7.139   5.407
21143TIP3   OH213896   7.004   7.432   5.358
21143TIP3    H113897   7.064   7.358   5.361
21143TIP3    H213898   6.977   7.444   5.450
21144TIP3   OH213899   7.087   6.639   5.215
21144TIP3    H113900   7.070   6.690   5.136
21144TIP3    H213901   7.181   6.622   5.213
21145TIP3   OH213902   6.639   6.058   5.319
21145TIP3    H113903   6.623   6.027   5.408
21145TIP3    H213904   6.568   6.021   5.267
21146TIP3   OH213905   6.250   6.300   5.387
21146TIP3    H113906   6.219   6.262   5.305
21146TIP3    H213907   6.315   6.366   5.360
21147TIP3   OH213908   6.855   6.214   5.257
21147TIP3    H113909   6.780   6.155   5.268
21147TIP3    H213910   6.901   6.210   5.340
21148TIP3   OH213911   6.988   6.240   5.508
21148TIP3    H113912   7.056   6.173   5.512
21148TIP3    H213913   7.036   6.323   5.505
21149TIP3   OH213914   5.849   6.587   5.341
21149TIP3    H113915   5.858   6.574   5.435
21149TIP3    H213916   5.815   6.676   5.332
21150TIP3   OH213917   6.960   6.954   5.327
21150TIP3    H113918   7.037   6.991   5.371
21150TIP3    H213919   6.898   6.936   5.398
21151TIP3   OH213920   7.523   7.428   5.387
21151TIP3    H113921   7.588   7.494   5.366
21151TIP3    H213922   7.439   7.474   5.379
21152TIP3   OH213923   6.006   7.015   5.249
21152TIP3    H113924   6.014   7.052   5.337
21152TIP3    H213925   6.072   7.061   5.197
21153TIP3   OH213926   5.871   6.399   5.133
21153TIP3    H113927   5.864   6.460   5.207
21153TIP3    H213928   5.888   6.314   5.173
21154TIP3   OH213929   6.433   6.481   5.283
21154TIP3    H113930   6.390   6.483   5.198
21154TIP3    H213931   6.526   6.471   5.262
21155TIP3   OH213932   6.449   7.574   5.345
21155TIP3    H113933   6.502   7.506   5.303
21155TIP3    H213934   6.368   7.576   5.295
21156TIP3   OH213935   5.775   6.886   5.349
21156TIP3    H113936   5.848   6.929   5.304
21156TIP3    H213937   5.701   6.894   5.289
21157TIP3   OH213938   7.367   6.315   5.171
21157TIP3    H113939   7.342   6.323   5.079
21157TIP3    H213940   7.364   6.222   5.189
21158TIP3   OH213941   7.428   5.937   5.263
21158TIP3    H113942   7.397   5.896   5.182
21158TIP3    H213943   7.507   5.889   5.285
21159TIP3   OH213944   5.797   5.730   5.312
21159TIP3    H113945   5.853   5.775   5.375
21159TIP3    H213946   5.720   5.787   5.303
21160TIP3   OH213947   6.080   5.862   5.284
21160TIP3    H113948   6.168   5.883   5.252
21160TIP3    H213949   6.080   5.894   5.374
21161TIP3   OH213950   6.046   7.372   5.278
21161TIP3    H113951   5.958   7.386   5.245
21161TIP3    H213952   6.047   7.416   5.364
21162TIP3   OH213953   8.037   6.333   5.196
21162TIP3    H113954   8.018   6.240   5.207
21162TIP3    H213955   8.133   6.337   5.194
21163TIP3   OH213956   7.784   6.599   5.322
21163TIP3    H113957   7.754   6.571   5.409
21163TIP3    H213958   7.764   6.525   5.265
21164TIP3   OH213959   0.022   6.013   5.403
21164TIP3    H113960   8.118   6.003   5.485
21164TIP3    H213961   0.068   6.096   5.411
21165TIP3   OH213962   7.950   7.013   5.341
21165TIP3    H113963   7.975   7.062   5.419
21165TIP3    H213964   7.986   7.064   5.268
21166TIP3   OH213965   7.772   6.360   5.149
21166TIP3    H113966   7.866   6.358   5.170
21166TIP3    H213967   7.741   6.273   5.172
21167TIP3   OH213968   7.677   6.916   5.341
21167TIP3    H113969   7.709   6.997   5.300
21167TIP3    H213970   7.606   6.887   5.284
21168TIP3   OH213971   7.652   5.792   5.348
21168TIP3    H113972   7.702   5.803   5.429
21168TIP3    H213973   7.600   5.713   5.363
21169TIP3   OH213974   7.949   6.074   5.226
21169TIP3    H113975   7.900   6.001   5.189
21169TIP3    H213976   8.013   6.033   5.284
21170TIP3   OH213977   7.907   7.383   5.211
21170TIP3    H113978   7.826   7.379   5.261
21170TIP3    H213979   7.902   7.466   5.163
21171TIP3   OH213980   1.644   7.650   5.377
21171TIP3    H113981   1.591   7.643   5.456
21171TIP3    H213982   1.634   7.742   5.350
21172TIP3   OH213983   0.989   7.880   5.310
21172TIP3    H113984   0.990   7.889   5.405
21172TIP3    H213985   0.944   7.796   5.295
21173TIP3   OH213986   0.102   8.051   5.338
21173TIP3    H113987   0.071   8.058   5.248
21173TIP3    H213988   0.140   8.136   5.358
21174TIP3   OH213989   1.246   7.991   5.247
21174TIP3    H113990   1.165   7.949   5.278
21174TIP3    H213991   1.309   7.977   5.318
21175TIP3   OH213992   1.752   7.865   5.194
21175TIP3    H113993   1.792   7.779   5.178
21175TIP3    H213994   1.810   7.908   5.256
21176TIP3   OH213995   0.177   7.670   5.376
21176TIP3    H113996   0.248   7.734   5.366
21176TIP3    H213997   0.217   7.597   5.424
21177TIP3   OH213998   0.397   7.828   5.262
21177TIP3    H113999   0.382   7.913   5.219
21177TIP3    H214000   0.464   7.846   5.328
21178TIP3   OH214001   3.544   7.688   5.474
21178TIP3    H114002   3.453   7.714   5.487
21178TIP3    H214003   3.572   7.737   5.396
21179TIP3   OH214004   2.880   7.888   5.317
21179TIP3    H114005   2.886   7.900   5.412
21179TIP3    H214006   2.846   7.799   5.306
21180TIP3   OH214007   1.971   7.941   5.436
21180TIP3    H114008   1.954   8.033   5.419
21180TIP3    H214009   1.903   7.914   5.497
21181TIP3   OH214010   3.159   7.941   5.289
21181TIP3    H114011   3.067   7.921   5.307
21181TIP3    H214012   3.206   7.906   5.365
21182TIP3   OH214013   3.685   7.800   5.266
21182TIP3    H114014   3.681   7.805   5.170
21182TIP3    H214015   3.733   7.878   5.292
21183TIP3   OH214016   1.992   7.675   5.356
21183TIP3    H114017   1.991   7.769   5.373
21183TIP3    H214018   2.000   7.635   5.443
21184TIP3   OH214019   2.270   7.844   5.267
21184TIP3    H114020   2.227   7.788   5.203
21184TIP3    H214021   2.364   7.830   5.252
21185TIP3   OH214022   5.464   7.613   5.425
21185TIP3    H114023   5.368   7.619   5.426
21185TIP3    H214024   5.492   7.679   5.362
21186TIP3   OH214025   4.731   7.878   5.273
21186TIP3    H114026   4.673   7.906   5.343
21186TIP3    H214027   4.704   7.787   5.255
21187TIP3   OH214028   3.816   8.034   5.335
21187TIP3    H114029   3.891   8.093   5.341
21187TIP3    H214030   3.740   8.090   5.348
21188TIP3   OH214031   4.994   7.974   5.268
21188TIP3    H114032   4.906   7.936   5.277
21188TIP3    H214033   5.033   7.962   5.354
21189TIP3   OH214034   5.603   7.795   5.270
21189TIP3    H114035   5.583   7.795   5.177
21189TIP3    H214036   5.630   7.885   5.289
21190TIP3   OH214037   3.940   7.634   5.405
21190TIP3    H114038   4.017   7.689   5.396
21190TIP3    H214039   3.883   7.680   5.466
21191TIP3   OH214040   4.158   7.804   5.380
21191TIP3    H114041   4.148   7.806   5.284
21191TIP3    H214042   4.242   7.846   5.397
21192TIP3   OH214043   7.299   7.580   5.385
21192TIP3    H114044   7.204   7.587   5.377
21192TIP3    H214045   7.333   7.662   5.348
21193TIP3   OH214046   6.592   7.891   5.292
21193TIP3    H114047   6.517   7.925   5.340
21193TIP3    H214048   6.576   7.797   5.286
21194TIP3   OH214049   5.689   8.046   5.337
21194TIP3    H114050   5.753   8.118   5.337
21194TIP3    H214051   5.609   8.085   5.370
21195TIP3   OH214052   6.856   7.987   5.263
21195TIP3    H114053   6.768   7.955   5.283
21195TIP3    H214054   6.899   7.992   5.349
21196TIP3   OH214055   7.455   7.786   5.280
21196TIP3    H114056   7.440   7.782   5.186
21196TIP3    H214057   7.502   7.869   5.293
21197TIP3   OH214058   5.814   7.641   5.354
21197TIP3    H114059   5.868   7.696   5.411
21197TIP3    H214060   5.738   7.695   5.334
21198TIP3   OH214061   6.115   7.834   5.223
21198TIP3    H114062   6.140   7.913   5.176
21198TIP3    H214063   6.161   7.840   5.307
21199TIP3   OH214064   7.637   7.966   5.380
21199TIP3    H114065   7.728   7.938   5.388
21199TIP3    H214066   7.643   8.061   5.366
21200TIP3   OH214067   8.094   7.830   5.403
21200TIP3    H114068   8.143   7.913   5.397
21200TIP3    H214069   0.018   7.763   5.401
21201TIP3   OH214070   7.689   7.647   5.350
21201TIP3    H114071   7.740   7.695   5.415
21201TIP3    H214072   7.613   7.702   5.333
21202TIP3   OH214073   7.939   7.870   5.176
21202TIP3    H114074   7.989   7.932   5.122
21202TIP3    H214075   7.993   7.858   5.254
21203CLA    CLA14076   0.971   0.680   4.438
21204CLA    CLA14077   7.833   0.867   4.650
21205CLA    CLA14078   7.203   5.788   4.359
21206CLA    CLA14079   7.044   7.788   3.854
21207CLA    CLA14080   6.338   4.146   6.795
21208PMB     O114081   7.312   7.773  14.803
21208PMB     O214082   7.533   7.789  15.263
21208PMB     O314083   7.552   0.272  15.059
21208PMB     O414084   7.408   0.111  15.457
21208PMB     O514085   7.355   0.117  14.623
21208PMB     O614086   8.099   0.426  14.576
21208PMB     O714087   8.035   0.184  15.380
21208PMB     O814088   7.637   0.762  15.192
21208PMB     O914089   7.772   0.341  14.783
21208PMB    O1014090   8.055   8.134  14.709
21208PMB    O1114091   7.811   0.556  15.541
21208PMB    O1214092   7.648   0.592  15.781
21208PMB    O1314093   7.431   0.568  15.259
21208PMB     N114094   7.359   7.836  15.136
21208PMB     N214095   7.402   7.976  14.855
21208PMB     N314096   7.382   8.041  15.426
21208PMB     N414097   7.570   0.151  15.247
21208PMB     N514098   7.849   0.219  15.267
21208PMB     N614099   7.555   0.100  14.712
21208PMB     N714100   7.967   0.499  15.400
21208PMB     N814101   7.855   0.224  14.613
21208PMB     N914102   8.005   0.111  14.883
21208PMB    N1014103   7.629   0.492  15.310
21208PMB    N1114104   7.530   0.572  15.593
21208PMB    N1214105   6.998   8.065  14.739
21208PMB    N1314106   7.122   0.034  15.237
21208PMB    N1414107   0.248   0.507  15.252
21208PMB    N1514108   7.522   0.608  14.650
21208PMB    N1614109   7.069   0.439  15.443
21208PMB     C114110   7.419   7.773  15.018
21208PMB     C214111   7.409   7.613  15.015
21208PMB     C314112   7.494   7.535  15.123
21208PMB     C414113   7.765   0.138  15.751
21208PMB     C514114   7.700   0.273  15.793
21208PMB     C614115   7.364   7.902  15.383
21208PMB     C714116   7.384   8.041  14.722
21208PMB     C814117   7.776   0.261  15.150
21208PMB     C914118   7.374   7.842  14.884
21208PMB    C1014119   7.553   0.263  15.836
21208PMB    C1114120   7.471   0.042  15.239
21208PMB    C1214121   7.835   0.181  15.033
21208PMB    C1314122   7.424   7.841  15.255
21208PMB    C1414123   7.498   0.388  15.908
21208PMB    C1514124   7.873   0.153  15.639
21208PMB    C1614125   7.428   7.823  15.501
21208PMB    C1714126   7.478   7.382  15.142
21208PMB    C1814127   7.645   7.550  15.103
21208PMB    C1914128   7.234   8.033  14.676
21208PMB    C2014129   8.017   0.409  15.298
21208PMB    C2114130   7.606   0.227  14.650
21208PMB    C2214131   7.354   0.049  15.135
21208PMB    C2314132   7.623   0.228  15.149
21208PMB    C2414133   7.419   0.017  15.379
21208PMB    C2514134   7.969   0.218  14.974
21208PMB    C2614135   7.433   0.045  14.685
21208PMB    C2714136   7.997   0.213  14.650
21208PMB    C2814137   7.663   0.027  15.724
21208PMB    C2914138   7.440   0.494  15.813
21208PMB    C3014139   7.744   0.582  15.312
21208PMB    C3114140   7.966   0.264  15.317
21208PMB    C3214141   7.452   0.497  15.493
21208PMB    C3314142   0.029   0.400  15.309
21208PMB    C3414143   7.521   0.357  14.681
21208PMB    C3514144   7.752   0.266  14.688
21208PMB    C3614145   8.083   0.336  14.684
21208PMB    C3714146   7.136   8.111  14.766
21208PMB    C3814147   7.400   7.676  15.502
21208PMB    C3914148   8.021   0.101  14.750
21208PMB    C4014149   7.842   0.545  15.423
21208PMB    C4114150   7.704   0.730  15.313
21208PMB    C4214151   8.015   0.100  15.663
21208PMB    C4314152   7.227   0.124  15.179
21208PMB    C4414153   7.545   0.554  15.727
21208PMB    C4514154   7.297   0.513  15.513
21208PMB    C4614155   7.503   0.524  15.348
21208PMB    C4714156   0.103   0.532  15.281
21208PMB    C4814157   7.565   0.476  14.593
21208PMB    C4914158   0.082   0.295  14.724
21208PMB    C5014159   7.204   0.480  15.395
21208PMB    C5114160   7.822   0.824  15.318
21208PMB    C5214161   7.504   7.582  15.488
21208PMB    C5314162   7.269   7.634  15.520
21208PMB    C5414163   7.475   7.446  15.497
21208PMB    C5514164   7.240   7.498  15.527
21208PMB    C5614165   7.344   7.405  15.520
21208PMB     H114166   7.530   7.782  15.020
21208PMB     H214167   7.447   7.582  14.916
21208PMB     H314168   7.302   7.585  15.022
21208PMB     H414169   7.465   7.575  15.223
21208PMB     H514170   7.818   0.098  15.841
21208PMB     H614171   7.711   0.347  15.712
21208PMB     H714172   7.756   0.314  15.880
21208PMB     H814173   7.255   7.882  15.381
21208PMB     H914174   7.438   7.975  14.651
21208PMB    H1014175   7.789   0.369  15.129
21208PMB    H1114176   7.265   7.868  15.126
21208PMB    H1214177   7.545   0.181  15.910
21208PMB    H1314178   7.487   0.238  15.750
21208PMB    H1414179   7.531   8.097  15.212
21208PMB    H1514180   7.766   0.185  14.946
21208PMB    H1614181   7.845   0.075  15.067
21208PMB    H1714182   7.458   8.029  14.919
21208PMB    H1814183   7.413   0.354  15.971
21208PMB    H1914184   7.573   0.430  15.977
21208PMB    H2014185   7.882   0.261  15.614
21208PMB    H2114186   7.835   0.101  15.549
21208PMB    H2214187   7.392   7.864  15.598
21208PMB    H2314188   7.538   7.836  15.502
21208PMB    H2414189   7.504   7.325  15.051
21208PMB    H2514190   7.377   7.352  15.178
21208PMB    H2614191   7.549   7.348  15.220
21208PMB    H2714192   7.673   7.656  15.088
21208PMB    H2814193   7.677   7.493  15.013
21208PMB    H2914194   7.701   7.510  15.190
21208PMB    H3014195   7.990   0.445  15.197
21208PMB    H3114196   7.204   7.926  14.673
21208PMB    H3214197   7.223   8.067  14.571
21208PMB    H3314198   7.604   0.212  14.540
21208PMB    H3414199   7.358   8.052  15.522
21208PMB    H3514200   7.326   8.090  15.104
21208PMB    H3614201   7.394   0.097  15.043
21208PMB    H3714202   7.961   0.318  14.927
21208PMB    H3814203   8.046   0.225  15.053
21208PMB    H3914204   7.618   0.157  15.335
21208PMB    H4014205   7.837   0.121  15.286
21208PMB    H4114206   8.043   0.173  14.557
21208PMB    H4214207   7.606   0.043  15.630
21208PMB    H4314208   7.591   0.012  15.808
21208PMB    H4414209   7.719   8.075  15.719
21208PMB    H4514210   7.398   0.576  15.874
21208PMB    H4614211   7.357   0.446  15.757
21208PMB    H4714212   7.799   0.566  15.217
21208PMB    H4814213   7.627   0.037  14.741
21208PMB    H4914214   7.469   0.389  15.511
21208PMB    H5014215   0.065   0.324  15.236
21208PMB    H5114216   0.059   0.365  15.411
21208PMB    H5214217   7.529   0.380  14.790
21208PMB    H5314218   7.414   0.341  14.658
21208PMB    H5414219   8.024   0.500  15.482
21208PMB    H5514220   8.034   0.395  14.765
21208PMB    H5614221   7.833   0.168  14.533
21208PMB    H5714222   8.027   0.025  14.929
21208PMB    H5814223   7.157   8.097  14.873
21208PMB    H5914224   7.140   0.075  14.746
21208PMB    H6014225   7.637   0.751  15.399
21208PMB    H6114226   8.037   0.078  15.770
21208PMB    H6214227   8.091   0.172  15.627
21208PMB    H6314228   8.032   0.008  15.603
21208PMB    H6414229   7.248   0.204  15.251
21208PMB    H6514230   7.181   0.170  15.091
21208PMB    H6614231   7.273   0.614  15.553
21208PMB    H6714232   7.270   0.438  15.590
21208PMB    H6814233   7.619   0.471  15.213
21208PMB    H6914234   7.605   0.626  15.557
21208PMB    H7014235   0.060   0.581  15.193
21208PMB    H7114236   0.097   0.602  15.366
21208PMB    H7214237   7.674   0.483  14.580
21208PMB    H7314238   7.522   0.467  14.492
21208PMB    H7414239   0.143   0.385  14.746
21208PMB    H7514240   0.131   0.238  14.642
21208PMB    H7614241   0.085   0.233  14.816
21208PMB    H7714242   7.191   0.565  15.327
21208PMB    H7814243   7.245   0.396  15.337
21208PMB    H7914244   7.782   0.927  15.332
21208PMB    H8014245   7.879   0.822  15.222
21208PMB    H8114246   7.890   0.802  15.402
21208PMB    H8214247   7.606   7.614  15.472
21208PMB    H8314248   7.191   7.708  15.528
21208PMB    H8414249   6.978   7.979  14.794
21208PMB    H8514250   6.989   8.036  14.639
21208PMB    H8614251   7.140   0.006  15.336
21208PMB    H8714252   7.113   8.091  15.180
21208PMB    H8814253   0.016   0.383  14.515
21208PMB    H8914254   7.583   0.840  15.209
21208PMB    H9014255   7.555   7.373  15.489
21208PMB    H9114256   7.138   7.466  15.544
21208PMB    H9214257   0.261   0.453  15.164
21208PMB    H9314258   0.292   0.454  15.329
21208PMB    H9414259   7.567   0.629  14.741
21208PMB    H9514260   7.418   0.614  14.660
21208PMB    H9614261   7.322   7.301  15.542
21208PMB    H9714262   7.019   0.517  15.490
21208PMB    H9814263   7.080   0.362  15.512
21208PMB    H9914264   6.927   8.138  14.757
21208PMB   H10014265   7.030   0.081  15.234
21208PMB   H10114266   0.303   0.594  15.239
21208PMB   H10214267   7.551   0.680  14.582
21208PMB   H10314268   7.011   0.406  15.363
   8.14401   8.14401  19.47255
