Title
51703
    1ECLIP HB6S    1   4.107   4.590   6.660
    1ECLIP  OB6    2   4.244   4.487   6.778
    1ECLIP  CB6    3   4.213   4.599   6.691
    1ECLIP HB6R    4   4.224   4.696   6.747
    1ECLIP  CB5    5   4.297   4.617   6.566
    1ECLIP  OB5    6   4.300   4.488   6.507
    1ECLIP  HB5    7   4.400   4.647   6.595
    1ECLIP  CB1    8   4.385   4.484   6.392
    1ECLIP  HB1    9   4.487   4.518   6.420
    1ECLIP  OA6   10   4.396   4.354   6.340
    1ECLIP  CA6   11   4.277   4.277   6.359
    1ECLIP HA6R   12   4.185   4.340   6.353
    1ECLIP HA6S   13   4.278   4.230   6.459
    1ECLIP  CB4   14   4.238   4.721   6.467
    1ECLIP  HB4   15   4.133   4.694   6.443
    1ECLIP  OB4   16   4.244   4.848   6.535
    1ECLIP   PB   17   4.127   4.964   6.554
    1ECLIP OPB4   18   4.149   5.034   6.688
    1ECLIP OPB3   19   3.991   4.894   6.561
    1ECLIP OPB2   20   4.137   5.060   6.438
    1ECLIP  CB3   21   4.324   4.717   6.340
    1ECLIP  OB3   22   4.267   4.800   6.238
    1ECLIP  HB3   23   4.426   4.750   6.370
    1ECLIP  C71   24   4.350   4.850   6.148
    1ECLIP  O71   25   4.472   4.844   6.155
    1ECLIP  C72   26   4.282   4.867   6.013
    1ECLIP H72R   27   4.317   4.784   5.948
    1ECLIP H72S   28   4.318   4.962   5.969
    1ECLIP  CB2   29   4.330   4.574   6.285
    1ECLIP  HB2   30   4.225   4.543   6.264
    1ECLIP  NB2   31   4.408   4.557   6.160
    1ECLIP HNB2   32   4.506   4.576   6.169
    1ECLIP  CA4   33   4.405   4.118   6.205
    1ECLIP  HA4   34   4.465   4.203   6.165
    1ECLIP  OA4   35   4.474   4.060   6.316
    1ECLIP HOA4   36   4.469   4.117   6.393
    1ECLIP  CA5   37   4.271   4.172   6.252
    1ECLIP  HA5   38   4.206   4.090   6.287
    1ECLIP  OA5   39   4.209   4.236   6.141
    1ECLIP  CA1   40   4.178   4.148   6.032
    1ECLIP  HA1   41   4.131   4.209   5.952
    1ECLIP  OA1   42   4.091   4.043   6.070
    1ECLIP OPA2   43   3.927   4.027   6.262
    1ECLIP OPA3   44   3.906   4.224   6.106
    1ECLIP OPA4   45   3.845   3.990   6.039
    1ECLIP   PA   46   3.940   4.079   6.120
    1ECLIP  CA3   47   4.382   4.019   6.092
    1ECLIP  HA3   48   4.314   3.941   6.134
    1ECLIP  OA3   49   4.499   3.947   6.047
    1ECLIP  C31   50   4.604   4.014   5.993
    1ECLIP  O31   51   4.654   3.974   5.888
    1ECLIP  C32   52   4.709   4.030   6.106
    1ECLIP H32R   53   4.794   3.967   6.073
    1ECLIP H32S   54   4.671   3.986   6.201
    1ECLIP  CA2   55   4.306   4.088   5.978
    1ECLIP  HA2   56   4.368   4.171   5.938
    1ECLIP  NA2   57   4.269   3.997   5.872
    1ECLIP HNA2   58   4.227   3.913   5.906
    1ECLIP  C73   59   4.129   4.868   6.016
    1ECLIP H73R   60   4.095   4.927   6.103
    1ECLIP  O73   61   4.086   4.732   6.025
    1ECLIP  C81   62   3.967   4.713   6.083
    1ECLIP  O81   63   3.891   4.804   6.115
    1ECLIP  C82   64   3.915   4.577   6.037
    1ECLIP H82R   65   3.813   4.563   6.079
    1ECLIP H82S   66   3.981   4.498   6.078
    1ECLIP  C83   67   3.911   4.569   5.884
    1ECLIP H83R   68   4.016   4.570   5.848
    1ECLIP H83S   69   3.859   4.657   5.841
    1ECLIP  C84   70   3.846   4.441   5.830
    1ECLIP H84R   71   3.736   4.446   5.842
    1ECLIP H84S   72   3.883   4.354   5.888
    1ECLIP  C85   73   3.884   4.422   5.682
    1ECLIP H85R   74   3.994   4.404   5.679
    1ECLIP H85S   75   3.863   4.517   5.629
    1ECLIP  C86   76   3.813   4.307   5.611
    1ECLIP H86R   77   3.706   4.333   5.598
    1ECLIP H86S   78   3.818   4.216   5.676
    1ECLIP  C87   79   3.877   4.274   5.476
    1ECLIP H87R   80   3.812   4.201   5.421
    1ECLIP H87S   81   3.975   4.226   5.493
    1ECLIP  C88   82   3.899   4.399   5.388
    1ECLIP H88R   83   3.971   4.465   5.441
    1ECLIP H88S   84   3.804   4.455   5.377
    1ECLIP  C89   85   3.960   4.369   5.250
    1ECLIP H89R   86   4.042   4.296   5.259
    1ECLIP H89S   87   4.003   4.465   5.214
    1ECLIP C810   88   3.858   4.321   5.148
    1ECLIPH810R   89   3.762   4.374   5.161
    1ECLIPH810S   90   3.838   4.213   5.165
    1ECLIP C811   91   3.907   4.342   5.002
    1ECLIPH811R   92   3.834   4.292   4.936
    1ECLIPH811S   93   4.005   4.290   4.990
    1ECLIP C812   94   3.922   4.489   4.960
    1ECLIPH812R   95   3.950   4.493   4.852
    1ECLIPH812S   96   4.005   4.537   5.016
    1ECLIP C813   97   3.797   4.575   4.983
    1ECLIPH813R   98   3.708   4.521   4.946
    1ECLIPH813S   99   3.783   4.588   5.094
    1ECLIP C814  100   3.805   4.712   4.917
    1ECLIPH814R  101   3.821   4.702   4.807
    1ECLIPH814S  102   3.889   4.771   4.960
    1ECLIPH814T  103   3.711   4.769   4.934
    1ECLIP  C74  104   4.070   4.931   5.886
    1ECLIP H74R  105   4.092   5.039   5.885
    1ECLIP H74S  106   3.959   4.920   5.895
    1ECLIP  C75  107   4.112   4.872   5.749
    1ECLIP H75R  108   4.030   4.897   5.679
    1ECLIP H75S  109   4.114   4.761   5.757
    1ECLIP  C76  110   4.243   4.925   5.688
    1ECLIP H76R  111   4.330   4.886   5.745
    1ECLIP H76S  112   4.244   5.036   5.695
    1ECLIP  C77  113   4.256   4.886   5.540
    1ECLIP H77R  114   4.170   4.928   5.485
    1ECLIP H77S  115   4.248   4.775   5.532
    1ECLIP  C78  116   4.387   4.931   5.472
    1ECLIP H78R  117   4.390   5.042   5.472
    1ECLIP H78S  118   4.474   4.896   5.533
    1ECLIP  C79  119   4.405   4.879   5.327
    1ECLIP H79R  120   4.445   4.776   5.332
    1ECLIP H79S  121   4.482   4.942   5.278
    1ECLIP C710  122   4.275   4.879   5.245
    1ECLIPH710R  123   4.212   4.794   5.280
    1ECLIPH710S  124   4.219   4.972   5.264
    1ECLIP C711  125   4.295   4.866   5.091
    1ECLIPH711R  126   4.343   4.959   5.056
    1ECLIPH711S  127   4.366   4.783   5.070
    1ECLIP C712  128   4.163   4.839   5.016
    1ECLIPH712R  129   4.081   4.837   5.091
    1ECLIPH712S  130   4.166   4.737   4.974
    1ECLIP C713  131   4.122   4.941   4.907
    1ECLIPH713R  132   4.033   4.901   4.853
    1ECLIPH713S  133   4.087   5.032   4.959
    1ECLIP C714  134   4.228   4.981   4.804
    1ECLIPH714R  135   4.211   5.085   4.768
    1ECLIPH714S  136   4.331   4.974   4.844
    1ECLIPH714T  137   4.220   4.918   4.712
    1ECLIP  C51  138   4.358   4.523   6.039
    1ECLIP  O51  139   4.241   4.498   6.021
    1ECLIP  C52  140   4.456   4.520   5.924
    1ECLIP H52R  141   4.490   4.623   5.903
    1ECLIP H52S  142   4.543   4.459   5.954
    1ECLIP  C53  143   4.392   4.458   5.796
    1ECLIP H53R  144   4.333   4.367   5.822
    1ECLIP  O53  145   4.494   4.429   5.700
    1ECLIP  C61  146   4.534   4.303   5.697
    1ECLIP  O61  147   4.544   4.232   5.795
    1ECLIP  C62  148   4.619   4.284   5.572
    1ECLIP H62R  149   4.721   4.257   5.606
    1ECLIP H62S  150   4.622   4.379   5.516
    1ECLIP  C63  151   4.561   4.173   5.483
    1ECLIP H63R  152   4.455   4.192   5.458
    1ECLIP H63S  153   4.566   4.077   5.538
    1ECLIP  C64  154   4.642   4.160   5.353
    1ECLIP H64R  155   4.627   4.058   5.311
    1ECLIP H64S  156   4.749   4.172   5.381
    1ECLIP  C65  157   4.609   4.265   5.247
    1ECLIP H65R  158   4.614   4.364   5.296
    1ECLIP H65S  159   4.505   4.249   5.212
    1ECLIP  C66  160   4.704   4.269   5.127
    1ECLIP H66R  161   4.805   4.298   5.162
    1ECLIP H66S  162   4.673   4.346   5.054
    1ECLIP  C67  163   4.713   4.136   5.052
    1ECLIP H67R  164   4.747   4.061   5.127
    1ECLIP H67S  165   4.787   4.145   4.970
    1ECLIP  C68  166   4.580   4.083   4.999
    1ECLIP H68R  167   4.521   4.170   4.962
    1ECLIP H68S  168   4.522   4.039   5.083
    1ECLIP  C69  169   4.597   3.980   4.887
    1ECLIP H69R  170   4.649   3.891   4.926
    1ECLIP H69S  171   4.662   4.024   4.808
    1ECLIP C610  172   4.462   3.941   4.826
    1ECLIPH610R  173   4.393   4.028   4.830
    1ECLIPH610S  174   4.418   3.860   4.888
    1ECLIP C611  175   4.468   3.894   4.681
    1ECLIPH611R  176   4.551   3.821   4.668
    1ECLIPH611S  177   4.373   3.841   4.658
    1ECLIP C612  178   4.486   4.008   4.579
    1ECLIPH612R  179   4.401   4.079   4.587
    1ECLIPH612S  180   4.580   4.063   4.601
    1ECLIPH612T  181   4.491   3.969   4.476
    1ECLIP  C54  182   4.299   4.557   5.723
    1ECLIP H54R  183   4.354   4.652   5.705
    1ECLIP H54S  184   4.216   4.579   5.793
    1ECLIP  C55  185   4.238   4.506   5.590
    1ECLIP H55R  186   4.148   4.568   5.570
    1ECLIP H55S  187   4.205   4.401   5.603
    1ECLIP  C56  188   4.331   4.517   5.469
    1ECLIP H56R  189   4.412   4.442   5.476
    1ECLIP H56S  190   4.380   4.617   5.467
    1ECLIP  C57  191   4.258   4.493   5.335
    1ECLIP H57R  192   4.172   4.563   5.327
    1ECLIP H57S  193   4.219   4.389   5.339
    1ECLIP  C58  194   4.348   4.508   5.212
    1ECLIP H58R  195   4.373   4.615   5.196
    1ECLIP H58S  196   4.444   4.457   5.236
    1ECLIP  C59  197   4.291   4.446   5.084
    1ECLIP H59R  198   4.204   4.506   5.051
    1ECLIP H59S  199   4.254   4.344   5.109
    1ECLIP C510  200   4.392   4.435   4.969
    1ECLIPH510R  201   4.485   4.389   5.009
    1ECLIPH510S  202   4.418   4.538   4.934
    1ECLIP C511  203   4.343   4.348   4.853
    1ECLIPH511R  204   4.338   4.243   4.887
    1ECLIPH511S  205   4.240   4.379   4.827
    1ECLIP C512  206   4.429   4.356   4.726
    1ECLIPH512R  207   4.381   4.293   4.646
    1ECLIPH512S  208   4.429   4.461   4.689
    1ECLIP C513  209   4.577   4.319   4.736
    1ECLIPH513R  210   4.585   4.212   4.764
    1ECLIPH513S  211   4.625   4.379   4.816
    1ECLIP C514  212   4.650   4.340   4.604
    1ECLIPH514R  213   4.655   4.449   4.579
    1ECLIPH514S  214   4.754   4.300   4.610
    1ECLIPH514T  215   4.597   4.288   4.521
    1ECLIP  C33  216   4.766   4.172   6.130
    1ECLIP H33R  217   4.876   4.165   6.146
    1ECLIP  O33  218   4.711   4.224   6.249
    1ECLIP HO33  219   4.636   4.176   6.286
    1ECLIP  C34  220   4.736   4.270   6.017
    1ECLIP H34R  221   4.627   4.289   6.017
    1ECLIP H34S  222   4.759   4.219   5.921
    1ECLIP  C35  223   4.812   4.405   6.016
    1ECLIP H35R  224   4.916   4.392   6.051
    1ECLIP H35S  225   4.761   4.473   6.087
    1ECLIP  C36  226   4.812   4.465   5.873
    1ECLIP H36R  227   4.723   4.423   5.822
    1ECLIP H36S  228   4.901   4.430   5.816
    1ECLIP  C37  229   4.798   4.617   5.865
    1ECLIP H37R  230   4.897   4.665   5.878
    1ECLIP H37S  231   4.731   4.653   5.946
    1ECLIP  C38  232   4.735   4.664   5.730
    1ECLIP H38R  233   4.628   4.634   5.726
    1ECLIP H38S  234   4.738   4.775   5.726
    1ECLIP  C39  235   4.805   4.606   5.605
    1ECLIP H39R  236   4.778   4.499   5.594
    1ECLIP H39S  237   4.914   4.610   5.627
    1ECLIP C310  238   4.775   4.684   5.476
    1ECLIPH310R  239   4.868   4.736   5.446
    1ECLIPH310S  240   4.697   4.761   5.495
    1ECLIP C311  241   4.731   4.601   5.354
    1ECLIPH311R  242   4.799   4.514   5.342
    1ECLIPH311S  243   4.629   4.563   5.372
    1ECLIP C312  244   4.733   4.684   5.224
    1ECLIPH312R  245   4.663   4.769   5.235
    1ECLIPH312S  246   4.835   4.726   5.209
    1ECLIP C313  247   4.698   4.604   5.098
    1ECLIPH313R  248   4.779   4.529   5.082
    1ECLIPH313S  249   4.603   4.550   5.117
    1ECLIP C314  250   4.682   4.687   4.970
    1ECLIPH314R  251   4.779   4.732   4.939
    1ECLIPH314S  252   4.645   4.624   4.887
    1ECLIPH314T  253   4.608   4.769   4.986
    1ECLIP  C11  254   4.243   4.032   5.745
    1ECLIP  O11  255   4.289   4.132   5.690
    1ECLIP  C12  256   4.144   3.943   5.674
    1ECLIP H12R  257   4.043   3.969   5.712
    1ECLIP H12S  258   4.165   3.837   5.698
    1ECLIP  C13  259   4.149   3.963   5.521
    1ECLIP H13R  260   4.132   4.070   5.497
    1ECLIP  O13  261   4.045   3.886   5.465
    1ECLIP HO13  262   3.957   3.910   5.497
    1ECLIP  C14  263   4.283   3.917   5.458
    1ECLIP H14R  264   4.303   3.815   5.495
    1ECLIP H14S  265   4.364   3.984   5.495
    1ECLIP  C15  266   4.286   3.914   5.304
    1ECLIP H15R  267   4.214   3.836   5.271
    1ECLIP H15S  268   4.387   3.883   5.270
    1ECLIP  C16  269   4.249   4.048   5.236
    1ECLIP H16R  270   4.328   4.122   5.259
    1ECLIP H16S  271   4.154   4.087   5.278
    1ECLIP  C17  272   4.232   4.034   5.084
    1ECLIP H17R  273   4.317   3.973   5.046
    1ECLIP H17S  274   4.236   4.135   5.039
    1ECLIP  C18  275   4.099   3.967   5.043
    1ECLIP H18R  276   4.087   3.873   5.101
    1ECLIP H18S  277   4.015   4.034   5.072
    1ECLIP  C19  278   4.090   3.933   4.893
    1ECLIP H19R  279   3.997   3.876   4.877
    1ECLIP H19S  280   4.176   3.868   4.866
    1ECLIP C110  281   4.090   4.056   4.801
    1ECLIPH110R  282   4.007   4.124   4.832
    1ECLIPH110S  283   4.185   4.112   4.814
    1ECLIP C111  284   4.073   4.020   4.653
    1ECLIPH111R  285   4.152   3.946   4.625
    1ECLIPH111S  286   3.974   3.972   4.639
    1ECLIP C112  287   4.085   4.142   4.561
    1ECLIPH112R  288   4.014   4.221   4.595
    1ECLIPH112S  289   4.187   4.184   4.569
    1ECLIP C113  290   4.055   4.108   4.414
    1ECLIPH113R  291   4.113   4.017   4.387
    1ECLIPH113S  292   3.947   4.082   4.405
    1ECLIP C114  293   4.090   4.221   4.318
    1ECLIPH114R  294   4.036   4.314   4.347
    1ECLIPH114S  295   4.199   4.242   4.320
    1ECLIPH114T  296   4.060   4.194   4.214
    2AKDO    C1  297   4.470   4.547   6.833
    2AKDO   O11  298   4.526   4.653   6.872
    2AKDO   O12  299   4.526   4.446   6.780
    2AKDO    C2  300   4.326   4.521   6.891
    2AKDO    C6  301   4.137   4.606   7.011
    2AKDO    H6  302   4.078   4.564   6.927
    2AKDO    O6  303   4.270   4.634   6.962
    2AKDO    C3  304   4.329   4.404   6.991
    2AKDO   H31  305   4.399   4.433   7.073
    2AKDO   H32  306   4.370   4.315   6.938
    2AKDO    C4  307   4.197   4.370   7.051
    2AKDO    H4  308   4.128   4.335   6.971
    2AKDO    O4  309   4.213   4.268   7.153
    2AKDO    C5  310   4.137   4.495   7.118
    2AKDO    H5  311   4.030   4.469   7.134
    2AKDO    O5  312   4.194   4.528   7.248
    2AKDO    C7  313   4.071   4.741   7.038
    2AKDO    H7  314   4.125   4.794   7.120
    2AKDO    O7  315   3.933   4.727   7.070
    2AKDO   HO7  316   3.902   4.812   7.039
    2AKDO    C8  317   4.077   4.825   6.910
    2AKDO   H81  318   4.184   4.847   6.887
    2AKDO   H82  319   4.036   4.767   6.825
    2AKDO    O8  320   4.009   4.951   6.914
    2AKDO   HO8  321   4.050   4.994   6.839
    3AKDO    C1  322   4.166   4.063   7.013
    3AKDO   O11  323   4.224   3.969   6.952
    3AKDO   O12  324   4.041   4.060   7.036
    3AKDO    C2  325   4.253   4.135   7.122
    3AKDO    C6  326   4.486   4.167   7.181
    3AKDO    H6  327   4.468   4.275   7.200
    3AKDO    O6  328   4.391   4.118   7.084
    3AKDO    C3  329   4.235   4.065   7.257
    3AKDO   H31  330   4.252   3.956   7.241
    3AKDO   H32  331   4.130   4.078   7.290
    3AKDO    C4  332   4.329   4.115   7.362
    3AKDO    H4  333   4.315   4.224   7.377
    3AKDO    O4  334   4.298   4.049   7.485
    3AKDO   HO4  335   4.245   4.108   7.539
    3AKDO    C5  336   4.471   4.092   7.314
    3AKDO    H5  337   4.542   4.135   7.388
    3AKDO    O5  338   4.501   3.953   7.297
    3AKDO   HO5  339   4.479   3.936   7.205
    3AKDO    C7  340   4.623   4.153   7.115
    3AKDO    H7  341   4.643   4.045   7.096
    3AKDO    O7  342   4.724   4.206   7.202
    3AKDO   HO7  343   4.760   4.278   7.149
    3AKDO    C8  344   4.629   4.224   6.981
    3AKDO   H81  345   4.552   4.182   6.912
    3AKDO   H82  346   4.606   4.332   6.995
    3AKDO    O8  347   4.757   4.210   6.919
    3AKDO   HO8  348   4.759   4.278   6.851
    4AHEP    C1  349   4.098   4.576   7.342
    4AHEP    H1  350   4.055   4.669   7.299
    4AHEP    C5  351   4.027   4.366   7.431
    4AHEP    H5  352   4.115   4.324   7.378
    4AHEP    O5  353   3.988   4.485   7.361
    4AHEP    C2  354   4.152   4.616   7.480
    4AHEP    H2  355   4.244   4.676   7.462
    4AHEP    O2  356   4.064   4.699   7.556
    4AHEP   HO2  357   4.074   4.665   7.645
    4AHEP    C3  358   4.192   4.495   7.564
    4AHEP    H3  359   4.279   4.445   7.516
    4AHEP    O3  360   4.223   4.540   7.700
    4AHEP    C4  361   4.072   4.402   7.575
    4AHEP    H4  362   3.989   4.456   7.624
    4AHEP    O4  363   4.110   4.284   7.645
    4AHEP    P4  364   4.022   4.223   7.771
    4AHEP  OP42  365   4.112   4.119   7.837
    4AHEP  OP43  366   3.895   4.161   7.716
    4AHEP  OP44  367   3.984   4.336   7.866
    4AHEP    C6  368   3.919   4.257   7.420
    4AHEP    H6  369   3.963   4.161   7.454
    4AHEP    O6  370   3.808   4.286   7.507
    4AHEP   HO6  371   3.836   4.242   7.587
    4AHEP    C7  372   3.869   4.238   7.278
    4AHEP   H71  373   3.798   4.153   7.273
    4AHEP   H72  374   3.956   4.211   7.214
    4AHEP    O7  375   3.807   4.354   7.222
    4AHEP   HO7  376   3.852   4.426   7.267
    5AHEP    C1  377   4.335   4.484   7.762
    5AHEP    H1  378   4.361   4.388   7.712
    5AHEP    C5  379   4.428   4.699   7.823
    5AHEP    H5  380   4.340   4.747   7.778
    5AHEP    O5  381   4.450   4.571   7.759
    5AHEP    C2  382   4.308   4.454   7.910
    5AHEP    H2  383   4.212   4.398   7.914
    5AHEP    O2  384   4.407   4.366   7.964
    5AHEP   HO2  385   4.376   4.277   7.943
    5AHEP    C3  386   4.284   4.583   7.987
    5AHEP    H3  387   4.193   4.631   7.947
    5AHEP    O3  388   4.271   4.558   8.128
    5AHEP    C4  389   4.401   4.677   7.973
    5AHEP    H4  390   4.491   4.637   8.025
    5AHEP    O4  391   4.359   4.803   8.023
    5AHEP    P4  392   4.392   4.872   8.169
    5AHEP  OP42  393   4.273   4.961   8.203
    5AHEP  OP43  394   4.517   4.957   8.153
    5AHEP  OP44  395   4.408   4.764   8.274
    5AHEP    C6  396   4.551   4.789   7.795
    5AHEP    H6  397   4.538   4.882   7.854
    5AHEP    O6  398   4.671   4.723   7.840
    5AHEP   HO6  399   4.652   4.704   7.932
    5AHEP    C7  400   4.562   4.826   7.646
    5AHEP   H71  401   4.593   4.933   7.645
    5AHEP   H72  402   4.462   4.825   7.598
    5AHEP    O7  403   4.659   4.756   7.566
    6AHEP    C1  404   4.608   4.636   7.514
    6AHEP    H1  405   4.502   4.623   7.546
    6AHEP    C5  406   4.722   4.636   7.304
    6AHEP    H5  407   4.780   4.724   7.339
    6AHEP    O5  408   4.595   4.636   7.372
    6AHEP    C2  409   4.688   4.518   7.564
    6AHEP    H2  410   4.707   4.535   7.672
    6AHEP    O2  411   4.619   4.392   7.556
    6AHEP   HO2  412   4.554   4.392   7.627
    6AHEP    C3  413   4.822   4.515   7.495
    6AHEP    H3  414   4.873   4.612   7.513
    6AHEP    O3  415   4.904   4.410   7.545
    6AHEP   HO3  416   4.847   4.333   7.543
    6AHEP    C4  417   4.798   4.509   7.345
    6AHEP    H4  418   4.730   4.423   7.323
    6AHEP    O4  419   4.919   4.487   7.271
    6AHEP   HO4  420   4.986   4.550   7.297
    6AHEP    C6  421   4.704   4.654   7.153
    6AHEP    H6  422   4.802   4.645   7.102
    6AHEP    O6  423   4.622   4.550   7.101
    6AHEP   HO6  424   4.590   4.580   7.016
    6AHEP    C7  425   4.647   4.791   7.117
    6AHEP   H71  426   4.650   4.806   7.007
    6AHEP   H72  427   4.712   4.870   7.161
    6AHEP    O7  428   4.513   4.814   7.164
    6AHEP   HO7  429   4.461   4.748   7.117
    7AGLC    C1  430   4.143   4.531   8.176
    7AGLC    H1  431   4.069   4.598   8.128
    7AGLC    C5  432   4.200   4.302   8.215
    7AGLC    H5  433   4.303   4.329   8.183
    7AGLC    O5  434   4.107   4.394   8.155
    7AGLC    C2  435   4.142   4.555   8.328
    7AGLC    H2  436   4.039   4.532   8.363
    7AGLC    O2  437   4.165   4.692   8.362
    7AGLC   HO2  438   4.248   4.719   8.325
    7AGLC    C3  439   4.238   4.462   8.399
    7AGLC    H3  440   4.338   4.482   8.356
    7AGLC    O3  441   4.243   4.483   8.543
    7AGLC    C4  442   4.197   4.320   8.365
    7AGLC    H4  443   4.092   4.304   8.398
    7AGLC    O4  444   4.279   4.223   8.429
    7AGLC   HO4  445   4.229   4.142   8.441
    7AGLC    C6  446   4.176   4.161   8.164
    7AGLC   H61  447   4.193   4.163   8.054
    7AGLC   H62  448   4.251   4.091   8.207
    7AGLC    O6  449   4.044   4.110   8.188
    7AGLC   HO6  450   4.012   4.085   8.101
    8AGLC    C1  451   4.374   4.505   8.590
    8AGLC    H1  452   4.445   4.438   8.537
    8AGLC    C5  453   4.337   4.739   8.632
    8AGLC    H5  454   4.230   4.726   8.602
    8AGLC    O5  455   4.418   4.639   8.568
    8AGLC    C2  456   4.385   4.481   8.740
    8AGLC    H2  457   4.491   4.496   8.768
    8AGLC    O2  458   4.344   4.349   8.776
    8AGLC    C3  459   4.301   4.580   8.818
    8AGLC    H3  460   4.196   4.569   8.783
    8AGLC    O3  461   4.304   4.542   8.958
    8AGLC    C4  462   4.347   4.720   8.783
    8AGLC    H4  463   4.453   4.736   8.811
    8AGLC    O4  464   4.267   4.817   8.851
    8AGLC   HO4  465   4.268   4.893   8.790
    8AGLC    C6  466   4.386   4.871   8.572
    8AGLC   H61  467   4.492   4.860   8.543
    8AGLC   H62  468   4.331   4.889   8.478
    8AGLC    O6  469   4.374   4.986   8.657
    8AGLC   HO6  470   4.407   5.058   8.602
    9AGAL    C1  471   4.423   4.243   8.730
    9AGAL    H1  472   4.429   4.242   8.620
    9AGAL    C5  473   4.559   4.259   8.924
    9AGAL    H5  474   4.491   4.341   8.957
    9AGAL    O5  475   4.557   4.253   8.780
    9AGAL    C2  476   4.358   4.115   8.778
    9AGAL    H2  477   4.415   4.029   8.737
    9AGAL    O2  478   4.229   4.119   8.712
    9AGAL    C3  479   4.360   4.112   8.929
    9AGAL    H3  480   4.298   4.196   8.969
    9AGAL    O3  481   4.306   3.990   8.983
    9AGAL   HO3  482   4.366   3.920   8.954
    9AGAL    C4  483   4.502   4.129   8.980
    9AGAL    H4  484   4.496   4.141   9.090
    9AGAL    O4  485   4.586   4.016   8.957
    9AGAL   HO4  486   4.639   4.029   8.878
    9AGAL    C6  487   4.697   4.300   8.976
    9AGAL   H61  488   4.687   4.396   9.031
    9AGAL   H62  489   4.732   4.224   9.049
    9AGAL    O6  490   4.797   4.318   8.877
    9AGAL   HO6  491   4.754   4.333   8.792
   10AGAL    C1  492   4.114   4.059   8.768
   10AGAL    H1  493   4.138   3.953   8.790
   10AGAL    C5  494   4.031   4.262   8.865
   10AGAL    H5  495   4.113   4.313   8.811
   10AGAL    O5  496   4.071   4.125   8.889
   10AGAL    C2  497   4.001   4.062   8.667
   10AGAL    H2  498   3.916   4.003   8.707
   10AGAL    O2  499   4.039   3.997   8.544
   10AGAL   HO2  500   3.970   4.008   8.478
   10AGAL    C3  501   3.953   4.204   8.641
   10AGAL    H3  502   4.039   4.263   8.601
   10AGAL    O3  503   3.847   4.209   8.544
   10AGAL   HO3  504   3.874   4.251   8.462
   10AGAL    C4  505   3.910   4.266   8.773
   10AGAL    H4  506   3.882   4.372   8.754
   10AGAL    O4  507   3.798   4.199   8.829
   10AGAL   HO4  508   3.736   4.179   8.759
   10AGAL    C6  509   4.018   4.337   8.997
   10AGAL   H61  510   4.120   4.355   9.036
   10AGAL   H62  511   3.970   4.436   8.980
   10AGAL    O6  512   3.946   4.264   9.096
   10AGAL   HO6  513   3.945   4.173   9.065
   11BGLC    C1  514   4.389   4.610   9.049
   11BGLC    H1  515   4.352   4.714   9.063
   11BGLC    C5  516   4.612   4.678   9.097
   11BGLC    H5  517   4.575   4.781   9.113
   11BGLC    O5  518   4.525   4.609   9.005
   11BGLC    C2  519   4.380   4.534   9.181
   11BGLC    H2  520   4.416   4.430   9.162
   11BGLC    O2  521   4.247   4.525   9.229
   11BGLC   HO2  522   4.187   4.531   9.155
   11BGLC    C3  523   4.470   4.598   9.285
   11BGLC    H3  524   4.433   4.700   9.308
   11BGLC    O3  525   4.480   4.518   9.403
   11BGLC    C4  526   4.610   4.604   9.230
   11BGLC    H4  527   4.648   4.501   9.215
   11BGLC    O4  528   4.695   4.668   9.325
   11BGLC   HO4  529   4.675   4.628   9.410
   11BGLC    C6  530   4.750   4.686   9.035
   11BGLC   H61  531   4.822   4.723   9.111
   11BGLC   H62  532   4.786   4.587   9.002
   11BGLC    O6  533   4.753   4.778   8.925
   11BGLC   HO6  534   4.722   4.735   8.845
   12BGLCN   C1  535   4.415   4.563   9.519
   12BGLCN   H1  536   4.305   4.568   9.502
   12BGLCN   C5  537   4.411   4.734   9.686
   12BGLCN   H5  538   4.301   4.746   9.675
   12BGLCN   O5  539   4.468   4.689   9.562
   12BGLCN   C2  540   4.451   4.459   9.624
   12BGLCN   H2  541   4.561   4.469   9.638
   12BGLCN    N  542   4.426   4.323   9.577
   12BGLCN   HN  543   4.350   4.312   9.514
   12BGLCN    C  544   4.509   4.220   9.601
   12BGLCN    O  545   4.608   4.228   9.671
   12BGLCN   CT  546   4.469   4.088   9.538
   12BGLCN  HT1  547   4.466   4.010   9.616
   12BGLCN  HT2  548   4.545   4.058   9.462
   12BGLCN  HT3  549   4.370   4.096   9.490
   12BGLCN   C3  550   4.386   4.495   9.757
   12BGLCN   H3  551   4.276   4.498   9.743
   12BGLCN   O3  552   4.420   4.400   9.861
   12BGLCN   C4  553   4.439   4.632   9.796
   12BGLCN   H4  554   4.549   4.624   9.809
   12BGLCN   O4  555   4.384   4.677   9.919
   12BGLCN  HO4  556   4.447   4.664   9.990
   12BGLCN   C6  557   4.478   4.867   9.714
   12BGLCN  H61  558   4.474   4.891   9.822
   12BGLCN  H62  559   4.585   4.864   9.684
   12BGLCN   O6  560   4.413   4.974   9.644
   12BGLCN  HO6  561   4.425   4.963   9.549
   13AGAL    C1  562   4.319   4.374   9.958
   13AGAL    H1  563   4.266   4.467   9.987
   13AGAL    C5  564   4.285   4.154   9.873
   13AGAL    H5  565   4.367   4.179   9.802
   13AGAL    O5  566   4.223   4.278   9.911
   13AGAL    C2  567   4.383   4.312  10.082
   13AGAL    H2  568   4.302   4.286  10.153
   13AGAL    O2  569   4.472   4.405  10.146
   13AGAL    C3  570   4.455   4.184  10.045
   13AGAL    H3  571   4.527   4.207   9.964
   13AGAL    O3  572   4.532   4.132  10.153
   13AGAL   HO3  573   4.623   4.124  10.124
   13AGAL    C4  574   4.352   4.085   9.991
   13AGAL    H4  575   4.406   3.995   9.954
   13AGAL    O4  576   4.257   4.042  10.089
   13AGAL   HO4  577   4.190   4.110  10.096
   13AGAL    C6  578   4.189   4.070   9.790
   13AGAL   H61  579   4.145   4.134   9.712
   13AGAL   H62  580   4.245   3.989   9.740
   13AGAL    O6  581   4.084   4.012   9.867
   13AGAL   HO6  582   4.124   3.958   9.936
   14ARHM    C1  583   4.434   4.456  10.273
   14ARHM    H1  584   4.324   4.450  10.285
   14ARHM    C5  585   4.609   4.614  10.256
   14ARHM    H5  586   4.637   4.577  10.155
   14ARHM    O5  587   4.469   4.594  10.280
   14ARHM    C2  588   4.506   4.377  10.381
   14ARHM    H2  589   4.478   4.270  10.368
   14ARHM    O2  590   4.479   4.414  10.518
   14ARHM    C3  591   4.655   4.392  10.359
   14ARHM    H3  592   4.682   4.350  10.260
   14ARHM    O3  593   4.727   4.320  10.460
   14ARHM   HO3  594   4.671   4.321  10.538
   14ARHM    C4  595   4.690   4.539  10.361
   14ARHM    H4  596   4.665   4.582  10.462
   14ARHM    O4  597   4.830   4.555  10.339
   14ARHM   HO4  598   4.874   4.486  10.388
   14ARHM    C6  599   4.625   4.767  10.255
   14ARHM   H61  600   4.553   4.813  10.184
   14ARHM   H62  601   4.605   4.809  10.356
   14ARHM   H63  602   4.728   4.794  10.221
   15ARHM    C1  603   4.344   4.427  10.554
   15ARHM    H1  604   4.279   4.366  10.487
   15ARHM    C5  605   4.373   4.651  10.637
   15ARHM    H5  606   4.482   4.647  10.612
   15ARHM    O5  607   4.301   4.565  10.547
   15ARHM    C2  608   4.327   4.377  10.696
   15ARHM    H2  609   4.366   4.273  10.701
   15ARHM    O2  610   4.185   4.374  10.721
   15ARHM    C3  611   4.405   4.464  10.792
   15ARHM    H3  612   4.511   4.463  10.759
   15ARHM    O3  613   4.400   4.408  10.922
   15ARHM    C4  614   4.352   4.605  10.781
   15ARHM    H4  615   4.243   4.606  10.801
   15ARHM    O4  616   4.414   4.693  10.875
   15ARHM   HO4  617   4.404   4.783  10.844
   15ARHM    C6  618   4.325   4.794  10.610
   15ARHM   H61  619   4.381   4.868  10.671
   15ARHM   H62  620   4.341   4.819  10.503
   15ARHM   H63  621   4.216   4.804  10.631
   16BMANN   C1  622   4.138   4.334  10.847
   16BMANN   H1  623   4.163   4.411  10.922
   16BMANN   C5  624   4.140   4.169  11.019
   16BMANN   H5  625   4.170   4.247  11.092
   16BMANN   O5  626   4.188   4.206  10.887
   16BMANN   C2  627   3.987   4.326  10.833
   16BMANN   H2  628   3.951   4.428  10.808
   16BMANN    N  629   3.947   4.234  10.727
   16BMANN   HN  630   3.946   4.137  10.748
   16BMANN    C  631   3.910   4.272  10.604
   16BMANN    O  632   3.903   4.390  10.570
   16BMANN   CT  633   3.880   4.162  10.507
   16BMANN  HT1  634   3.772   4.162  10.481
   16BMANN  HT2  635   3.907   4.063  10.550
   16BMANN  HT3  636   3.940   4.178  10.414
   16BMANN   C3  637   3.930   4.290  10.970
   16BMANN   H3  638   3.958   4.369  11.043
   16BMANN   O3  639   3.787   4.287  10.963
   16BMANN  HO3  640   3.753   4.376  10.950
   16BMANN   C4  641   3.988   4.158  11.016
   16BMANN   H4  642   3.959   4.077  10.946
   16BMANN   O4  643   3.941   4.123  11.148
   16BMANN  HO4  644   3.853   4.085  11.137
   16BMANN   C6  645   4.210   4.040  11.055
   16BMANN  H61  646   4.176   4.005  11.155
   16BMANN  H62  647   4.185   3.961  10.981
   16BMANN   O6  648   4.352   4.056  11.059
   16BMANN  HO6  649   4.379   4.099  10.977
   17BGLCN   C1  650   4.517   4.423  10.998
   17BGLCN   H1  651   4.567   4.520  10.977
   17BGLCN   C5  652   4.724   4.324  11.062
   17BGLCN   H5  653   4.774   4.422  11.045
   17BGLCN   O5  654   4.608   4.314  10.977
   17BGLCN   C2  655   4.467   4.419  11.141
   17BGLCN   H2  656   4.425   4.318  11.159
   17BGLCN    N  657   4.358   4.514  11.159
   17BGLCN   HN  658   4.354   4.588  11.092
   17BGLCN    C  659   4.261   4.501  11.250
   17BGLCN    O  660   4.254   4.408  11.331
   17BGLCN   CT  661   4.155   4.608  11.252
   17BGLCN  HT1  662   4.075   4.581  11.179
   17BGLCN  HT2  663   4.199   4.706  11.224
   17BGLCN  HT3  664   4.111   4.614  11.353
   17BGLCN   C3  665   4.587   4.438  11.232
   17BGLCN   H3  666   4.641   4.528  11.196
   17BGLCN   O3  667   4.549   4.462  11.370
   17BGLCN   C4  668   4.678   4.318  11.208
   17BGLCN   H4  669   4.619   4.226  11.222
   17BGLCN   O4  670   4.789   4.312  11.297
   17BGLCN  HO4  671   4.786   4.227  11.342
   17BGLCN   C6  672   4.822   4.215  11.023
   17BGLCN  H61  673   4.908   4.214  11.092
   17BGLCN  H62  674   4.772   4.116  11.027
   17BGLCN   O6  675   4.872   4.237  10.891
   17BGLCN  HO6  676   4.801   4.221  10.827
   18AGAL    C1  677   4.637   4.542  11.444
   18AGAL    H1  678   4.732   4.488  11.463
   18AGAL    C5  679   4.550   4.748  11.359
   18AGAL    H5  680   4.477   4.687  11.300
   18AGAL    O5  681   4.667   4.668  11.380
   18AGAL    C2  682   4.576   4.576  11.579
   18AGAL    H2  683   4.650   4.643  11.627
   18AGAL    O2  684   4.561   4.460  11.662
   18AGAL    C3  685   4.446   4.653  11.561
   18AGAL    H3  686   4.378   4.592  11.498
   18AGAL    O3  687   4.380   4.679  11.684
   18AGAL   HO3  688   4.285   4.680  11.672
   18AGAL    C4  689   4.479   4.783  11.489
   18AGAL    H4  690   4.384   4.836  11.464
   18AGAL    O4  691   4.556   4.869  11.572
   18AGAL   HO4  692   4.529   4.849  11.662
   18AGAL    C6  693   4.584   4.865  11.266
   18AGAL   H61  694   4.616   4.825  11.168
   18AGAL   H62  695   4.494   4.927  11.249
   18AGAL    O6  696   4.689   4.950  11.315
   18AGAL   HO6  697   4.766   4.898  11.338
   19ARHM    C1  698   4.596   4.488  11.795
   19ARHM    H1  699   4.558   4.588  11.826
   19ARHM    C5  700   4.798   4.363  11.780
   19ARHM    H5  701   4.776   4.340  11.675
   19ARHM    O5  702   4.738   4.488  11.816
   19ARHM    C2  703   4.533   4.382  11.883
   19ARHM    H2  704   4.427   4.372  11.850
   19ARHM    O2  705   4.533   4.422  12.022
   19ARHM    C3  706   4.593   4.247  11.853
   19ARHM    H3  707   4.570   4.220  11.748
   19ARHM    O3  708   4.538   4.146  11.937
   19ARHM   HO3  709   4.600   4.073  11.932
   19ARHM    C4  710   4.743   4.254  11.870
   19ARHM    H4  711   4.766   4.280  11.975
   19ARHM    O4  712   4.804   4.127  11.842
   19ARHM   HO4  713   4.806   4.113  11.746
   19ARHM    C6  714   4.950   4.383  11.794
   19ARHM   H61  715   4.985   4.463  11.725
   19ARHM   H62  716   4.976   4.411  11.898
   19ARHM   H63  717   5.003   4.289  11.769
   20ARHM    C1  718   4.433   4.517  12.051
   20ARHM    H1  719   4.357   4.520  11.970
   20ARHM    C5  720   4.575   4.669  12.170
   20ARHM    H5  721   4.668   4.611  12.151
   20ARHM    O5  722   4.483   4.652  12.062
   20ARHM    C2  723   4.367   4.476  12.180
   20ARHM    H2  724   4.337   4.369  12.173
   20ARHM    O2  725   4.250   4.554  12.207
   20ARHM    C3  726   4.464   4.488  12.294
   20ARHM    H3  727   4.548   4.417  12.280
   20ARHM    O3  728   4.391   4.454  12.412
   20ARHM    C4  729   4.513   4.630  12.304
   20ARHM    H4  730   4.426   4.696  12.324
   20ARHM    O4  731   4.607   4.646  12.411
   20ARHM   HO4  732   4.689   4.603  12.387
   20ARHM    C6  733   4.606   4.820  12.165
   20ARHM   H61  734   4.511   4.878  12.168
   20ARHM   H62  735   4.668   4.852  12.252
   20ARHM   H63  736   4.659   4.845  12.071
   21BMANN   C1  737   4.145   4.536  12.116
   21BMANN   H1  738   4.160   4.447  12.051
   21BMANN   C5  739   4.018   4.646  11.946
   21BMANN   H5  740   4.035   4.560  11.877
   21BMANN   O5  741   4.129   4.655  12.037
   21BMANN   C2  742   4.022   4.519  12.201
   21BMANN   H2  743   4.035   4.426  12.259
   21BMANN    N  744   4.015   4.628  12.298
   21BMANN   HN  745   4.088   4.695  12.286
   21BMANN    C  746   3.937   4.636  12.406
   21BMANN    O  747   3.842   4.561  12.426
   21BMANN   CT  748   3.974   4.744  12.505
   21BMANN  HT1  749   3.915   4.836  12.484
   21BMANN  HT2  750   4.083   4.767  12.498
   21BMANN  HT3  751   3.953   4.709  12.607
   21BMANN   C3  752   3.904   4.501  12.109
   21BMANN   H3  753   3.925   4.415  12.041
   21BMANN   O3  754   3.786   4.468  12.179
   21BMANN  HO3  755   3.790   4.512  12.265
   21BMANN   C4  756   3.888   4.624  12.023
   21BMANN   H4  757   3.868   4.713  12.085
   21BMANN   O4  758   3.780   4.609  11.929
   21BMANN  HO4  759   3.700   4.591  11.979
   21BMANN   C6  760   4.016   4.774  11.864
   21BMANN  H61  761   3.932   4.772  11.791
   21BMANN  H62  762   4.000   4.861  11.932
   21BMANN   O6  763   4.137   4.793  11.793
   21BMANN  HO6  764   4.209   4.794  11.856
   22BGLCN   C1  765   4.461   4.384  12.510
   22BGLCN   H1  766   4.570   4.407  12.506
   22BGLCN   C5  767   4.502   4.169  12.600
   22BGLCN   H5  768   4.611   4.192  12.600
   22BGLCN   O5  769   4.439   4.244  12.496
   22BGLCN   C2  770   4.401   4.435  12.640
   22BGLCN   H2  771   4.293   4.411  12.638
   22BGLCN    N  772   4.413   4.581  12.645
   22BGLCN   HN  773   4.481   4.621  12.585
   22BGLCN    C  774   4.331   4.664  12.711
   22BGLCN    O  775   4.236   4.628  12.780
   22BGLCN   CT  776   4.362   4.811  12.697
   22BGLCN  HT1  777   4.273   4.864  12.658
   22BGLCN  HT2  778   4.448   4.826  12.627
   22BGLCN  HT3  779   4.387   4.853  12.797
   22BGLCN   C3  780   4.467   4.362  12.755
   22BGLCN   H3  781   4.575   4.382  12.748
   22BGLCN   O3  782   4.418   4.419  12.877
   22BGLCN   C4  783   4.444   4.212  12.735
   22BGLCN   H4  784   4.335   4.192  12.734
   22BGLCN   O4  785   4.503   4.134  12.839
   22BGLCN  HO4  786   4.435   4.081  12.881
   22BGLCN   C6  787   4.487   4.021  12.568
   22BGLCN  H61  788   4.512   3.959  12.658
   22BGLCN  H62  789   4.381   3.999  12.541
   22BGLCN   O6  790   4.574   3.980  12.461
   22BGLCN  HO6  791   4.521   3.971  12.381
   23AGAL    C1  792   4.486   4.393  12.996
   23AGAL    H1  793   4.466   4.288  13.027
   23AGAL    C5  794   4.665   4.548  12.958
   23AGAL    H5  795   4.617   4.579  12.863
   23AGAL    O5  796   4.628   4.411  12.985
   23AGAL    C2  797   4.430   4.483  13.106
   23AGAL    H2  798   4.478   4.453  13.203
   23AGAL    O2  799   4.287   4.469  13.117
   23AGAL    C3  800   4.465   4.628  13.079
   23AGAL    H3  801   4.416   4.659  12.984
   23AGAL    O3  802   4.417   4.712  13.184
   23AGAL   HO3  803   4.490   4.717  13.246
   23AGAL    C4  804   4.615   4.642  13.068
   23AGAL    H4  805   4.639   4.746  13.037
   23AGAL    O4  806   4.680   4.617  13.193
   23AGAL   HO4  807   4.767   4.583  13.170
   23AGAL    C6  808   4.816   4.556  12.934
   23AGAL   H61  809   4.843   4.490  12.849
   23AGAL   H62  810   4.844   4.660  12.908
   23AGAL    O6  811   4.893   4.516  13.050
   23AGAL   HO6  812   4.981   4.486  13.026
   24ARHM    C1  813   4.239   4.375  13.210
   24ARHM    H1  814   4.315   4.294  13.220
   24ARHM    C5  815   4.011   4.402  13.148
   24ARHM    H5  816   4.040   4.480  13.074
   24ARHM    O5  817   4.120   4.310  13.165
   24ARHM    C2  818   4.218   4.444  13.342
   24ARHM    H2  819   4.309   4.503  13.366
   24ARHM    O2  820   4.196   4.349  13.449
   24ARHM    C3  821   4.105   4.543  13.331
   24ARHM    H3  822   4.132   4.620  13.255
   24ARHM    O3  823   4.081   4.609  13.454
   24ARHM   HO3  824   3.988   4.633  13.454
   24ARHM    C4  825   3.981   4.469  13.281
   24ARHM    H4  826   3.958   4.389  13.354
   24ARHM    O4  827   3.865   4.553  13.276
   24ARHM   HO4  828   3.857   4.596  13.189
   24ARHM    C6  829   3.893   4.323  13.089
   24ARHM   H61  830   3.807   4.390  13.068
   24ARHM   H62  831   3.924   4.274  12.995
   24ARHM   H63  832   3.860   4.244  13.161
   25ARHM    C1  833   4.313   4.294  13.503
   25ARHM    H1  834   4.398   4.313  13.433
   25ARHM    C5  835   4.211   4.111  13.614
   25ARHM    H5  836   4.111   4.149  13.586
   25ARHM    O5  837   4.307   4.151  13.516
   25ARHM    C2  838   4.347   4.361  13.634
   25ARHM    H2  839   4.339   4.472  13.623
   25ARHM    O2  840   4.478   4.326  13.680
   25ARHM    C3  841   4.248   4.321  13.739
   25ARHM    H3  842   4.147   4.354  13.707
   25ARHM    O3  843   4.284   4.385  13.863
   25ARHM    C4  844   4.251   4.170  13.749
   25ARHM    H4  845   4.356   4.139  13.770
   25ARHM    O4  846   4.172   4.120  13.856
   25ARHM   HO4  847   4.226   4.050  13.895
   25ARHM    C6  848   4.206   3.957  13.611
   25ARHM   H61  849   4.182   3.922  13.509
   25ARHM   H62  850   4.304   3.915  13.642
   25ARHM   H63  851   4.128   3.920  13.682
   26BMANN   C1  852   4.583   4.399  13.623
   26BMANN   H1  853   4.545   4.495  13.581
   26BMANN   C5  854   4.756   4.397  13.460
   26BMANN   H5  855   4.713   4.488  13.413
   26BMANN   O5  856   4.649   4.323  13.520
   26BMANN   C2  857   4.683   4.427  13.732
   26BMANN   H2  858   4.630   4.486  13.811
   26BMANN    N  859   4.733   4.303  13.790
   26BMANN   HN  860   4.758   4.233  13.724
   26BMANN    C  861   4.747   4.279  13.922
   26BMANN    O  862   4.716   4.359  14.009
   26BMANN   CT  863   4.801   4.143  13.957
   26BMANN  HT1  864   4.778   4.070  13.877
   26BMANN  HT2  865   4.756   4.110  14.054
   26BMANN  HT3  866   4.912   4.150  13.970
   26BMANN   C3  867   4.791   4.515  13.672
   26BMANN   H3  868   4.742   4.603  13.624
   26BMANN   O3  869   4.879   4.567  13.772
   26BMANN  HO3  870   4.859   4.661  13.779
   26BMANN   C4  871   4.861   4.438  13.561
   26BMANN   H4  872   4.912   4.349  13.604
   26BMANN   O4  873   4.958   4.519  13.495
   26BMANN  HO4  874   5.041   4.513  13.543
   26BMANN   C6  875   4.813   4.311  13.349
   26BMANN  H61  876   4.731   4.274  13.283
   26BMANN  H62  877   4.881   4.372  13.284
   26BMANN   O6  878   4.887   4.199  13.399
   26BMANN  HO6  879   4.976   4.228  13.419
   27BGLCN   C1  880   4.175   4.434  13.936
   27BGLCN   H1  881   4.087   4.368  13.923
   27BGLCN   C5  882   4.035   4.623  13.974
   27BGLCN   H5  883   3.945   4.562  13.954
   27BGLCN   O5  884   4.146   4.569  13.898
   27BGLCN   C2  885   4.220   4.432  14.081
   27BGLCN   H2  886   4.303   4.506  14.090
   27BGLCN    N  887   4.275   4.302  14.116
   27BGLCN   HN  888   4.251   4.227  14.054
   27BGLCN    C  889   4.370   4.280  14.208
   27BGLCN    O  890   4.412   4.367  14.284
   27BGLCN   CT  891   4.425   4.141  14.217
   27BGLCN  HT1  892   4.343   4.066  14.210
   27BGLCN  HT2  893   4.480   4.129  14.312
   27BGLCN  HT3  894   4.496   4.125  14.133
   27BGLCN   C3  895   4.105   4.481  14.168
   27BGLCN   H3  896   4.018   4.414  14.149
   27BGLCN   O3  897   4.148   4.469  14.304
   27BGLCN   C4  898   4.069   4.622  14.123
   27BGLCN   H4  899   4.156   4.688  14.141
   27BGLCN   O4  900   3.957   4.674  14.194
   27BGLCN  HO4  901   3.882   4.615  14.186
   27BGLCN   C6  902   4.011   4.764  13.922
   27BGLCN  H61  903   3.929   4.812  13.979
   27BGLCN  H62  904   4.103   4.824  13.936
   27BGLCN   O6  905   3.976   4.767  13.783
   27BGLCN  HO6  906   3.893   4.812  13.769
   28AGAL    C1  907   4.053   4.483  14.407
   28AGAL    H1  908   4.026   4.590  14.417
   28AGAL    C5  909   3.965   4.263  14.372
   28AGAL    H5  910   4.042   4.248  14.293
   28AGAL    O5  911   3.935   4.404  14.382
   28AGAL    C2  912   4.113   4.439  14.539
   28AGAL    H2  913   4.031   4.450  14.613
   28AGAL    O2  914   4.226   4.519  14.582
   28AGAL    C3  915   4.150   4.292  14.532
   28AGAL    H3  916   4.223   4.278  14.450
   28AGAL    O3  917   4.212   4.247  14.653
   28AGAL   HO3  918   4.304   4.274  14.653
   28AGAL    C4  919   4.026   4.210  14.502
   28AGAL    H4  920   4.057   4.105  14.485
   28AGAL    O4  921   3.934   4.210  14.611
   28AGAL   HO4  922   3.987   4.205  14.691
   28AGAL    C6  923   3.842   4.187  14.322
   28AGAL   H61  924   3.813   4.227  14.222
   28AGAL   H62  925   3.868   4.080  14.308
   28AGAL    O6  926   3.729   4.197  14.409
   28AGAL   HO6  927   3.759   4.234  14.493
   29ARHM    C1  928   4.219   4.561  14.717
   29ARHM    H1  929   4.150   4.493  14.772
   29ARHM    C5  930   4.259   4.793  14.673
   29ARHM    H5  931   4.267   4.776  14.564
   29ARHM    O5  932   4.170   4.695  14.730
   29ARHM    C2  933   4.355   4.549  14.781
   29ARHM    H2  934   4.393   4.446  14.762
   29ARHM    O2  935   4.345   4.571  14.924
   29ARHM    C3  936   4.452   4.646  14.719
   29ARHM    H3  937   4.460   4.624  14.610
   29ARHM    O3  938   4.582   4.633  14.776
   29ARHM   HO3  939   4.632   4.707  14.743
   29ARHM    C4  940   4.397   4.785  14.737
   29ARHM    H4  941   4.385   4.806  14.845
   29ARHM    O4  942   4.487   4.884  14.686
   29ARHM   HO4  943   4.468   4.908  14.595
   29ARHM    C6  944   4.190   4.929  14.698
   29ARHM   H61  945   4.092   4.932  14.646
   29ARHM   H62  946   4.176   4.945  14.807
   29ARHM   H63  947   4.254   5.012  14.659
   30ARHM    C1  948   4.353   4.454  15.000
   30ARHM    H1  949   4.443   4.396  14.969
   30ARHM    C5  950   4.116   4.433  15.029
   30ARHM    H5  951   4.099   4.527  14.974
   30ARHM    O5  952   4.237   4.371  14.983
   30ARHM    C2  953   4.368   4.490  15.146
   30ARHM    H2  954   4.454   4.559  15.157
   30ARHM    O2  955   4.388   4.372  15.224
   30ARHM    C3  956   4.244   4.558  15.199
   30ARHM    H3  957   4.226   4.648  15.135
   30ARHM    O3  958   4.268   4.607  15.333
   30ARHM    C4  959   4.124   4.467  15.177
   30ARHM    H4  960   4.136   4.372  15.234
   30ARHM    O4  961   4.002   4.528  15.216
   30ARHM   HO4  962   4.004   4.621  15.193
   30ARHM    C6  963   4.003   4.335  14.993
   30ARHM   H61  964   3.904   4.376  15.024
   30ARHM   H62  965   4.001   4.316  14.884
   30ARHM   H63  966   4.018   4.238  15.046
   31BMANN   C1  967   4.520   4.330  15.246
   31BMANN   H1  968   4.589   4.416  15.261
   31BMANN   C5  969   4.694   4.183  15.172
   31BMANN   H5  970   4.767   4.265  15.189
   31BMANN   O5  971   4.565   4.242  15.143
   31BMANN   C2  972   4.502   4.249  15.372
   31BMANN   H2  973   4.471   4.319  15.452
   31BMANN    N  974   4.398   4.148  15.357
   31BMANN   HN  975   4.374   4.123  15.263
   31BMANN    C  976   4.332   4.093  15.459
   31BMANN    O  977   4.355   4.125  15.574
   31BMANN   CT  978   4.228   3.990  15.425
   31BMANN  HT1  979   4.269   3.916  15.352
   31BMANN  HT2  980   4.138   4.039  15.380
   31BMANN  HT3  981   4.197   3.936  15.517
   31BMANN   C3  982   4.637   4.194  15.410
   31BMANN   H3  983   4.710   4.277  15.416
   31BMANN   O3  984   4.634   4.139  15.541
   31BMANN  HO3  985   4.545   4.107  15.562
   31BMANN   C4  986   4.685   4.100  15.300
   31BMANN   H4  987   4.611   4.019  15.284
   31BMANN   O4  988   4.810   4.039  15.331
   31BMANN  HO4  989   4.790   3.950  15.361
   31BMANN   C6  990   4.740   4.104  15.050
   31BMANN  H61  991   4.832   4.047  15.075
   31BMANN  H62  992   4.661   4.032  15.020
   31BMANN   O6  993   4.770   4.189  14.939
   31BMANN  HO6  994   4.831   4.258  14.966
   32BGLCN   C1  995   4.239   4.520  15.441
   32BGLCN   H1  996   4.273   4.416  15.418
   32BGLCN   C5  997   4.066   4.423  15.572
   32BGLCN   H5  998   4.107   4.323  15.547
   32BGLCN   O5  999   4.100   4.516  15.468
   32BGLCN   C2 1000   4.310   4.570  15.566
   32BGLCN   H2 1001   4.263   4.668  15.592
   32BGLCN    N 1002   4.451   4.592  15.540
   32BGLCN   HN 1003   4.497   4.524  15.482
   32BGLCN    C 1004   4.521   4.699  15.581
   32BGLCN    O 1005   4.475   4.785  15.655
   32BGLCN   CT 1006   4.662   4.708  15.530
   32BGLCN  HT1 1007   4.680   4.635  15.449
   32BGLCN  HT2 1008   4.733   4.689  15.613
   32BGLCN  HT3 1009   4.680   4.811  15.491
   32BGLCN   C3 1010   4.282   4.472  15.679
   32BGLCN   H3 1011   4.312   4.372  15.643
   32BGLCN   O3 1012   4.356   4.500  15.800
   32BGLCN   C4 1013   4.131   4.470  15.701
   32BGLCN   H4 1014   4.098   4.574  15.723
   32BGLCN   O4 1015   4.091   4.389  15.810
   32BGLCN  HO4 1016   4.018   4.433  15.854
   32BGLCN   C6 1017   3.915   4.410  15.571
   32BGLCN  H61 1018   3.881   4.346  15.655
   32BGLCN  H62 1019   3.869   4.510  15.584
   32BGLCN   O6 1020   3.871   4.353  15.448
   32BGLCN  HO6 1021   3.898   4.412  15.377
   33AGAL    C1 1022   4.409   4.382  15.858
   33AGAL    H1 1023   4.335   4.299  15.849
   33AGAL    C5 1024   4.636   4.441  15.809
   33AGAL    H5 1025   4.599   4.539  15.772
   33AGAL    O5 1026   4.531   4.343  15.793
   33AGAL    C2 1027   4.441   4.399  16.006
   33AGAL    H2 1028   4.484   4.302  16.038
   33AGAL    O2 1029   4.321   4.421  16.082
   33AGAL    C3 1030   4.546   4.507  16.027
   33AGAL    H3 1031   4.508   4.601  15.983
   33AGAL    O3 1032   4.573   4.532  16.165
   33AGAL   HO3 1033   4.637   4.466  16.191
   33AGAL    C4 1034   4.672   4.464  15.955
   33AGAL    H4 1035   4.746   4.546  15.962
   33AGAL    O4 1036   4.731   4.348  16.013
   33AGAL   HO4 1037   4.768   4.295  15.943
   33AGAL    C6 1038   4.755   4.404  15.723
   33AGAL   H61 1039   4.728   4.415  15.616
   33AGAL   H62 1040   4.839   4.474  15.743
   33AGAL    O6 1041   4.801   4.270  15.744
   33AGAL   HO6 1042   4.744   4.210  15.696
   34ARHM    C1 1043   4.316   4.346  16.200
   34ARHM    H1 1044   4.411   4.358  16.256
   34ARHM    C5 1045   4.174   4.178  16.105
   34ARHM    H5 1046   4.175   4.229  16.006
   34ARHM    O5 1047   4.296   4.206  16.175
   34ARHM    C2 1048   4.201   4.399  16.283
   34ARHM    H2 1049   4.214   4.509  16.294
   34ARHM    O2 1050   4.195   4.340  16.413
   34ARHM    C3 1051   4.070   4.375  16.212
   34ARHM    H3 1052   4.071   4.429  16.115
   34ARHM    O3 1053   3.960   4.425  16.289
   34ARHM   HO3 1054   3.880   4.405  16.240
   34ARHM    C4 1055   4.054   4.227  16.185
   34ARHM    H4 1056   4.053   4.172  16.282
   34ARHM    O4 1057   3.932   4.199  16.116
   34ARHM   HO4 1058   3.903   4.110  16.136
   34ARHM    C6 1059   4.174   4.026  16.081
   34ARHM   H61 1060   4.175   3.972  16.178
   34ARHM   H62 1061   4.085   3.995  16.023
   34ARHM   H63 1062   4.265   3.997  16.024
   35ARHM    C1 1063   4.303   4.364  16.499
   35ARHM    H1 1064   4.350   4.462  16.476
   35ARHM    C5 1065   4.346   4.129  16.521
   35ARHM    H5 1066   4.268   4.105  16.445
   35ARHM    O5 1067   4.401   4.259  16.493
   35ARHM    C2 1068   4.238   4.368  16.636
   35ARHM    H2 1069   4.157   4.444  16.633
   35ARHM    O2 1070   4.326   4.403  16.744
   35ARHM    C3 1071   4.175   4.234  16.663
   35ARHM    H3 1072   4.103   4.209  16.582
   35ARHM    O3 1073   4.097   4.237  16.782
   35ARHM   HO3 1074   4.155   4.230  16.858
   35ARHM    C4 1075   4.282   4.127  16.660
   35ARHM    H4 1076   4.361   4.152  16.734
   35ARHM    O4 1077   4.234   3.997  16.694
   35ARHM   HO4 1078   4.148   3.981  16.652
   35ARHM    C6 1079   4.460   4.027  16.503
   35ARHM   H61 1080   4.497   4.030  16.398
   35ARHM   H62 1081   4.544   4.051  16.572
   35ARHM   H63 1082   4.424   3.925  16.525
   36BMANN   C1 1083   4.373   4.535  16.742
   36BMANN   H1 1084   4.294   4.605  16.706
   36BMANN   C5 1085   4.545   4.677  16.656
   36BMANN   H5 1086   4.467   4.746  16.618
   36BMANN   O5 1087   4.491   4.544  16.661
   36BMANN   C2 1088   4.413   4.570  16.884
   36BMANN   H2 1089   4.319   4.567  16.944
   36BMANN    N 1090   4.505   4.473  16.940
   36BMANN   HN 1091   4.556   4.419  16.874
   36BMANN    C 1092   4.524   4.455  17.072
   36BMANN    O 1093   4.460   4.518  17.155
   36BMANN   CT 1094   4.628   4.354  17.112
   36BMANN  HT1 1095   4.726   4.382  17.068
   36BMANN  HT2 1096   4.599   4.253  17.077
   36BMANN  HT3 1097   4.638   4.354  17.222
   36BMANN   C3 1098   4.464   4.713  16.885
   36BMANN   H3 1099   4.385   4.779  16.844
   36BMANN   O3 1100   4.491   4.760  17.017
   36BMANN  HO3 1101   4.484   4.687  17.079
   36BMANN   C4 1102   4.586   4.723  16.795
   36BMANN   H4 1103   4.666   4.657  16.834
   36BMANN   O4 1104   4.636   4.856  16.791
   36BMANN  HO4 1105   4.627   4.891  16.880
   36BMANN   C6 1106   4.659   4.677  16.555
   36BMANN  H61 1107   4.619   4.641  16.457
   36BMANN  H62 1108   4.695   4.780  16.540
   36BMANN   O6 1109   4.768   4.592  16.592
   36BMANN  HO6 1110   4.823   4.637  16.657
    1ECLIP HB6S 1111   3.564   3.143   6.662
    1ECLIP  OB6 1112   3.401   3.210   6.775
    1ECLIP  CB6 1113   3.459   3.114   6.683
    1ECLIP HB6R 1114   3.459   3.012   6.729
    1ECLIP  CB5 1115   3.385   3.100   6.552
    1ECLIP  OB5 1116   3.372   3.230   6.490
    1ECLIP  HB5 1117   3.284   3.063   6.577
    1ECLIP  CB1 1118   3.282   3.230   6.380
    1ECLIP  HB1 1119   3.175   3.218   6.410
    1ECLIP  OA6 1120   3.305   3.345   6.304
    1ECLIP  CA6 1121   3.244   3.469   6.345
    1ECLIP HA6R 1122   3.284   3.500   6.444
    1ECLIP HA6S 1123   3.134   3.457   6.356
    1ECLIP  CB4 1124   3.448   3.004   6.450
    1ECLIP  HB4 1125   3.538   3.056   6.411
    1ECLIP  OB4 1126   3.490   2.879   6.506
    1ECLIP   PB 1127   3.642   2.814   6.490
    1ECLIP OPB4 1128   3.693   2.766   6.625
    1ECLIP OPB3 1129   3.742   2.911   6.429
    1ECLIP OPB2 1130   3.641   2.700   6.389
    1ECLIP  CB3 1131   3.347   2.991   6.337
    1ECLIP  OB3 1132   3.405   2.920   6.227
    1ECLIP  HB3 1133   3.250   2.951   6.372
    1ECLIP  C71 1134   3.357   2.801   6.196
    1ECLIP  O71 1135   3.259   2.749   6.245
    1ECLIP  C72 1136   3.402   2.769   6.054
    1ECLIP H72R 1137   3.355   2.841   5.984
    1ECLIP H72S 1138   3.367   2.666   6.030
    1ECLIP  CB2 1139   3.330   3.129   6.278
    1ECLIP  HB2 1140   3.436   3.155   6.254
    1ECLIP  NB2 1141   3.252   3.136   6.153
    1ECLIP HNB2 1142   3.162   3.095   6.155
    1ECLIP  CA4 1143   3.160   3.633   6.163
    1ECLIP  HA4 1144   3.112   3.546   6.115
    1ECLIP  OA4 1145   3.067   3.694   6.253
    1ECLIP HOA4 1146   3.066   3.789   6.240
    1ECLIP  CA5 1147   3.277   3.577   6.240
    1ECLIP  HA5 1148   3.331   3.660   6.290
    1ECLIP  OA5 1149   3.361   3.513   6.141
    1ECLIP  CA1 1150   3.418   3.600   6.042
    1ECLIP  HA1 1151   3.467   3.531   5.970
    1ECLIP  OA1 1152   3.521   3.683   6.096
    1ECLIP OPA2 1153   3.577   3.557   6.306
    1ECLIP OPA3 1154   3.665   3.473   6.101
    1ECLIP OPA4 1155   3.756   3.696   6.194
    1ECLIP   PA 1156   3.641   3.603   6.176
    1ECLIP  CA3 1157   3.206   3.730   6.056
    1ECLIP  HA3 1158   3.258   3.815   6.103
    1ECLIP  OA3 1159   3.092   3.782   5.985
    1ECLIP  C31 1160   3.013   3.697   5.920
    1ECLIP  O31 1161   3.041   3.647   5.811
    1ECLIP  C32 1162   2.870   3.702   5.974
    1ECLIP H32R 1163   2.806   3.743   5.893
    1ECLIP H32S 1164   2.866   3.772   6.061
    1ECLIP  CA2 1165   3.303   3.659   5.962
    1ECLIP  HA2 1166   3.250   3.572   5.917
    1ECLIP  NA2 1167   3.347   3.742   5.851
    1ECLIP HNA2 1168   3.316   3.836   5.854
    1ECLIP  C73 1169   3.555   2.778   6.049
    1ECLIP H73R 1170   3.595   2.729   6.141
    1ECLIP  O73 1171   3.591   2.916   6.038
    1ECLIP  C81 1172   3.708   2.946   6.092
    1ECLIP  O81 1173   3.778   2.867   6.155
    1ECLIP  C82 1174   3.753   3.085   6.050
    1ECLIP H82R 1175   3.862   3.092   6.072
    1ECLIP H82S 1176   3.700   3.160   6.112
    1ECLIP  C83 1177   3.729   3.112   5.900
    1ECLIP H83R 1178   3.620   3.111   5.880
    1ECLIP H83S 1179   3.775   3.031   5.840
    1ECLIP  C84 1180   3.787   3.245   5.852
    1ECLIP H84R 1181   3.897   3.243   5.858
    1ECLIP H84S 1182   3.750   3.329   5.915
    1ECLIP  C85 1183   3.743   3.270   5.707
    1ECLIP H85R 1184   3.633   3.283   5.705
    1ECLIP H85S 1185   3.769   3.180   5.648
    1ECLIP  C86 1186   3.806   3.394   5.641
    1ECLIP H86R 1187   3.916   3.378   5.632
    1ECLIP H86S 1188   3.790   3.482   5.707
    1ECLIP  C87 1189   3.747   3.423   5.502
    1ECLIP H87R 1190   3.810   3.500   5.451
    1ECLIP H87S 1191   3.646   3.467   5.516
    1ECLIP  C88 1192   3.735   3.297   5.415
    1ECLIP H88R 1193   3.659   3.232   5.462
    1ECLIP H88S 1194   3.831   3.242   5.414
    1ECLIP  C89 1195   3.688   3.323   5.271
    1ECLIP H89R 1196   3.614   3.406   5.268
    1ECLIP H89S 1197   3.635   3.231   5.237
    1ECLIP C810 1198   3.802   3.348   5.172
    1ECLIPH810R 1199   3.888   3.282   5.196
    1ECLIPH810S 1200   3.836   3.453   5.186
    1ECLIP C811 1201   3.759   3.326   5.026
    1ECLIPH811R 1202   3.835   3.371   4.960
    1ECLIPH811S 1203   3.662   3.379   5.011
    1ECLIP C812 1204   3.740   3.179   4.983
    1ECLIPH812R 1205   3.706   3.179   4.878
    1ECLIPH812S 1206   3.661   3.131   5.044
    1ECLIP C813 1207   3.869   3.096   4.995
    1ECLIPH813R 1208   3.954   3.157   4.959
    1ECLIPH813S 1209   3.887   3.072   5.101
    1ECLIP C814 1210   3.864   2.966   4.912
    1ECLIPH814R 1211   3.844   2.989   4.806
    1ECLIPH814S 1212   3.783   2.899   4.950
    1ECLIPH814T 1213   3.960   2.912   4.920
    1ECLIP  C74 1214   3.616   2.704   5.926
    1ECLIP H74R 1215   3.579   2.599   5.924
    1ECLIP H74S 1216   3.726   2.699   5.945
    1ECLIP  C75 1217   3.598   2.770   5.788
    1ECLIP H75R 1218   3.682   2.737   5.723
    1ECLIP H75S 1219   3.605   2.880   5.796
    1ECLIP  C76 1220   3.468   2.733   5.715
    1ECLIP H76R 1221   3.379   2.771   5.771
    1ECLIP H76S 1222   3.460   2.622   5.712
    1ECLIP  C77 1223   3.464   2.788   5.572
    1ECLIP H77R 1224   3.559   2.764   5.520
    1ECLIP H77S 1225   3.454   2.899   5.576
    1ECLIP  C78 1226   3.347   2.729   5.493
    1ECLIP H78R 1227   3.361   2.620   5.483
    1ECLIP H78S 1228   3.254   2.745   5.554
    1ECLIP  C79 1229   3.324   2.790   5.354
    1ECLIP H79R 1230   3.295   2.897   5.365
    1ECLIP H79S 1231   3.238   2.737   5.308
    1ECLIP C710 1232   3.442   2.779   5.257
    1ECLIPH710R 1233   3.524   2.846   5.292
    1ECLIPH710S 1234   3.480   2.675   5.257
    1ECLIP C711 1235   3.398   2.818   5.116
    1ECLIPH711R 1236   3.315   2.750   5.085
    1ECLIPH711S 1237   3.356   2.922   5.118
    1ECLIP C712 1238   3.511   2.813   5.012
    1ECLIPH712R 1239   3.547   2.708   5.004
    1ECLIPH712S 1240   3.595   2.875   5.050
    1ECLIP C713 1241   3.468   2.865   4.874
    1ECLIPH713R 1242   3.442   2.972   4.884
    1ECLIPH713S 1243   3.555   2.858   4.806
    1ECLIP C714 1244   3.349   2.790   4.813
    1ECLIPH714R 1245   3.373   2.682   4.801
    1ECLIPH714S 1246   3.260   2.800   4.878
    1ECLIPH714T 1247   3.323   2.832   4.714
    1ECLIP  C51 1248   3.293   3.206   6.045
    1ECLIP  O51 1249   3.406   3.257   6.045
    1ECLIP  C52 1250   3.191   3.228   5.934
    1ECLIP H52R 1251   3.134   3.135   5.919
    1ECLIP H52S 1252   3.120   3.306   5.970
    1ECLIP  C53 1253   3.247   3.276   5.797
    1ECLIP H53R 1254   3.313   3.364   5.811
    1ECLIP  O53 1255   3.130   3.308   5.722
    1ECLIP  C61 1256   3.133   3.415   5.642
    1ECLIP  O61 1257   3.235   3.468   5.601
    1ECLIP  C62 1258   3.000   3.418   5.565
    1ECLIP H62R 1259   2.918   3.431   5.638
    1ECLIP H62S 1260   2.989   3.319   5.516
    1ECLIP  C63 1261   2.994   3.533   5.460
    1ECLIP H63R 1262   3.082   3.526   5.393
    1ECLIP H63S 1263   3.001   3.629   5.514
    1ECLIP  C64 1264   2.866   3.533   5.374
    1ECLIP H64R 1265   2.867   3.624   5.311
    1ECLIP H64S 1266   2.777   3.538   5.441
    1ECLIP  C65 1267   2.854   3.409   5.285
    1ECLIP H65R 1268   2.841   3.321   5.351
    1ECLIP H65S 1269   2.948   3.394   5.228
    1ECLIP  C66 1270   2.734   3.413   5.188
    1ECLIP H66R 1271   2.642   3.438   5.247
    1ECLIP H66S 1272   2.719   3.312   5.146
    1ECLIP  C67 1273   2.747   3.510   5.069
    1ECLIP H67R 1274   2.741   3.615   5.106
    1ECLIP H67S 1275   2.660   3.494   5.003
    1ECLIP  C68 1276   2.876   3.494   4.988
    1ECLIP H68R 1277   2.900   3.386   4.976
    1ECLIP H68S 1278   2.960   3.541   5.043
    1ECLIP  C69 1279   2.863   3.557   4.849
    1ECLIP H69R 1280   2.810   3.654   4.860
    1ECLIP H69S 1281   2.801   3.492   4.785
    1ECLIP C610 1282   2.997   3.584   4.781
    1ECLIPH610R 1283   3.055   3.490   4.770
    1ECLIPH610S 1284   3.056   3.651   4.848
    1ECLIP C611 1285   2.980   3.654   4.644
    1ECLIPH611R 1286   2.872   3.676   4.634
    1ECLIPH611S 1287   3.033   3.751   4.648
    1ECLIP C612 1288   3.027   3.574   4.523
    1ECLIPH612R 1289   3.138   3.564   4.520
    1ECLIPH612S 1290   2.984   3.472   4.523
    1ECLIPH612T 1291   2.996   3.625   4.429
    1ECLIP  C54 1292   3.325   3.162   5.726
    1ECLIP H54R 1293   3.259   3.074   5.714
    1ECLIP H54S 1294   3.408   3.132   5.795
    1ECLIP  C55 1295   3.390   3.196   5.590
    1ECLIP H55R 1296   3.479   3.130   5.577
    1ECLIP H55S 1297   3.427   3.300   5.592
    1ECLIP  C56 1298   3.299   3.175   5.469
    1ECLIP H56R 1299   3.210   3.240   5.476
    1ECLIP H56S 1300   3.262   3.070   5.467
    1ECLIP  C57 1301   3.371   3.208   5.337
    1ECLIP H57R 1302   3.455   3.137   5.323
    1ECLIP H57S 1303   3.413   3.311   5.345
    1ECLIP  C58 1304   3.280   3.204   5.214
    1ECLIP H58R 1305   3.238   3.101   5.203
    1ECLIP H58S 1306   3.195   3.274   5.228
    1ECLIP  C59 1307   3.353   3.241   5.083
    1ECLIP H59R 1308   3.445   3.179   5.076
    1ECLIP H59S 1309   3.385   3.347   5.089
    1ECLIP C510 1310   3.269   3.217   4.957
    1ECLIPH510R 1311   3.174   3.273   4.964
    1ECLIPH510S 1312   3.245   3.109   4.952
    1ECLIP C511 1313   3.342   3.255   4.826
    1ECLIPH511R 1314   3.340   3.366   4.814
    1ECLIPH511S 1315   3.449   3.225   4.837
    1ECLIP C512 1316   3.286   3.186   4.701
    1ECLIPH512R 1317   3.353   3.206   4.615
    1ECLIPH512S 1318   3.286   3.076   4.719
    1ECLIP C513 1319   3.144   3.230   4.663
    1ECLIPH513R 1320   3.146   3.338   4.638
    1ECLIPH513S 1321   3.077   3.218   4.752
    1ECLIP C514 1322   3.085   3.151   4.545
    1ECLIPH514R 1323   3.081   3.043   4.569
    1ECLIPH514S 1324   2.982   3.186   4.523
    1ECLIPH514T 1325   3.147   3.165   4.454
    1ECLIP  C33 1326   2.814   3.563   6.016
    1ECLIP H33R 1327   2.706   3.572   6.038
    1ECLIP  O33 1328   2.879   3.519   6.134
    1ECLIP HO33 1329   2.890   3.586   6.202
    1ECLIP  C34 1330   2.836   3.453   5.910
    1ECLIP H34R 1331   2.944   3.447   5.884
    1ECLIP H34S 1332   2.780   3.481   5.818
    1ECLIP  C35 1333   2.799   3.308   5.951
    1ECLIP H35R 1334   2.692   3.305   5.981
    1ECLIP H35S 1335   2.860   3.279   6.038
    1ECLIP  C36 1336   2.827   3.213   5.834
    1ECLIP H36R 1337   2.924   3.245   5.790
    1ECLIP H36S 1338   2.750   3.229   5.755
    1ECLIP  C37 1339   2.844   3.063   5.865
    1ECLIP H37R 1340   2.744   3.017   5.877
    1ECLIP H37S 1341   2.898   3.051   5.962
    1ECLIP  C38 1342   2.924   2.990   5.754
    1ECLIP H38R 1343   3.028   3.027   5.755
    1ECLIP H38S 1344   2.926   2.881   5.776
    1ECLIP  C39 1345   2.865   3.014   5.615
    1ECLIP H39R 1346   2.856   3.124   5.599
    1ECLIP H39S 1347   2.763   2.971   5.611
    1ECLIP C310 1348   2.946   2.961   5.495
    1ECLIPH310R 1349   2.901   2.864   5.465
    1ECLIPH310S 1350   3.052   2.943   5.524
    1ECLIP C311 1351   2.941   3.059   5.377
    1ECLIPH311R 1352   2.840   3.105   5.377
    1ECLIPH311S 1353   3.015   3.140   5.393
    1ECLIP C312 1354   2.962   2.996   5.238
    1ECLIPH312R 1355   3.064   2.953   5.233
    1ECLIPH312S 1356   2.888   2.915   5.226
    1ECLIP C313 1357   2.941   3.099   5.127
    1ECLIPH313R 1358   2.838   3.141   5.138
    1ECLIPH313S 1359   3.012   3.183   5.141
    1ECLIP C314 1360   2.954   3.044   4.984
    1ECLIPH314R 1361   2.871   2.974   4.964
    1ECLIPH314S 1362   2.949   3.127   4.910
    1ECLIPH314T 1363   3.051   2.991   4.972
    1ECLIP  C11 1364   3.424   3.697   5.752
    1ECLIP  O11 1365   3.459   3.580   5.742
    1ECLIP  C12 1366   3.472   3.798   5.650
    1ECLIP H12R 1367   3.580   3.815   5.671
    1ECLIP H12S 1368   3.418   3.894   5.662
    1ECLIP  C13 1369   3.456   3.744   5.506
    1ECLIP H13R 1370   3.486   3.637   5.502
    1ECLIP  O13 1371   3.545   3.818   5.424
    1ECLIP HO13 1372   3.542   3.789   5.333
    1ECLIP  C14 1373   3.314   3.760   5.448
    1ECLIP H14R 1374   3.275   3.859   5.481
    1ECLIP H14S 1375   3.248   3.683   5.493
    1ECLIP  C15 1376   3.304   3.755   5.293
    1ECLIP H15R 1377   3.359   3.843   5.253
    1ECLIP H15S 1378   3.198   3.769   5.264
    1ECLIP  C16 1379   3.358   3.627   5.227
    1ECLIP H16R 1380   3.273   3.556   5.219
    1ECLIP H16S 1381   3.434   3.577   5.292
    1ECLIP  C17 1382   3.419   3.652   5.089
    1ECLIP H17R 1383   3.358   3.731   5.038
    1ECLIP H17S 1384   3.410   3.560   5.028
    1ECLIP  C18 1385   3.567   3.696   5.091
    1ECLIP H18R 1386   3.574   3.786   5.155
    1ECLIP H18S 1387   3.628   3.616   5.138
    1ECLIP  C19 1388   3.626   3.732   4.953
    1ECLIP H19R 1389   3.722   3.785   4.969
    1ECLIP H19S 1390   3.556   3.803   4.905
    1ECLIP C110 1391   3.651   3.611   4.861
    1ECLIPH110R 1392   3.736   3.553   4.903
    1ECLIPH110S 1393   3.561   3.545   4.863
    1ECLIP C111 1394   3.684   3.647   4.716
    1ECLIPH111R 1395   3.613   3.725   4.681
    1ECLIPH111S 1396   3.786   3.692   4.712
    1ECLIP C112 1397   3.676   3.526   4.620
    1ECLIPH112R 1398   3.775   3.508   4.575
    1ECLIPH112S 1399   3.648   3.435   4.677
    1ECLIP C113 1400   3.572   3.548   4.509
    1ECLIPH113R 1401   3.473   3.563   4.557
    1ECLIPH113S 1402   3.600   3.641   4.455
    1ECLIP C114 1403   3.555   3.436   4.406
    1ECLIPH114R 1404   3.649   3.426   4.347
    1ECLIPH114S 1405   3.532   3.340   4.457
    1ECLIPH114T 1406   3.472   3.460   4.337
    2AKDO    C1 1407   3.210   3.079   6.842
    2AKDO   O11 1408   3.221   2.956   6.818
    2AKDO   O12 1409   3.104   3.147   6.849
    2AKDO    C2 1410   3.339   3.154   6.891
    2AKDO    C6 1411   3.548   3.124   7.002
    2AKDO    H6 1412   3.586   3.182   6.914
    2AKDO    O6 1413   3.426   3.061   6.958
    2AKDO    C3 1414   3.310   3.268   6.990
    2AKDO   H31 1415   3.256   3.227   7.078
    2AKDO   H32 1416   3.244   3.343   6.943
    2AKDO    C4 1417   3.433   3.335   7.042
    2AKDO    H4 1418   3.487   3.380   6.957
    2AKDO    O4 1419   3.399   3.433   7.141
    2AKDO    C5 1420   3.524   3.232   7.109
    2AKDO    H5 1421   3.620   3.287   7.122
    2AKDO    O5 1422   3.477   3.190   7.240
    2AKDO    C7 1423   3.651   3.013   7.018
    2AKDO    H7 1424   3.624   2.945   7.101
    2AKDO    O7 1425   3.780   3.073   7.040
    2AKDO   HO7 1426   3.789   3.134   6.967
    2AKDO    C8 1427   3.655   2.933   6.888
    2AKDO   H81 1428   3.555   2.885   6.873
    2AKDO   H82 1429   3.673   3.001   6.804
    2AKDO    O8 1430   3.751   2.827   6.878
    2AKDO   HO8 1431   3.732   2.796   6.789
    3AKDO    C1 1432   3.454   3.622   6.990
    3AKDO   O11 1433   3.401   3.642   6.878
    3AKDO   O12 1434   3.578   3.627   7.017
    3AKDO    C2 1435   3.364   3.566   7.105
    3AKDO    C6 1436   3.133   3.543   7.182
    3AKDO    H6 1437   3.146   3.433   7.196
    3AKDO    O6 1438   3.223   3.587   7.077
    3AKDO    C3 1439   3.396   3.637   7.237
    3AKDO   H31 1440   3.382   3.746   7.223
    3AKDO   H32 1441   3.503   3.620   7.262
    3AKDO    C4 1442   3.311   3.587   7.349
    3AKDO    H4 1443   3.322   3.477   7.360
    3AKDO    O4 1444   3.354   3.646   7.472
    3AKDO   HO4 1445   3.405   3.581   7.520
    3AKDO    C5 1446   3.165   3.614   7.314
    3AKDO    H5 1447   3.102   3.571   7.395
    3AKDO    O5 1448   3.135   3.753   7.306
    3AKDO   HO5 1449   3.172   3.785   7.223
    3AKDO    C7 1450   2.989   3.569   7.141
    3AKDO    H7 1451   2.973   3.678   7.127
    3AKDO    O7 1452   2.896   3.521   7.240
    3AKDO   HO7 1453   2.823   3.502   7.181
    3AKDO    C8 1454   2.954   3.501   7.010
    3AKDO   H81 1455   3.023   3.534   6.929
    3AKDO   H82 1456   2.962   3.391   7.018
    3AKDO    O8 1457   2.819   3.535   6.973
    3AKDO   HO8 1458   2.826   3.600   6.903
    4AHEP    C1 1459   3.578   3.144   7.328
    4AHEP    H1 1460   3.618   3.051   7.282
    4AHEP    C5 1461   3.668   3.347   7.419
    4AHEP    H5 1462   3.575   3.395   7.380
    4AHEP    O5 1463   3.693   3.231   7.337
    4AHEP    C2 1464   3.535   3.100   7.470
    4AHEP    H2 1465   3.437   3.050   7.457
    4AHEP    O2 1466   3.623   3.003   7.528
    4AHEP   HO2 1467   3.589   2.915   7.510
    4AHEP    C3 1468   3.510   3.218   7.564
    4AHEP    H3 1469   3.425   3.278   7.525
    4AHEP    O3 1470   3.485   3.171   7.700
    4AHEP    C4 1471   3.638   3.302   7.564
    4AHEP    H4 1472   3.723   3.236   7.594
    4AHEP    O4 1473   3.625   3.415   7.651
    4AHEP    P4 1474   3.733   3.437   7.775
    4AHEP  OP42 1475   3.700   3.569   7.844
    4AHEP  OP43 1476   3.872   3.439   7.715
    4AHEP  OP44 1477   3.721   3.322   7.873
    4AHEP    C6 1478   3.778   3.452   7.403
    4AHEP    H6 1479   3.746   3.544   7.454
    4AHEP    O6 1480   3.902   3.409   7.462
    4AHEP   HO6 1481   3.885   3.415   7.556
    4AHEP    C7 1482   3.803   3.488   7.256
    4AHEP   H71 1483   3.872   3.575   7.250
    4AHEP   H72 1484   3.707   3.518   7.209
    4AHEP    O7 1485   3.859   3.379   7.181
    4AHEP   HO7 1486   3.815   3.304   7.219
    5AHEP    C1 1487   3.365   3.212   7.764
    5AHEP    H1 1488   3.331   3.307   7.719
    5AHEP    C5 1489   3.293   2.986   7.809
    5AHEP    H5 1490   3.386   2.948   7.762
    5AHEP    O5 1491   3.262   3.114   7.752
    5AHEP    C2 1492   3.380   3.235   7.914
    5AHEP    H2 1493   3.466   3.305   7.926
    5AHEP    O2 1494   3.264   3.302   7.965
    5AHEP   HO2 1495   3.283   3.396   7.965
    5AHEP    C3 1496   3.416   3.106   7.988
    5AHEP    H3 1497   3.516   3.072   7.954
    5AHEP    O3 1498   3.417   3.130   8.132
    5AHEP    C4 1499   3.312   2.999   7.962
    5AHEP    H4 1500   3.216   3.022   8.014
    5AHEP    O4 1501   3.364   2.871   8.000
    5AHEP    P4 1502   3.359   2.777   8.134
    5AHEP  OP42 1503   3.458   2.665   8.105
    5AHEP  OP43 1504   3.220   2.720   8.156
    5AHEP  OP44 1505   3.414   2.854   8.253
    5AHEP    C6 1506   3.175   2.900   7.761
    5AHEP    H6 1507   3.201   2.794   7.778
    5AHEP    O6 1508   3.057   2.930   7.839
    5AHEP   HO6 1509   3.066   3.025   7.851
    5AHEP    C7 1510   3.144   2.926   7.612
    5AHEP   H71 1511   3.123   2.827   7.566
    5AHEP   H72 1512   3.233   2.966   7.559
    5AHEP    O7 1513   3.027   3.008   7.589
    6AHEP    C1 1514   3.056   3.133   7.528
    6AHEP    H1 1515   3.148   3.179   7.571
    6AHEP    C5 1516   2.964   3.072   7.316
    6AHEP    H5 1517   2.938   2.974   7.361
    6AHEP    O5 1518   3.078   3.124   7.388
    6AHEP    C2 1519   2.939   3.226   7.556
    6AHEP    H2 1520   2.920   3.221   7.667
    6AHEP    O2 1521   2.970   3.364   7.530
    6AHEP   HO2 1522   2.971   3.380   7.434
    6AHEP    C3 1523   2.816   3.176   7.484
    6AHEP    H3 1524   2.795   3.073   7.520
    6AHEP    O3 1525   2.698   3.253   7.511
    6AHEP   HO3 1526   2.652   3.249   7.427
    6AHEP    C4 1527   2.846   3.166   7.337
    6AHEP    H4 1528   2.874   3.267   7.297
    6AHEP    O4 1529   2.730   3.123   7.264
    6AHEP   HO4 1530   2.741   3.144   7.171
    6AHEP    C6 1531   2.998   3.047   7.169
    6AHEP    H6 1532   2.910   3.005   7.118
    6AHEP    O6 1533   3.024   3.172   7.105
    6AHEP   HO6 1534   3.049   3.154   7.014
    6AHEP    C7 1535   3.114   2.949   7.150
    6AHEP   H71 1536   3.126   2.926   7.042
    6AHEP   H72 1537   3.088   2.853   7.200
    6AHEP    O7 1538   3.241   2.989   7.204
    6AHEP   HO7 1539   3.280   3.047   7.139
    7AGLC    C1 1540   3.534   3.185   8.188
    7AGLC    H1 1541   3.622   3.131   8.146
    7AGLC    C5 1542   3.446   3.408   8.219
    7AGLC    H5 1543   3.347   3.373   8.184
    7AGLC    O5 1544   3.549   3.325   8.161
    7AGLC    C2 1545   3.534   3.171   8.341
    7AGLC    H2 1546   3.630   3.214   8.377
    7AGLC    O2 1547   3.535   3.036   8.385
    7AGLC   HO2 1548   3.475   2.984   8.332
    7AGLC    C3 1549   3.423   3.251   8.408
    7AGLC    H3 1550   3.327   3.218   8.362
    7AGLC    O3 1551   3.416   3.237   8.552
    7AGLC    C4 1552   3.448   3.396   8.370
    7AGLC    H4 1553   3.550   3.424   8.405
    7AGLC    O4 1554   3.356   3.486   8.429
    7AGLC   HO4 1555   3.403   3.569   8.443
    7AGLC    C6 1556   3.467   3.549   8.168
    7AGLC   H61 1557   3.475   3.548   8.057
    7AGLC   H62 1558   3.380   3.612   8.195
    7AGLC    O6 1559   3.586   3.607   8.222
    7AGLC   HO6 1560   3.658   3.573   8.169
    8AGLC    C1 1561   3.287   3.202   8.599
    8AGLC    H1 1562   3.211   3.262   8.545
    8AGLC    C5 1563   3.351   2.974   8.641
    8AGLC    H5 1564   3.455   3.005   8.615
    8AGLC    O5 1565   3.260   3.064   8.575
    8AGLC    C2 1566   3.272   3.222   8.750
    8AGLC    H2 1567   3.168   3.194   8.776
    8AGLC    O2 1568   3.295   3.356   8.795
    8AGLC    C3 1569   3.366   3.133   8.827
    8AGLC    H3 1570   3.469   3.156   8.792
    8AGLC    O3 1571   3.364   3.167   8.969
    8AGLC    C4 1572   3.337   2.989   8.792
    8AGLC    H4 1573   3.232   2.964   8.818
    8AGLC    O4 1574   3.423   2.897   8.858
    8AGLC   HO4 1575   3.417   2.820   8.802
    8AGLC    C6 1576   3.332   2.836   8.580
    8AGLC   H61 1577   3.257   2.840   8.498
    8AGLC   H62 1578   3.427   2.805   8.530
    8AGLC    O6 1579   3.295   2.736   8.675
    8AGLC   HO6 1580   3.281   2.656   8.624
    9AGAL    C1 1581   3.216   3.458   8.738
    9AGAL    H1 1582   3.219   3.456   8.627
    9AGAL    C5 1583   3.064   3.454   8.921
    9AGAL    H5 1584   3.129   3.375   8.965
    9AGAL    O5 1585   3.078   3.449   8.780
    9AGAL    C2 1586   3.275   3.589   8.785
    9AGAL    H2 1587   3.222   3.673   8.735
    9AGAL    O2 1588   3.409   3.582   8.733
    9AGAL    C3 1589   3.261   3.602   8.936
    9AGAL    H3 1590   3.319   3.520   8.984
    9AGAL    O3 1591   3.311   3.726   8.986
    9AGAL   HO3 1592   3.260   3.795   8.943
    9AGAL    C4 1593   3.114   3.588   8.974
    9AGAL    H4 1594   3.107   3.587   9.085
    9AGAL    O4 1595   3.036   3.699   8.927
    9AGAL   HO4 1596   2.995   3.674   8.844
    9AGAL    C6 1597   2.922   3.413   8.958
    9AGAL   H61 1598   2.898   3.319   8.905
    9AGAL   H62 1599   2.918   3.394   9.068
    9AGAL    O6 1600   2.820   3.509   8.929
    9AGAL   HO6 1601   2.830   3.539   8.839
   10AGAL    C1 1602   3.516   3.661   8.778
   10AGAL    H1 1603   3.486   3.767   8.785
   10AGAL    C5 1604   3.607   3.477   8.903
   10AGAL    H5 1605   3.521   3.416   8.866
   10AGAL    O5 1606   3.567   3.615   8.906
   10AGAL    C2 1607   3.627   3.645   8.674
   10AGAL    H2 1608   3.712   3.710   8.707
   10AGAL    O2 1609   3.584   3.691   8.546
   10AGAL   HO2 1610   3.662   3.714   8.493
   10AGAL    C3 1611   3.675   3.500   8.667
   10AGAL    H3 1612   3.590   3.436   8.635
   10AGAL    O3 1613   3.781   3.482   8.573
   10AGAL   HO3 1614   3.749   3.494   8.483
   10AGAL    C4 1615   3.721   3.456   8.804
   10AGAL    H4 1616   3.745   3.348   8.799
   10AGAL    O4 1617   3.841   3.525   8.844
   10AGAL   HO4 1618   3.888   3.544   8.761
   10AGAL    C6 1619   3.636   3.428   9.043
   10AGAL   H61 1620   3.548   3.448   9.109
   10AGAL   H62 1621   3.653   3.319   9.042
   10AGAL    O6 1622   3.752   3.492   9.098
   10AGAL   HO6 1623   3.804   3.512   9.020
   11BGLC    C1 1624   3.277   3.100   9.056
   11BGLC    H1 1625   3.303   2.992   9.062
   11BGLC    C5 1626   3.049   3.056   9.116
   11BGLC    H5 1627   3.071   2.947   9.120
   11BGLC    O5 1628   3.139   3.119   9.023
   11BGLC    C2 1629   3.302   3.168   9.191
   11BGLC    H2 1630   3.277   3.275   9.181
   11BGLC    O2 1631   3.439   3.159   9.233
   11BGLC   HO2 1632   3.492   3.177   9.155
   11BGLC    C3 1633   3.213   3.107   9.297
   11BGLC    H3 1634   3.241   3.002   9.318
   11BGLC    O3 1635   3.215   3.189   9.417
   11BGLC    C4 1636   3.071   3.119   9.252
   11BGLC    H4 1637   3.045   3.227   9.245
   11BGLC    O4 1638   2.984   3.059   9.348
   11BGLC   HO4 1639   2.989   3.111   9.429
   11BGLC    C6 1640   2.904   3.075   9.076
   11BGLC   H61 1641   2.837   3.024   9.148
   11BGLC   H62 1642   2.879   3.183   9.083
   11BGLC    O6 1643   2.872   3.033   8.944
   11BGLC   HO6 1644   2.908   2.946   8.925
   12BGLCN   C1 1645   3.283   3.146   9.530
   12BGLCN   H1 1646   3.392   3.151   9.514
   12BGLCN   C5 1647   3.289   2.974   9.698
   12BGLCN   H5 1648   3.400   2.975   9.697
   12BGLCN   O5 1649   3.240   3.014   9.569
   12BGLCN   C2 1650   3.234   3.247   9.634
   12BGLCN   H2 1651   3.124   3.230   9.638
   12BGLCN    N 1652   3.253   3.385   9.590
   12BGLCN   HN 1653   3.339   3.408   9.544
   12BGLCN    C 1654   3.157   3.478   9.598
   12BGLCN    O 1655   3.050   3.459   9.655
   12BGLCN   CT 1656   3.187   3.611   9.535
   12BGLCN  HT1 1657   3.183   3.692   9.610
   12BGLCN  HT2 1658   3.112   3.632   9.455
   12BGLCN  HT3 1659   3.288   3.610   9.488
   12BGLCN   C3 1660   3.289   3.214   9.771
   12BGLCN   H3 1661   3.399   3.216   9.766
   12BGLCN   O3 1662   3.244   3.308   9.870
   12BGLCN   C4 1663   3.239   3.074   9.802
   12BGLCN   H4 1664   3.128   3.076   9.794
   12BGLCN   O4 1665   3.268   3.030   9.936
   12BGLCN  HO4 1666   3.353   3.064   9.964
   12BGLCN   C6 1667   3.240   2.832   9.719
   12BGLCN  H61 1668   3.255   2.802   9.825
   12BGLCN  H62 1669   3.132   2.825   9.697
   12BGLCN   O6 1670   3.311   2.739   9.638
   12BGLCN  HO6 1671   3.289   2.754   9.545
   13AGAL    C1 1672   3.337   3.344   9.971
   13AGAL    H1 1673   3.395   3.256  10.004
   13AGAL    C5 1674   3.358   3.570   9.891
   13AGAL    H5 1675   3.286   3.544   9.811
   13AGAL    O5 1676   3.426   3.449   9.929
   13AGAL    C2 1677   3.260   3.400  10.090
   13AGAL    H2 1678   3.337   3.438  10.160
   13AGAL    O2 1679   3.185   3.299  10.158
   13AGAL    C3 1680   3.177   3.520  10.049
   13AGAL    H3 1681   3.116   3.491   9.960
   13AGAL    O3 1682   3.084   3.561  10.149
   13AGAL   HO3 1683   2.996   3.537  10.120
   13AGAL    C4 1684   3.273   3.629  10.005
   13AGAL    H4 1685   3.215   3.715   9.965
   13AGAL    O4 1686   3.355   3.677  10.112
   13AGAL   HO4 1687   3.435   3.710  10.071
   13AGAL    C6 1688   3.457   3.667   9.829
   13AGAL   H61 1689   3.509   3.618   9.745
   13AGAL   H62 1690   3.401   3.754   9.787
   13AGAL    O6 1691   3.555   3.717   9.921
   13AGAL   HO6 1692   3.579   3.806   9.893
   14ARHM    C1 1693   3.235   3.258  10.285
   14ARHM    H1 1694   3.342   3.286  10.295
   14ARHM    C5 1695   3.098   3.068  10.275
   14ARHM    H5 1696   3.062   3.096  10.174
   14ARHM    O5 1697   3.230   3.117  10.295
   14ARHM    C2 1698   3.150   3.322  10.393
   14ARHM    H2 1699   3.157   3.433  10.380
   14ARHM    O2 1700   3.185   3.291  10.530
   14ARHM    C3 1701   3.007   3.278  10.375
   14ARHM    H3 1702   2.970   3.310  10.275
   14ARHM    O3 1703   2.925   3.340  10.474
   14ARHM   HO3 1704   2.979   3.349  10.554
   14ARHM    C4 1705   3.003   3.126  10.381
   14ARHM    H4 1706   3.038   3.093  10.481
   14ARHM    O4 1707   2.870   3.078  10.363
   14ARHM   HO4 1708   2.871   2.982  10.356
   14ARHM    C6 1709   3.120   2.916  10.278
   14ARHM   H61 1710   3.211   2.891  10.219
   14ARHM   H62 1711   3.134   2.879  10.381
   14ARHM   H63 1712   3.035   2.864  10.228
   15ARHM    C1 1713   3.321   3.293  10.564
   15ARHM    H1 1714   3.376   3.365  10.499
   15ARHM    C5 1715   3.320   3.065  10.641
   15ARHM    H5 1716   3.212   3.058  10.615
   15ARHM    O5 1717   3.382   3.163  10.556
   15ARHM    C2 1718   3.329   3.340  10.707
   15ARHM    H2 1719   3.278   3.438  10.715
   15ARHM    O2 1720   3.469   3.358  10.731
   15ARHM    C3 1721   3.262   3.242  10.800
   15ARHM    H3 1722   3.157   3.230  10.766
   15ARHM    O3 1723   3.260   3.295  10.933
   15ARHM    C4 1724   3.332   3.108  10.787
   15ARHM    H4 1725   3.440   3.120  10.812
   15ARHM    O4 1726   3.278   3.011  10.877
   15ARHM   HO4 1727   3.325   2.928  10.867
   15ARHM    C6 1728   3.383   2.929  10.610
   15ARHM   H61 1729   3.332   2.847  10.667
   15ARHM   H62 1730   3.376   2.907  10.502
   15ARHM   H63 1731   3.491   2.928  10.638
   16BMANN   C1 1732   3.509   3.408  10.856
   16BMANN   H1 1733   3.491   3.333  10.936
   16BMANN   C5 1734   3.487   3.587  11.012
   16BMANN   H5 1735   3.470   3.512  11.092
   16BMANN   O5 1736   3.444   3.532  10.885
   16BMANN   C2 1737   3.657   3.432  10.840
   16BMANN   H2 1738   3.704   3.332  10.827
   16BMANN    N 1739   3.686   3.514  10.722
   16BMANN   HN 1740   3.637   3.601  10.716
   16BMANN    C 1741   3.760   3.475  10.618
   16BMANN    O 1742   3.820   3.368  10.615
   16BMANN   CT 1743   3.762   3.568  10.500
   16BMANN  HT1 1744   3.863   3.568  10.453
   16BMANN  HT2 1745   3.736   3.672  10.531
   16BMANN  HT3 1746   3.688   3.534  10.424
   16BMANN   C3 1747   3.709   3.488  10.970
   16BMANN   H3 1748   3.687   3.415  11.050
   16BMANN   O3 1749   3.851   3.503  10.965
   16BMANN  HO3 1750   3.874   3.531  10.877
   16BMANN   C4 1751   3.637   3.617  11.005
   16BMANN   H4 1752   3.654   3.693  10.926
   16BMANN   O4 1753   3.681   3.671  11.130
   16BMANN  HO4 1754   3.758   3.727  11.114
   16BMANN   C6 1755   3.400   3.707  11.041
   16BMANN  H61 1756   3.435   3.758  11.134
   16BMANN  H62 1757   3.407   3.781  10.958
   16BMANN   O6 1758   3.264   3.668  11.059
   16BMANN  HO6 1759   3.234   3.626  10.978
   17BGLCN   C1 1760   3.145   3.263  11.006
   17BGLCN   H1 1761   3.108   3.161  10.981
   17BGLCN   C5 1762   2.925   3.332  11.062
   17BGLCN   H5 1763   2.888   3.230  11.036
   17BGLCN   O5 1764   3.042   3.360  10.985
   17BGLCN   C2 1765   3.188   3.270  11.151
   17BGLCN   H2 1766   3.213   3.376  11.172
   17BGLCN    N 1767   3.308   3.192  11.173
   17BGLCN   HN 1768   3.322   3.115  11.110
   17BGLCN    C 1769   3.404   3.224  11.262
   17BGLCN    O 1770   3.397   3.322  11.335
   17BGLCN   CT 1771   3.522   3.131  11.266
   17BGLCN  HT1 1772   3.611   3.181  11.221
   17BGLCN  HT2 1773   3.502   3.037  11.211
   17BGLCN  HT3 1774   3.545   3.106  11.373
   17BGLCN   C3 1775   3.069   3.231  11.238
   17BGLCN   H3 1776   3.035   3.131  11.206
   17BGLCN   O3 1777   3.111   3.222  11.377
   17BGLCN   C4 1778   2.959   3.333  11.211
   17BGLCN   H4 1779   2.998   3.434  11.238
   17BGLCN   O4 1780   2.843   3.310  11.290
   17BGLCN  HO4 1781   2.834   3.381  11.354
   17BGLCN   C6 1782   2.816   3.431  11.026
   17BGLCN  H61 1783   2.721   3.405  11.078
   17BGLCN  H62 1784   2.846   3.533  11.059
   17BGLCN   O6 1785   2.790   3.437  10.884
   17BGLCN  HO6 1786   2.792   3.350  10.844
   18AGAL    C1 1787   3.041   3.130  11.458
   18AGAL    H1 1788   2.934   3.161  11.468
   18AGAL    C5 1789   3.177   2.939  11.405
   18AGAL    H5 1790   3.238   3.000  11.335
   18AGAL    O5 1791   3.044   2.995  11.409
   18AGAL    C2 1792   3.103   3.130  11.597
   18AGAL    H2 1793   3.046   3.050  11.649
   18AGAL    O2 1794   3.080   3.250  11.675
   18AGAL    C3 1795   3.249   3.086  11.589
   18AGAL    H3 1796   3.299   3.149  11.512
   18AGAL    O3 1797   3.323   3.109  11.708
   18AGAL   HO3 1798   3.400   3.052  11.714
   18AGAL    C4 1799   3.249   2.942  11.541
   18AGAL    H4 1800   3.354   2.909  11.526
   18AGAL    O4 1801   3.191   2.855  11.640
   18AGAL   HO4 1802   3.201   2.763  11.614
   18AGAL    C6 1803   3.166   2.800  11.342
   18AGAL   H61 1804   3.136   2.811  11.236
   18AGAL   H62 1805   3.265   2.751  11.345
   18AGAL    O6 1806   3.071   2.715  11.408
   18AGAL   HO6 1807   2.982   2.748  11.392
   19ARHM    C1 1808   3.064   3.216  11.811
   19ARHM    H1 1809   3.121   3.125  11.838
   19ARHM    C5 1810   2.842   3.301  11.824
   19ARHM    H5 1811   2.851   3.336  11.718
   19ARHM    O5 1812   2.927   3.188  11.845
   19ARHM    C2 1813   3.116   3.329  11.895
   19ARHM    H2 1814   3.213   3.359  11.849
   19ARHM    O2 1815   3.142   3.293  12.033
   19ARHM    C3 1816   3.028   3.451  11.880
   19ARHM    H3 1817   3.030   3.485  11.774
   19ARHM    O3 1818   3.079   3.558  11.961
   19ARHM   HO3 1819   3.084   3.527  12.051
   19ARHM    C4 1820   2.885   3.413  11.918
   19ARHM    H4 1821   2.886   3.371  12.020
   19ARHM    O4 1822   2.793   3.522  11.918
   19ARHM   HO4 1823   2.797   3.571  11.835
   19ARHM    C6 1824   2.698   3.250  11.842
   19ARHM   H61 1825   2.679   3.165  11.773
   19ARHM   H62 1826   2.682   3.215  11.946
   19ARHM   H63 1827   2.625   3.331  11.816
   20ARHM    C1 1828   3.266   3.227  12.052
   20ARHM    H1 1829   3.339   3.258  11.974
   20ARHM    C5 1830   3.173   3.027  12.148
   20ARHM    H5 1831   3.067   3.057  12.131
   20ARHM    O5 1832   3.256   3.084  12.047
   20ARHM    C2 1833   3.318   3.265  12.189
   20ARHM    H2 1834   3.326   3.376  12.196
   20ARHM    O2 1835   3.447   3.210  12.218
   20ARHM    C3 1836   3.227   3.215  12.297
   20ARHM    H3 1837   3.126   3.261  12.286
   20ARHM    O3 1838   3.285   3.250  12.423
   20ARHM    C4 1839   3.220   3.065  12.287
   20ARHM    H4 1840   3.321   3.023  12.304
   20ARHM    O4 1841   3.132   3.010  12.387
   20ARHM   HO4 1842   3.123   2.917  12.368
   20ARHM    C6 1843   3.193   2.877  12.121
   20ARHM   H61 1844   3.301   2.852  12.118
   20ARHM   H62 1845   3.146   2.815  12.200
   20ARHM   H63 1846   3.149   2.849  12.023
   21BMANN   C1 1847   3.550   3.228  12.125
   21BMANN   H1 1848   3.535   3.319  12.064
   21BMANN   C5 1849   3.677   3.120  11.953
   21BMANN   H5 1850   3.661   3.208  11.887
   21BMANN   O5 1851   3.566   3.110  12.044
   21BMANN   C2 1852   3.674   3.240  12.210
   21BMANN   H2 1853   3.661   3.333  12.270
   21BMANN    N 1854   3.684   3.128  12.304
   21BMANN   HN 1855   3.634   3.047  12.276
   21BMANN    C 1856   3.744   3.132  12.422
   21BMANN    O 1857   3.805   3.231  12.463
   21BMANN   CT 1858   3.732   3.009  12.508
   21BMANN  HT1 1859   3.821   2.944  12.491
   21BMANN  HT2 1860   3.640   2.952  12.481
   21BMANN  HT3 1861   3.728   3.038  12.614
   21BMANN   C3 1862   3.793   3.258  12.120
   21BMANN   H3 1863   3.774   3.347  12.055
   21BMANN   O3 1864   3.911   3.286  12.196
   21BMANN  HO3 1865   3.904   3.244  12.281
   21BMANN   C4 1866   3.807   3.137  12.030
   21BMANN   H4 1867   3.824   3.046  12.092
   21BMANN   O4 1868   3.916   3.150  11.939
   21BMANN  HO4 1869   3.989   3.095  11.968
   21BMANN   C6 1870   3.677   2.996  11.863
   21BMANN  H61 1871   3.754   3.008  11.784
   21BMANN  H62 1872   3.705   2.906  11.923
   21BMANN   O6 1873   3.551   2.973  11.802
   21BMANN  HO6 1874   3.490   2.940  11.868
   22BGLCN   C1 1875   3.207   3.317  12.519
   22BGLCN   H1 1876   3.100   3.291  12.508
   22BGLCN   C5 1877   3.172   3.531  12.618
   22BGLCN   H5 1878   3.063   3.511  12.620
   22BGLCN   O5 1879   3.231   3.457  12.510
   22BGLCN   C2 1880   3.265   3.262  12.648
   22BGLCN   H2 1881   3.373   3.285  12.648
   22BGLCN    N 1882   3.251   3.117  12.648
   22BGLCN   HN 1883   3.185   3.079  12.585
   22BGLCN    C 1884   3.335   3.031  12.710
   22BGLCN    O 1885   3.432   3.066  12.776
   22BGLCN   CT 1886   3.303   2.886  12.690
   22BGLCN  HT1 1887   3.333   2.855  12.589
   22BGLCN  HT2 1888   3.194   2.868  12.703
   22BGLCN  HT3 1889   3.359   2.826  12.766
   22BGLCN   C3 1890   3.204   3.334  12.766
   22BGLCN   H3 1891   3.094   3.319  12.763
   22BGLCN   O3 1892   3.256   3.273  12.885
   22BGLCN   C4 1893   3.233   3.483  12.750
   22BGLCN   H4 1894   3.343   3.495  12.745
   22BGLCN   O4 1895   3.186   3.563  12.859
   22BGLCN  HO4 1896   3.256   3.625  12.880
   22BGLCN   C6 1897   3.194   3.678  12.590
   22BGLCN  H61 1898   3.145   3.740  12.669
   22BGLCN  H62 1899   3.302   3.701  12.592
   22BGLCN   O6 1900   3.139   3.715  12.464
   22BGLCN  HO6 1901   3.195   3.676  12.397
   23AGAL    C1 1902   3.187   3.292  13.006
   23AGAL    H1 1903   3.198   3.397  13.038
   23AGAL    C5 1904   3.024   3.123  12.964
   23AGAL    H5 1905   3.079   3.100  12.870
   23AGAL    O5 1906   3.047   3.261  12.995
   23AGAL    C2 1907   3.250   3.205  13.114
   23AGAL    H2 1908   3.199   3.228  13.210
   23AGAL    O2 1909   3.391   3.233  13.127
   23AGAL    C3 1910   3.228   3.058  13.085
   23AGAL    H3 1911   3.280   3.033  12.989
   23AGAL    O3 1912   3.283   2.975  13.187
   23AGAL   HO3 1913   3.218   2.973  13.258
   23AGAL    C4 1914   3.080   3.031  13.071
   23AGAL    H4 1915   3.065   2.926  13.040
   23AGAL    O4 1916   3.011   3.048  13.196
   23AGAL   HO4 1917   2.920   3.069  13.172
   23AGAL    C6 1918   2.876   3.103  12.932
   23AGAL   H61 1919   2.846   3.176  12.853
   23AGAL   H62 1920   2.861   3.001  12.890
   23AGAL    O6 1921   2.790   3.118  13.044
   23AGAL   HO6 1922   2.729   3.190  13.030
   24ARHM    C1 1923   3.426   3.334  13.217
   24ARHM    H1 1924   3.341   3.405  13.225
   24ARHM    C5 1925   3.657   3.338  13.158
   24ARHM    H5 1926   3.641   3.256  13.085
   24ARHM    O5 1927   3.536   3.414  13.172
   24ARHM    C2 1928   3.454   3.272  13.350
   24ARHM    H2 1929   3.372   3.202  13.375
   24ARHM    O2 1930   3.463   3.372  13.453
   24ARHM    C3 1931   3.580   3.189  13.342
   24ARHM    H3 1932   3.565   3.108  13.267
   24ARHM    O3 1933   3.609   3.128  13.467
   24ARHM   HO3 1934   3.703   3.110  13.470
   24ARHM    C4 1935   3.695   3.276  13.294
   24ARHM    H4 1936   3.709   3.360  13.366
   24ARHM    O4 1937   3.819   3.204  13.287
   24ARHM   HO4 1938   3.863   3.220  13.203
   24ARHM    C6 1939   3.762   3.434  13.102
   24ARHM   H61 1940   3.857   3.382  13.078
   24ARHM   H62 1941   3.725   3.480  13.008
   24ARHM   H63 1942   3.783   3.516  13.175
   25ARHM    C1 1943   3.340   3.414  13.505
   25ARHM    H1 1944   3.258   3.391  13.433
   25ARHM    C5 1945   3.431   3.599  13.621
   25ARHM    H5 1946   3.533   3.568  13.589
   25ARHM    O5 1947   3.335   3.556  13.523
   25ARHM    C2 1948   3.311   3.340  13.634
   25ARHM    H2 1949   3.327   3.232  13.618
   25ARHM    O2 1950   3.177   3.363  13.682
   25ARHM    C3 1951   3.408   3.384  13.741
   25ARHM    H3 1952   3.511   3.356  13.707
   25ARHM    O3 1953   3.376   3.314  13.860
   25ARHM    C4 1954   3.399   3.535  13.756
   25ARHM    H4 1955   3.295   3.562  13.783
   25ARHM    O4 1956   3.485   3.584  13.859
   25ARHM   HO4 1957   3.494   3.679  13.849
   25ARHM    C6 1958   3.426   3.753  13.620
   25ARHM   H61 1959   3.446   3.790  13.519
   25ARHM   H62 1960   3.326   3.789  13.652
   25ARHM   H63 1961   3.504   3.796  13.689
   26BMANN   C1 1962   3.078   3.281  13.624
   26BMANN   H1 1963   3.120   3.183  13.595
   26BMANN   C5 1964   2.912   3.265  13.453
   26BMANN   H5 1965   2.958   3.170  13.418
   26BMANN   O5 1966   3.016   3.346  13.512
   26BMANN   C2 1967   2.972   3.262  13.731
   26BMANN   H2 1968   3.022   3.210  13.814
   26BMANN    N 1969   2.922   3.390  13.780
   26BMANN   HN 1970   2.920   3.463  13.713
   26BMANN    C 1971   2.885   3.412  13.906
   26BMANN    O 1972   2.889   3.325  13.992
   26BMANN   CT 1973   2.839   3.552  13.939
   26BMANN  HT1 1974   2.872   3.624  13.861
   26BMANN  HT2 1975   2.882   3.582  14.037
   26BMANN  HT3 1976   2.728   3.553  13.947
   26BMANN   C3 1977   2.866   3.169  13.675
   26BMANN   H3 1978   2.915   3.075  13.642
   26BMANN   O3 1979   2.770   3.133  13.776
   26BMANN  HO3 1980   2.809   3.070  13.836
   26BMANN   C4 1981   2.802   3.233  13.554
   26BMANN   H4 1982   2.749   3.326  13.585
   26BMANN   O4 1983   2.708   3.144  13.492
   26BMANN  HO4 1984   2.618   3.167  13.516
   26BMANN   C6 1985   2.861   3.341  13.332
   26BMANN  H61 1986   2.946   3.368  13.266
   26BMANN  H62 1987   2.793   3.275  13.273
   26BMANN   O6 1988   2.791   3.460  13.368
   26BMANN  HO6 1989   2.707   3.466  13.322
   27BGLCN   C1 1990   3.487   3.280  13.939
   27BGLCN   H1 1991   3.570   3.354  13.926
   27BGLCN   C5 1992   3.642   3.108  13.991
   27BGLCN   H5 1993   3.725   3.181  13.981
   27BGLCN   O5 1994   3.531   3.148  13.909
   27BGLCN   C2 1995   3.435   3.283  14.082
   27BGLCN   H2 1996   3.358   3.204  14.090
   27BGLCN    N 1997   3.372   3.411  14.110
   27BGLCN   HN 1998   3.405   3.489  14.057
   27BGLCN    C 1999   3.265   3.425  14.189
   27BGLCN    O 2000   3.213   3.331  14.248
   27BGLCN   CT 2001   3.208   3.564  14.203
   27BGLCN  HT1 2002   3.267   3.636  14.142
   27BGLCN  HT2 2003   3.208   3.594  14.309
   27BGLCN  HT3 2004   3.103   3.563  14.166
   27BGLCN   C3 2005   3.547   3.245  14.176
   27BGLCN   H3 2006   3.629   3.318  14.161
   27BGLCN   O3 2007   3.495   3.256  14.309
   27BGLCN   C4 2008   3.598   3.107  14.137
   27BGLCN   H4 2009   3.515   3.034  14.148
   27BGLCN   O4 2010   3.705   3.063  14.220
   27BGLCN  HO4 2011   3.771   3.132  14.228
   27BGLCN   C6 2012   3.692   2.974  13.940
   27BGLCN  H61 2013   3.762   2.928  14.013
   27BGLCN  H62 2014   3.606   2.905  13.927
   27BGLCN   O6 2015   3.761   2.989  13.815
   27BGLCN  HO6 2016   3.748   2.911  13.760
   28AGAL    C1 2017   3.588   3.262  14.415
   28AGAL    H1 2018   3.632   3.161  14.431
   28AGAL    C5 2019   3.646   3.492  14.378
   28AGAL    H5 2020   3.568   3.498  14.298
   28AGAL    O5 2021   3.693   3.356  14.387
   28AGAL    C2 2022   3.521   3.301  14.546
   28AGAL    H2 2023   3.605   3.302  14.619
   28AGAL    O2 2024   3.421   3.207  14.591
   28AGAL    C3 2025   3.465   3.441  14.537
   28AGAL    H3 2026   3.392   3.443  14.453
   28AGAL    O3 2027   3.395   3.478  14.655
   28AGAL   HO3 2028   3.300   3.470  14.640
   28AGAL    C4 2029   3.578   3.537  14.507
   28AGAL    H4 2030   3.534   3.638  14.491
   28AGAL    O4 2031   3.669   3.547  14.616
   28AGAL   HO4 2032   3.616   3.546  14.696
   28AGAL    C6 2033   3.758   3.586  14.335
   28AGAL   H61 2034   3.761   3.590  14.224
   28AGAL   H62 2035   3.738   3.689  14.371
   28AGAL    O6 2036   3.888   3.545  14.380
   28AGAL   HO6 2037   3.883   3.521  14.472
   29ARHM    C1 2038   3.438   3.174  14.727
   29ARHM    H1 2039   3.485   3.259  14.780
   29ARHM    C5 2040   3.464   2.942  14.678
   29ARHM    H5 2041   3.452   2.962  14.569
   29ARHM    O5 2042   3.521   3.057  14.741
   29ARHM    C2 2043   3.305   3.148  14.793
   29ARHM    H2 2044   3.240   3.237  14.778
   29ARHM    O2 2045   3.323   3.124  14.935
   29ARHM    C3 2046   3.238   3.030  14.727
   29ARHM    H3 2047   3.222   3.052  14.619
   29ARHM    O3 2048   3.110   3.003  14.785
   29ARHM   HO3 2049   3.093   2.910  14.768
   29ARHM    C4 2050   3.329   2.910  14.740
   29ARHM    H4 2051   3.344   2.890  14.848
   29ARHM    O4 2052   3.272   2.792  14.683
   29ARHM   HO4 2053   3.288   2.789  14.588
   29ARHM    C6 2054   3.566   2.828  14.695
   29ARHM   H61 2055   3.665   2.861  14.657
   29ARHM   H62 2056   3.577   2.803  14.803
   29ARHM   H63 2057   3.533   2.738  14.641
   30ARHM    C1 2058   3.309   3.239  15.015
   30ARHM    H1 2059   3.213   3.289  14.990
   30ARHM    C5 2060   3.545   3.278  15.033
   30ARHM    H5 2061   3.566   3.187  14.973
   30ARHM    O5 2062   3.416   3.332  14.998
   30ARHM    C2 2063   3.304   3.198  15.162
   30ARHM    H2 2064   3.227   3.119  15.173
   30ARHM    O2 2065   3.271   3.310  15.244
   30ARHM    C3 2066   3.438   3.140  15.205
   30ARHM    H3 2067   3.457   3.051  15.141
   30ARHM    O3 2068   3.432   3.092  15.341
   30ARHM    C4 2069   3.548   3.240  15.180
   30ARHM    H4 2070   3.533   3.332  15.239
   30ARHM    O4 2071   3.675   3.183  15.213
   30ARHM   HO4 2072   3.706   3.223  15.295
   30ARHM    C6 2073   3.649   3.385  14.995
   30ARHM   H61 2074   3.752   3.350  15.019
   30ARHM   H62 2075   3.644   3.408  14.887
   30ARHM   H63 2076   3.630   3.479  15.052
   31BMANN   C1 2077   3.135   3.337  15.266
   31BMANN   H1 2078   3.077   3.243  15.282
   31BMANN   C5 2079   2.944   3.456  15.184
   31BMANN   H5 2080   2.881   3.365  15.199
   31BMANN   O5 2081   3.080   3.416  15.161
   31BMANN   C2 2082   3.137   3.423  15.391
   31BMANN   H2 2083   3.175   3.359  15.473
   31BMANN    N 2084   3.231   3.534  15.376
   31BMANN   HN 2085   3.262   3.552  15.283
   31BMANN    C 2086   3.283   3.604  15.477
   31BMANN    O 2087   3.247   3.586  15.593
   31BMANN   CT 2088   3.388   3.706  15.442
   31BMANN  HT1 2089   3.349   3.776  15.365
   31BMANN  HT2 2090   3.479   3.655  15.403
   31BMANN  HT3 2091   3.415   3.763  15.533
   31BMANN   C3 2092   2.995   3.462  15.425
   31BMANN   H3 2093   2.935   3.369  15.436
   31BMANN   O3 2094   2.987   3.529  15.552
   31BMANN  HO3 2095   3.076   3.557  15.574
   31BMANN   C4 2096   2.936   3.541  15.311
   31BMANN   H4 2097   2.994   3.634  15.294
   31BMANN   O4 2098   2.800   3.577  15.338
   31BMANN  HO4 2099   2.801   3.640  15.410
   31BMANN   C6 2100   2.895   3.528  15.060
   31BMANN  H61 2101   2.803   3.587  15.082
   31BMANN  H62 2102   2.972   3.600  15.026
   31BMANN   O6 2103   2.864   3.438  14.953
   31BMANN  HO6 2104   2.779   3.397  14.969
   32BGLCN   C1 2105   3.455   3.185  15.445
   32BGLCN   H1 2106   3.409   3.283  15.422
   32BGLCN   C5 2107   3.613   3.300  15.581
   32BGLCN   H5 2108   3.569   3.398  15.552
   32BGLCN   O5 2109   3.593   3.204  15.475
   32BGLCN   C2 2110   3.388   3.127  15.568
   32BGLCN   H2 2111   3.449   3.039  15.599
   32BGLCN    N 2112   3.256   3.078  15.536
   32BGLCN   HN 2113   3.216   3.111  15.451
   32BGLCN    C 2114   3.199   2.976  15.598
   32BGLCN    O 2115   3.246   2.920  15.696
   32BGLCN   CT 2116   3.067   2.933  15.544
   32BGLCN  HT1 2117   3.041   2.990  15.451
   32BGLCN  HT2 2118   2.987   2.948  15.620
   32BGLCN  HT3 2119   3.073   2.825  15.519
   32BGLCN   C3 2120   3.398   3.231  15.679
   32BGLCN   H3 2121   3.357   3.326  15.637
   32BGLCN   O3 2122   3.324   3.200  15.798
   32BGLCN   C4 2123   3.545   3.251  15.707
   32BGLCN   H4 2124   3.590   3.154  15.736
   32BGLCN   O4 2125   3.564   3.341  15.815
   32BGLCN  HO4 2126   3.545   3.292  15.896
   32BGLCN   C6 2127   3.763   3.319  15.594
   32BGLCN  H61 2128   3.785   3.380  15.684
   32BGLCN  H62 2129   3.813   3.221  15.606
   32BGLCN   O6 2130   3.816   3.386  15.479
   32BGLCN  HO6 2131   3.880   3.452  15.508
   33AGAL    C1 2132   3.254   3.311  15.851
   33AGAL    H1 2133   3.312   3.405  15.836
   33AGAL    C5 2134   3.043   3.208  15.810
   33AGAL    H5 2135   3.101   3.119  15.780
   33AGAL    O5 2136   3.126   3.324  15.788
   33AGAL    C2 2137   3.231   3.294  16.001
   33AGAL    H2 2138   3.175   3.383  16.034
   33AGAL    O2 2139   3.358   3.293  16.070
   33AGAL    C3 2140   3.146   3.171  16.028
   33AGAL    H3 2141   3.200   3.083  15.986
   33AGAL    O3 2142   3.126   3.144  16.166
   33AGAL   HO3 2143   3.061   3.208  16.196
   33AGAL    C4 2144   3.013   3.187  15.957
   33AGAL    H4 2145   2.955   3.092  15.968
   33AGAL    O4 2146   2.934   3.293  16.011
   33AGAL   HO4 2147   2.884   3.332  15.939
   33AGAL    C6 2148   2.922   3.212  15.719
   33AGAL   H61 2149   2.956   3.204  15.613
   33AGAL   H62 2150   2.857   3.125  15.740
   33AGAL    O6 2151   2.844   3.332  15.732
   33AGAL   HO6 2152   2.895   3.405  15.695
   34ARHM    C1 2153   3.357   3.364  16.192
   34ARHM    H1 2154   3.271   3.330  16.253
   34ARHM    C5 2155   3.455   3.561  16.098
   34ARHM    H5 2156   3.459   3.516  15.996
   34ARHM    O5 2157   3.346   3.506  16.172
   34ARHM    C2 2158   3.486   3.333  16.266
   34ARHM    H2 2159   3.496   3.222  16.273
   34ARHM    O2 2160   3.490   3.386  16.400
   34ARHM    C3 2161   3.605   3.386  16.188
   34ARHM    H3 2162   3.606   3.338  16.088
   34ARHM    O3 2163   3.729   3.354  16.252
   34ARHM   HO3 2164   3.779   3.293  16.196
   34ARHM    C4 2165   3.588   3.536  16.168
   34ARHM    H4 2166   3.585   3.585  16.268
   34ARHM    O4 2167   3.695   3.593  16.094
   34ARHM   HO4 2168   3.777   3.571  16.138
   34ARHM    C6 2169   3.422   3.711  16.083
   34ARHM   H61 2170   3.419   3.759  16.183
   34ARHM   H62 2171   3.499   3.761  16.020
   34ARHM   H63 2172   3.323   3.723  16.034
   35ARHM    C1 2173   3.388   3.346  16.487
   35ARHM    H1 2174   3.361   3.240  16.467
   35ARHM    C5 2175   3.300   3.568  16.493
   35ARHM    H5 2176   3.379   3.601  16.422
   35ARHM    O5 2177   3.271   3.429  16.473
   35ARHM    C2 2178   3.441   3.361  16.628
   35ARHM    H2 2179   3.536   3.304  16.634
   35ARHM    O2 2180   3.353   3.314  16.732
   35ARHM    C3 2181   3.474   3.506  16.657
   35ARHM    H3 2182   3.553   3.541  16.587
   35ARHM    O3 2183   3.522   3.522  16.790
   35ARHM   HO3 2184   3.534   3.435  16.830
   35ARHM    C4 2185   3.350   3.590  16.635
   35ARHM    H4 2186   3.270   3.557  16.706
   35ARHM    O4 2187   3.377   3.727  16.659
   35ARHM   HO4 2188   3.432   3.731  16.737
   35ARHM    C6 2189   3.172   3.645  16.460
   35ARHM   H61 2190   3.142   3.625  16.355
   35ARHM   H62 2191   3.090   3.614  16.528
   35ARHM   H63 2192   3.191   3.754  16.472
   36BMANN   C1 2193   3.323   3.177  16.726
   36BMANN   H1 2194   3.410   3.120  16.688
   36BMANN   C5 2195   3.172   3.012  16.644
   36BMANN   H5 2196   3.259   2.958  16.600
   36BMANN   O5 2197   3.205   3.152  16.649
   36BMANN   C2 2198   3.293   3.136  16.868
   36BMANN   H2 2199   3.385   3.155  16.927
   36BMANN    N 2200   3.183   3.215  16.924
   36BMANN   HN 2201   3.114   3.244  16.858
   36BMANN    C 2202   3.173   3.247  17.053
   36BMANN    O 2203   3.262   3.220  17.131
   36BMANN   CT 2204   3.048   3.318  17.097
   36BMANN  HT1 2205   2.959   3.272  17.050
   36BMANN  HT2 2206   3.055   3.426  17.071
   36BMANN  HT3 2207   3.039   3.309  17.207
   36BMANN   C3 2208   3.266   2.987  16.870
   36BMANN   H3 2209   3.353   2.934  16.826
   36BMANN   O3 2210   3.252   2.940  17.003
   36BMANN  HO3 2211   3.232   3.014  17.061
   36BMANN   C4 2212   3.145   2.958  16.784
   36BMANN   H4 2213   3.056   3.009  16.827
   36BMANN   O4 2214   3.118   2.818  16.776
   36BMANN  HO4 2215   3.110   2.786  16.866
   36BMANN   C6 2216   3.055   2.996  16.549
   36BMANN  H61 2217   3.077   3.052  16.455
   36BMANN  H62 2218   3.045   2.889  16.522
   36BMANN   O6 2219   2.931   3.044  16.604
   36BMANN  HO6 2220   2.907   2.989  16.679
    1ECLIP HB6S 2221   5.061   3.447   6.658
    1ECLIP  OB6 2222   5.152   3.575   6.793
    1ECLIP  CB6 2223   5.045   3.549   6.700
    1ECLIP HB6R 2224   4.948   3.546   6.754
    1ECLIP  CB5 2225   5.023   3.645   6.584
    1ECLIP  OB5 2226   5.150   3.667   6.523
    1ECLIP  HB5 2227   4.979   3.740   6.620
    1ECLIP  CB1 2228   5.145   3.753   6.410
    1ECLIP  HB1 2229   5.111   3.855   6.438
    1ECLIP  OA6 2230   5.272   3.759   6.347
    1ECLIP  CA6 2231   5.348   3.640   6.372
    1ECLIP HA6R 2232   5.285   3.551   6.389
    1ECLIP HA6S 2233   5.410   3.655   6.464
    1ECLIP  CB4 2234   4.935   3.579   6.478
    1ECLIP  HB4 2235   4.996   3.492   6.445
    1ECLIP  OB4 2236   4.814   3.540   6.544
    1ECLIP   PB 2237   4.749   3.390   6.528
    1ECLIP OPB4 2238   4.686   3.340   6.655
    1ECLIP OPB3 2239   4.866   3.307   6.474
    1ECLIP OPB2 2240   4.661   3.407   6.406
    1ECLIP  CB3 2241   4.917   3.673   6.360
    1ECLIP  OB3 2242   4.835   3.611   6.259
    1ECLIP  HB3 2243   4.882   3.771   6.398
    1ECLIP  C71 2244   4.721   3.682   6.228
    1ECLIP  O71 2245   4.680   3.774   6.294
    1ECLIP  C72 2246   4.679   3.655   6.084
    1ECLIP H72R 2247   4.754   3.698   6.016
    1ECLIP H72S 2248   4.583   3.709   6.069
    1ECLIP  CB2 2249   5.056   3.692   6.302
    1ECLIP  HB2 2250   5.097   3.591   6.282
    1ECLIP  NB2 2251   5.061   3.764   6.174
    1ECLIP HNB2 2252   5.076   3.863   6.181
    1ECLIP  CA4 2253   5.505   3.725   6.189
    1ECLIP  HA4 2254   5.427   3.790   6.144
    1ECLIP  OA4 2255   5.572   3.803   6.288
    1ECLIP HOA4 2256   5.529   3.787   6.372
    1ECLIP  CA5 2257   5.433   3.608   6.252
    1ECLIP  HA5 2258   5.507   3.533   6.286
    1ECLIP  OA5 2259   5.348   3.546   6.155
    1ECLIP  CA1 2260   5.421   3.489   6.046
    1ECLIP  HA1 2261   5.345   3.460   5.970
    1ECLIP  OA1 2262   5.493   3.375   6.087
    1ECLIP OPA2 2263   5.475   3.157   6.233
    1ECLIP OPA3 2264   5.268   3.254   6.175
    1ECLIP OPA4 2265   5.393   3.137   6.014
    1ECLIP   PA 2266   5.410   3.239   6.124
    1ECLIP  CA3 2267   5.594   3.669   6.080
    1ECLIP  HA3 2268   5.657   3.590   6.127
    1ECLIP  OA3 2269   5.688   3.761   6.023
    1ECLIP  C31 2270   5.647   3.872   5.957
    1ECLIP  O31 2271   5.672   3.891   5.839
    1ECLIP  C32 2272   5.671   3.992   6.052
    1ECLIP H32R 2273   5.754   4.049   6.005
    1ECLIP H32S 2274   5.711   3.955   6.149
    1ECLIP  CA2 2275   5.504   3.598   5.979
    1ECLIP  HA2 2276   5.430   3.673   5.943
    1ECLIP  NA2 2277   5.579   3.549   5.865
    1ECLIP HNA2 2278   5.678   3.550   5.875
    1ECLIP  C73 2279   4.658   3.505   6.057
    1ECLIP H73R 2280   4.599   3.462   6.141
    1ECLIP  O73 2281   4.788   3.444   6.046
    1ECLIP  C81 2282   4.785   3.307   6.033
    1ECLIP  O81 2283   4.746   3.248   6.134
    1ECLIP  C82 2284   4.927   3.270   5.991
    1ECLIP H82R 2285   4.949   3.172   6.039
    1ECLIP H82S 2286   5.001   3.344   6.030
    1ECLIP  C83 2287   4.945   3.254   5.840
    1ECLIP H83R 2288   4.944   3.355   5.793
    1ECLIP H83S 2289   4.862   3.195   5.794
    1ECLIP  C84 2290   5.078   3.185   5.808
    1ECLIP H84R 2291   5.073   3.077   5.835
    1ECLIP H84S 2292   5.160   3.232   5.865
    1ECLIP  C85 2293   5.106   3.201   5.660
    1ECLIP H85R 2294   5.118   3.310   5.641
    1ECLIP H85S 2295   5.018   3.165   5.602
    1ECLIP  C86 2296   5.233   3.132   5.608
    1ECLIP H86R 2297   5.215   3.022   5.604
    1ECLIP H86S 2298   5.318   3.151   5.676
    1ECLIP  C87 2299   5.269   3.183   5.466
    1ECLIP H87R 2300   5.340   3.112   5.418
    1ECLIP H87S 2301   5.322   3.280   5.477
    1ECLIP  C88 2302   5.146   3.205   5.378
    1ECLIP H88R 2303   5.084   3.285   5.424
    1ECLIP H88S 2304   5.083   3.113   5.375
    1ECLIP  C89 2305   5.176   3.253   5.236
    1ECLIP H89R 2306   5.271   3.309   5.233
    1ECLIP H89S 2307   5.095   3.325   5.209
    1ECLIP C810 2308   5.173   3.141   5.132
    1ECLIPH810R 2309   5.094   3.067   5.158
    1ECLIPH810S 2310   5.271   3.087   5.137
    1ECLIP C811 2311   5.148   3.194   4.991
    1ECLIPH811R 2312   5.180   3.117   4.918
    1ECLIPH811S 2313   5.211   3.285   4.977
    1ECLIP C812 2314   5.003   3.235   4.960
    1ECLIPH812R 2315   5.002   3.292   4.865
    1ECLIPH812S 2316   4.964   3.303   5.039
    1ECLIP C813 2317   4.909   3.115   4.946
    1ECLIPH813R 2318   4.952   3.045   4.872
    1ECLIPH813S 2319   4.904   3.061   5.043
    1ECLIP C814 2320   4.768   3.154   4.903
    1ECLIPH814R 2321   4.770   3.207   4.806
    1ECLIPH814S 2322   4.723   3.222   4.979
    1ECLIPH814T 2323   4.704   3.064   4.894
    1ECLIP  C74 2324   4.575   3.480   5.929
    1ECLIP H74R 2325   4.485   3.544   5.931
    1ECLIP H74S 2326   4.538   3.375   5.932
    1ECLIP  C75 2327   4.648   3.498   5.793
    1ECLIP H75R 2328   4.607   3.421   5.724
    1ECLIP H75S 2329   4.757   3.481   5.802
    1ECLIP  C76 2330   4.624   3.633   5.723
    1ECLIP H76R 2331   4.679   3.715   5.774
    1ECLIP H76S 2332   4.516   3.659   5.728
    1ECLIP  C77 2333   4.665   3.625   5.575
    1ECLIP H77R 2334   4.613   3.539   5.530
    1ECLIP H77S 2335   4.775   3.607   5.568
    1ECLIP  C78 2336   4.630   3.751   5.495
    1ECLIP H78R 2337   4.520   3.767   5.497
    1ECLIP H78S 2338   4.677   3.839   5.543
    1ECLIP  C79 2339   4.677   3.744   5.348
    1ECLIP H79R 2340   4.788   3.734   5.347
    1ECLIP H79S 2341   4.651   3.840   5.299
    1ECLIP C710 2342   4.616   3.630   5.266
    1ECLIPH710R 2343   4.641   3.532   5.312
    1ECLIPH710S 2344   4.505   3.640   5.266
    1ECLIP C711 2345   4.666   3.627   5.120
    1ECLIPH711R 2346   4.638   3.723   5.070
    1ECLIPH711S 2347   4.777   3.621   5.120
    1ECLIP C712 2348   4.610   3.509   5.039
    1ECLIPH712R 2349   4.500   3.521   5.030
    1ECLIPH712S 2350   4.629   3.416   5.097
    1ECLIP C713 2351   4.671   3.492   4.899
    1ECLIPH713R 2352   4.781   3.478   4.910
    1ECLIPH713S 2353   4.629   3.399   4.855
    1ECLIP C714 2354   4.643   3.607   4.802
    1ECLIPH714R 2355   4.533   3.625   4.795
    1ECLIPH714S 2356   4.692   3.700   4.837
    1ECLIPH714T 2357   4.680   3.583   4.700
    1ECLIP  C51 2358   5.068   3.704   6.054
    1ECLIP  O51 2359   5.039   3.585   6.042
    1ECLIP  C52 2360   5.113   3.793   5.938
    1ECLIP H52R 2361   5.033   3.869   5.924
    1ECLIP H52S 2362   5.205   3.844   5.973
    1ECLIP  C53 2363   5.147   3.727   5.801
    1ECLIP H53R 2364   5.225   3.650   5.816
    1ECLIP  O53 2365   5.188   3.828   5.707
    1ECLIP  C61 2366   5.320   3.849   5.693
    1ECLIP  O61 2367   5.402   3.819   5.778
    1ECLIP  C62 2368   5.346   3.963   5.592
    1ECLIP H62R 2369   5.371   4.053   5.651
    1ECLIP H62S 2370   5.252   3.982   5.536
    1ECLIP  C63 2371   5.462   3.933   5.493
    1ECLIP H63R 2372   5.439   3.840   5.438
    1ECLIP H63S 2373   5.555   3.917   5.552
    1ECLIP  C64 2374   5.491   4.044   5.391
    1ECLIP H64R 2375   5.590   4.025   5.344
    1ECLIP H64S 2376   5.498   4.142   5.443
    1ECLIP  C65 2377   5.387   4.053   5.278
    1ECLIP H65R 2378   5.289   4.071   5.326
    1ECLIP H65S 2379   5.380   3.957   5.222
    1ECLIP  C66 2380   5.408   4.170   5.179
    1ECLIP H66R 2381   5.434   4.261   5.235
    1ECLIP H66S 2382   5.312   4.190   5.127
    1ECLIP  C67 2383   5.515   4.146   5.069
    1ECLIP H67R 2384   5.612   4.121   5.116
    1ECLIP H67S 2385   5.527   4.242   5.014
    1ECLIP  C68 2386   5.475   4.038   4.967
    1ECLIP H68R 2387   5.371   4.058   4.936
    1ECLIP H68S 2388   5.477   3.937   5.014
    1ECLIP  C69 2389   5.564   4.039   4.841
    1ECLIP H69R 2390   5.597   4.143   4.821
    1ECLIP H69S 2391   5.503   4.007   4.754
    1ECLIP C610 2392   5.687   3.946   4.851
    1ECLIPH610R 2393   5.652   3.841   4.853
    1ECLIPH610S 2394   5.739   3.967   4.946
    1ECLIP C611 2395   5.787   3.965   4.735
    1ECLIPH611R 2396   5.828   4.068   4.742
    1ECLIPH611S 2397   5.872   3.896   4.752
    1ECLIP C612 2398   5.731   3.942   4.594
    1ECLIPH612R 2399   5.695   3.838   4.583
    1ECLIPH612S 2400   5.647   4.011   4.575
    1ECLIPH612T 2401   5.810   3.961   4.518
    1ECLIP  C54 2402   5.025   3.657   5.735
    1ECLIP H54R 2403   4.948   3.734   5.709
    1ECLIP H54S 2404   4.980   3.588   5.809
    1ECLIP  C55 2405   5.061   3.574   5.610
    1ECLIP H55R 2406   4.979   3.501   5.591
    1ECLIP H55S 2407   5.154   3.517   5.632
    1ECLIP  C56 2408   5.082   3.656   5.483
    1ECLIP H56R 2409   5.164   3.729   5.497
    1ECLIP H56S 2410   4.990   3.713   5.460
    1ECLIP  C57 2411   5.120   3.569   5.361
    1ECLIP H57R 2412   5.033   3.505   5.337
    1ECLIP H57S 2413   5.206   3.504   5.387
    1ECLIP  C58 2414   5.156   3.658   5.241
    1ECLIP H58R 2415   5.076   3.735   5.240
    1ECLIP H58S 2416   5.251   3.711   5.260
    1ECLIP  C59 2417   5.159   3.587   5.105
    1ECLIP H59R 2418   5.062   3.534   5.094
    1ECLIP H59S 2419   5.239   3.509   5.104
    1ECLIP C510 2420   5.179   3.685   4.988
    1ECLIPH510R 2421   5.285   3.683   4.954
    1ECLIPH510S 2422   5.163   3.787   5.028
    1ECLIP C511 2423   5.087   3.660   4.867
    1ECLIPH511R 2424   5.150   3.618   4.785
    1ECLIPH511S 2425   5.014   3.580   4.892
    1ECLIP C512 2426   5.005   3.780   4.813
    1ECLIPH512R 2427   4.977   3.755   4.708
    1ECLIPH512S 2428   4.908   3.784   4.867
    1ECLIP C513 2429   5.072   3.919   4.818
    1ECLIPH513R 2430   5.173   3.916   4.770
    1ECLIPH513S 2431   5.092   3.949   4.922
    1ECLIP C514 2432   4.993   4.032   4.750
    1ECLIPH514R 2433   4.890   4.038   4.792
    1ECLIPH514S 2434   5.043   4.130   4.767
    1ECLIPH514T 2435   4.987   4.016   4.641
    1ECLIP  C33 2436   5.551   4.089   6.069
    1ECLIP H33R 2437   5.581   4.190   6.032
    1ECLIP  O33 2438   5.519   4.098   6.207
    1ECLIP HO33 2439   5.512   4.010   6.245
    1ECLIP  C34 2440   5.425   4.046   5.990
    1ECLIP H34R 2441   5.405   3.937   6.002
    1ECLIP H34S 2442   5.450   4.062   5.882
    1ECLIP  C35 2443   5.291   4.117   6.018
    1ECLIP H35R 2444   5.307   4.220   6.057
    1ECLIP H35S 2445   5.236   4.061   6.096
    1ECLIP  C36 2446   5.208   4.120   5.888
    1ECLIP H36R 2447   5.208   4.017   5.847
    1ECLIP H36S 2448   5.259   4.183   5.812
    1ECLIP  C37 2449   5.061   4.161   5.899
    1ECLIP H37R 2450   5.050   4.271   5.906
    1ECLIP H37S 2451   5.018   4.117   5.991
    1ECLIP  C38 2452   4.978   4.108   5.780
    1ECLIP H38R 2453   4.979   3.997   5.783
    1ECLIP H38S 2454   4.871   4.138   5.786
    1ECLIP  C39 2455   5.029   4.148   5.641
    1ECLIP H39R 2456   5.140   4.144   5.637
    1ECLIP H39S 2457   4.998   4.252   5.617
    1ECLIP C310 2458   4.973   4.050   5.538
    1ECLIPH310R 2459   4.864   4.070   5.526
    1ECLIPH310S 2460   4.981   3.946   5.576
    1ECLIP C311 2461   5.046   4.057   5.405
    1ECLIPH311R 2462   5.109   4.148   5.399
    1ECLIPH311S 2463   5.111   3.967   5.398
    1ECLIP C312 2464   4.952   4.054   5.286
    1ECLIPH312R 2465   4.861   3.998   5.318
    1ECLIPH312S 2466   4.921   4.158   5.262
    1ECLIP C313 2467   5.008   3.986   5.162
    1ECLIPH313R 2468   5.031   4.064   5.087
    1ECLIPH313S 2469   5.105   3.937   5.188
    1ECLIP C314 2470   4.911   3.883   5.105
    1ECLIPH314R 2471   4.829   3.859   5.176
    1ECLIPH314S 2472   4.863   3.923   5.013
    1ECLIPH314T 2473   4.959   3.786   5.078
    1ECLIP  C11 2474   5.524   3.499   5.753
    1ECLIP  O11 2475   5.405   3.506   5.728
    1ECLIP  C12 2476   5.618   3.426   5.660
    1ECLIP H12R 2477   5.597   3.318   5.669
    1ECLIP H12S 2478   5.723   3.446   5.688
    1ECLIP  C13 2479   5.593   3.471   5.514
    1ECLIP H13R 2480   5.486   3.456   5.488
    1ECLIP  O13 2481   5.671   3.387   5.431
    1ECLIP HO13 2482   5.663   3.410   5.339
    1ECLIP  C14 2483   5.634   3.617   5.487
    1ECLIP H14R 2484   5.732   3.635   5.537
    1ECLIP H14S 2485   5.560   3.683   5.537
    1ECLIP  C15 2486   5.650   3.657   5.339
    1ECLIP H15R 2487   5.733   3.598   5.295
    1ECLIP H15S 2488   5.681   3.763   5.333
    1ECLIP  C16 2489   5.523   3.640   5.253
    1ECLIP H16R 2490   5.469   3.737   5.252
    1ECLIP H16S 2491   5.454   3.565   5.299
    1ECLIP  C17 2492   5.551   3.596   5.108
    1ECLIP H17R 2493   5.623   3.666   5.061
    1ECLIP H17S 2494   5.456   3.604   5.052
    1ECLIP  C18 2495   5.602   3.452   5.096
    1ECLIP H18R 2496   5.708   3.449   5.130
    1ECLIP H18S 2497   5.543   3.385   5.163
    1ECLIP  C19 2498   5.594   3.398   4.953
    1ECLIP H19R 2499   5.664   3.312   4.943
    1ECLIP H19S 2500   5.628   3.478   4.884
    1ECLIP C110 2501   5.453   3.351   4.914
    1ECLIPH110R 2502   5.427   3.261   4.974
    1ECLIPH110S 2503   5.380   3.431   4.939
    1ECLIP C111 2504   5.442   3.321   4.766
    1ECLIPH111R 2505   5.478   3.412   4.714
    1ECLIPH111S 2506   5.509   3.237   4.738
    1ECLIP C112 2507   5.301   3.298   4.709
    1ECLIPH112R 2508   5.261   3.201   4.747
    1ECLIPH112S 2509   5.234   3.379   4.745
    1ECLIP C113 2510   5.302   3.296   4.556
    1ECLIPH113R 2511   5.353   3.388   4.519
    1ECLIPH113S 2512   5.360   3.209   4.521
    1ECLIP C114 2513   5.162   3.290   4.497
    1ECLIPH114R 2514   5.107   3.201   4.533
    1ECLIPH114S 2515   5.104   3.381   4.524
    1ECLIPH114T 2516   5.168   3.283   4.386
    2AKDO    C1 2517   5.110   3.808   6.837
    2AKDO   O11 2518   5.015   3.880   6.877
    2AKDO   O12 2519   5.217   3.847   6.781
    2AKDO    C2 2520   5.116   3.664   6.898
    2AKDO    C6 2521   5.008   3.489   7.020
    2AKDO    H6 2522   5.044   3.423   6.938
    2AKDO    O6 2523   4.996   3.622   6.966
    2AKDO    C3 2524   5.229   3.657   6.999
    2AKDO   H31 2525   5.206   3.729   7.080
    2AKDO   H32 2526   5.323   3.688   6.948
    2AKDO    C4 2527   5.247   3.522   7.061
    2AKDO    H4 2528   5.269   3.449   6.979
    2AKDO    O4 2529   5.354   3.521   7.155
    2AKDO    C5 2530   5.117   3.479   7.128
    2AKDO    H5 2531   5.132   3.370   7.144
    2AKDO    O5 2532   5.091   3.540   7.259
    2AKDO    C7 2533   4.870   3.432   7.052
    2AKDO    H7 2534   4.819   3.495   7.128
    2AKDO    O7 2535   4.882   3.297   7.096
    2AKDO   HO7 2536   4.809   3.255   7.050
    2AKDO    C8 2537   4.788   3.431   6.924
    2AKDO   H81 2538   4.768   3.535   6.891
    2AKDO   H82 2539   4.847   3.382   6.844
    2AKDO    O8 2540   4.663   3.362   6.932
    2AKDO   HO8 2541   4.643   3.349   6.839
    3AKDO    C1 2542   5.538   3.442   7.009
    3AKDO   O11 2543   5.556   3.489   6.893
    3AKDO   O12 2544   5.575   3.326   7.044
    3AKDO    C2 2545   5.489   3.542   7.118
    3AKDO    C6 2546   5.482   3.781   7.174
    3AKDO    H6 2547   5.373   3.776   7.191
    3AKDO    O6 2548   5.522   3.678   7.078
    3AKDO    C3 2549   5.556   3.517   7.252
    3AKDO   H31 2550   5.666   3.521   7.238
    3AKDO   H32 2551   5.529   3.415   7.287
    3AKDO    C4 2552   5.513   3.618   7.355
    3AKDO    H4 2553   5.403   3.617   7.366
    3AKDO    O4 2554   5.569   3.581   7.480
    3AKDO   HO4 2555   5.494   3.558   7.537
    3AKDO    C5 2556   5.552   3.757   7.307
    3AKDO    H5 2557   5.516   3.832   7.381
    3AKDO    O5 2558   5.693   3.773   7.292
    3AKDO   HO5 2559   5.711   3.750   7.200
    3AKDO    C7 2560   5.513   3.919   7.113
    3AKDO    H7 2561   5.623   3.929   7.101
    3AKDO    O7 2562   5.469   4.022   7.203
    3AKDO   HO7 2563   5.382   4.049   7.172
    3AKDO    C8 2564   5.447   3.940   6.978
    3AKDO   H81 2565   5.469   3.854   6.910
    3AKDO   H82 2566   5.336   3.945   6.988
    3AKDO    O8 2567   5.496   4.059   6.914
    3AKDO   HO8 2568   5.418   4.113   6.901
    4AHEP    C1 2569   5.024   3.455   7.352
    4AHEP    H1 2570   4.922   3.436   7.311
    4AHEP    C5 2571   5.217   3.335   7.425
    4AHEP    H5 2572   5.277   3.413   7.372
    4AHEP    O5 2573   5.088   3.327   7.361
    4AHEP    C2 2574   4.999   3.506   7.495
    4AHEP    H2 2575   4.960   3.610   7.484
    4AHEP    O2 2576   4.899   3.431   7.566
    4AHEP   HO2 2577   4.947   3.387   7.636
    4AHEP    C3 2578   5.129   3.514   7.575
    4AHEP    H3 2579   5.193   3.596   7.535
    4AHEP    O3 2580   5.097   3.533   7.716
    4AHEP    C4 2581   5.200   3.380   7.571
    4AHEP    H4 2582   5.139   3.305   7.627
    4AHEP    O4 2583   5.328   3.400   7.634
    4AHEP    P4 2584   5.403   3.290   7.730
    4AHEP  OP42 2585   5.499   3.362   7.823
    4AHEP  OP43 2586   5.480   3.194   7.641
    4AHEP  OP44 2587   5.298   3.208   7.802
    4AHEP    C6 2588   5.286   3.201   7.399
    4AHEP    H6 2589   5.392   3.210   7.431
    4AHEP    O6 2590   5.221   3.096   7.472
    4AHEP   HO6 2591   5.133   3.097   7.433
    4AHEP    C7 2592   5.291   3.161   7.252
    4AHEP   H71 2593   5.359   3.074   7.241
    4AHEP   H72 2594   5.335   3.245   7.194
    4AHEP    O7 2595   5.163   3.127   7.196
    4AHEP   HO7 2596   5.104   3.201   7.214
    5AHEP    C1 2597   5.148   3.647   7.783
    5AHEP    H1 2598   5.245   3.676   7.737
    5AHEP    C5 2599   4.927   3.733   7.834
    5AHEP    H5 2600   4.881   3.646   7.782
    5AHEP    O5 2601   5.057   3.757   7.778
    5AHEP    C2 2602   5.169   3.621   7.931
    5AHEP    H2 2603   5.235   3.532   7.939
    5AHEP    O2 2604   5.239   3.732   7.990
    5AHEP   HO2 2605   5.178   3.806   7.987
    5AHEP    C3 2606   5.038   3.590   8.003
    5AHEP    H3 2607   4.994   3.496   7.964
    5AHEP    O3 2608   5.064   3.578   8.145
    5AHEP    C4 2609   4.940   3.706   7.984
    5AHEP    H4 2610   4.980   3.796   8.035
    5AHEP    O4 2611   4.805   3.684   8.028
    5AHEP    P4 2612   4.751   3.610   8.163
    5AHEP  OP42 2613   4.760   3.460   8.136
    5AHEP  OP43 2614   4.604   3.634   8.188
    5AHEP  OP44 2615   4.832   3.652   8.282
    5AHEP    C6 2616   4.845   3.858   7.797
    5AHEP    H6 2617   4.740   3.843   7.830
    5AHEP    O6 2618   4.898   3.973   7.865
    5AHEP   HO6 2619   4.934   4.024   7.792
    5AHEP    C7 2620   4.848   3.883   7.646
    5AHEP   H71 2621   4.747   3.920   7.617
    5AHEP   H72 2622   4.864   3.789   7.589
    5AHEP    O7 2623   4.941   3.986   7.606
    6AHEP    C1 2624   5.054   3.935   7.538
    6AHEP    H1 2625   5.081   3.833   7.575
    6AHEP    C5 2626   5.007   4.037   7.327
    6AHEP    H5 2627   4.915   4.085   7.368
    6AHEP    O5 2628   5.032   3.916   7.399
    6AHEP    C2 2629   5.172   4.026   7.563
    6AHEP    H2 2630   5.177   4.045   7.674
    6AHEP    O2 2631   5.297   3.966   7.526
    6AHEP   HO2 2632   5.346   4.034   7.479
    6AHEP    C3 2633   5.149   4.158   7.495
    6AHEP    H3 2634   5.057   4.205   7.537
    6AHEP    O3 2635   5.257   4.249   7.516
    6AHEP   HO3 2636   5.238   4.324   7.458
    6AHEP    C4 2637   5.125   4.133   7.346
    6AHEP    H4 2638   5.215   4.082   7.306
    6AHEP    O4 2639   5.111   4.255   7.273
    6AHEP   HO4 2640   5.024   4.294   7.280
    6AHEP    C6 2641   4.979   4.001   7.181
    6AHEP    H6 2642   4.949   4.094   7.127
    6AHEP    O6 2643   5.098   3.952   7.118
    6AHEP   HO6 2644   5.071   3.937   7.028
    6AHEP    C7 2645   4.865   3.899   7.167
    6AHEP   H71 2646   4.836   3.894   7.059
    6AHEP   H72 2647   4.778   3.937   7.223
    6AHEP    O7 2648   4.893   3.766   7.214
    6AHEP   HO7 2649   4.974   3.744   7.165
    7AGLC    C1 2650   5.101   3.452   8.195
    7AGLC    H1 2651   5.038   3.373   8.148
    7AGLC    C5 2652   5.328   3.517   8.233
    7AGLC    H5 2653   5.304   3.620   8.198
    7AGLC    O5 2654   5.239   3.422   8.170
    7AGLC    C2 2655   5.082   3.447   8.347
    7AGLC    H2 2656   5.118   3.348   8.380
    7AGLC    O2 2657   4.946   3.451   8.387
    7AGLC   HO2 2658   4.909   3.532   8.351
    7AGLC    C3 2659   5.166   3.553   8.418
    7AGLC    H3 2660   5.142   3.650   8.372
    7AGLC    O3 2661   5.137   3.562   8.561
    7AGLC    C4 2662   5.310   3.515   8.384
    7AGLC    H4 2663   5.327   3.410   8.415
    7AGLC    O4 2664   5.407   3.594   8.450
    7AGLC   HO4 2665   5.453   3.539   8.513
    7AGLC    C6 2666   5.468   3.484   8.182
    7AGLC   H61 2667   5.469   3.493   8.072
    7AGLC   H62 2668   5.541   3.558   8.222
    7AGLC    O6 2669   5.509   3.351   8.219
    7AGLC   HO6 2670   5.448   3.292   8.174
    8AGLC    C1 2671   5.100   3.691   8.608
    8AGLC    H1 2672   5.162   3.768   8.557
    8AGLC    C5 2673   4.864   3.649   8.641
    8AGLC    H5 2674   4.880   3.543   8.609
    8AGLC    O5 2675   4.965   3.729   8.577
    8AGLC    C2 2676   5.116   3.701   8.760
    8AGLC    H2 2677   5.092   3.806   8.786
    8AGLC    O2 2678   5.248   3.673   8.809
    8AGLC    C3 2679   5.017   3.609   8.832
    8AGLC    H3 2680   5.030   3.508   8.788
    8AGLC    O3 2681   5.045   3.596   8.973
    8AGLC    C4 2682   4.878   3.656   8.793
    8AGLC    H4 2683   4.867   3.763   8.822
    8AGLC    O4 2684   4.772   3.583   8.854
    8AGLC   HO4 2685   4.695   3.629   8.819
    8AGLC    C6 2686   4.727   3.690   8.591
    8AGLC   H61 2687   4.733   3.722   8.485
    8AGLC   H62 2688   4.658   3.603   8.596
    8AGLC    O6 2689   4.668   3.796   8.668
    8AGLC   HO6 2690   4.643   3.866   8.606
    9AGAL    C1 2691   5.353   3.741   8.745
    9AGAL    H1 2692   5.343   3.738   8.635
    9AGAL    C5 2693   5.383   3.898   8.924
    9AGAL    H5 2694   5.303   3.847   8.980
    9AGAL    O5 2695   5.360   3.879   8.783
    9AGAL    C2 2696   5.483   3.672   8.780
    9AGAL    H2 2697   5.562   3.721   8.719
    9AGAL    O2 2698   5.464   3.537   8.729
    9AGAL    C3 2699   5.516   3.688   8.926
    9AGAL    H3 2700   5.438   3.638   8.987
    9AGAL    O3 2701   5.643   3.630   8.957
    9AGAL   HO3 2702   5.688   3.617   8.873
    9AGAL    C4 2703   5.518   3.837   8.960
    9AGAL    H4 2704   5.534   3.849   9.069
    9AGAL    O4 2705   5.621   3.910   8.893
    9AGAL   HO4 2706   5.569   3.972   8.841
    9AGAL    C6 2707   5.371   4.047   8.950
    9AGAL   H61 2708   5.266   4.079   8.938
    9AGAL   H62 2709   5.400   4.069   9.056
    9AGAL    O6 2710   5.452   4.127   8.862
    9AGAL   HO6 2711   5.398   4.148   8.786
   10AGAL    C1 2712   5.511   3.420   8.792
   10AGAL    H1 2713   5.619   3.430   8.818
   10AGAL    C5 2714   5.300   3.358   8.885
   10AGAL    H5 2715   5.257   3.445   8.832
   10AGAL    O5 2716   5.439   3.387   8.912
   10AGAL    C2 2717   5.499   3.306   8.693
   10AGAL    H2 2718   5.547   3.216   8.737
   10AGAL    O2 2719   5.571   3.337   8.572
   10AGAL   HO2 2720   5.543   3.276   8.503
   10AGAL    C3 2721   5.354   3.272   8.663
   10AGAL    H3 2722   5.304   3.362   8.620
   10AGAL    O3 2723   5.342   3.165   8.568
   10AGAL   HO3 2724   5.250   3.147   8.551
   10AGAL    C4 2725   5.283   3.238   8.792
   10AGAL    H4 2726   5.175   3.226   8.771
   10AGAL    O4 2727   5.331   3.116   8.849
   10AGAL   HO4 2728   5.326   3.051   8.778
   10AGAL    C6 2729   5.222   3.348   9.016
   10AGAL   H61 2730   5.238   3.441   9.075
   10AGAL   H62 2731   5.114   3.338   8.992
   10AGAL    O6 2732   5.262   3.236   9.094
   10AGAL   HO6 2733   5.283   3.165   9.032
   11BGLC    C1 2734   4.984   3.688   9.061
   11BGLC    H1 2735   4.876   3.663   9.071
   11BGLC    C5 2736   4.932   3.918   9.094
   11BGLC    H5 2737   4.824   3.894   9.101
   11BGLC    O5 2738   4.999   3.820   9.013
   11BGLC    C2 2739   5.052   3.680   9.198
   11BGLC    H2 2740   5.158   3.707   9.182
   11BGLC    O2 2741   5.047   3.547   9.252
   11BGLC   HO2 2742   5.049   3.488   9.176
   11BGLC    C3 2743   4.988   3.781   9.292
   11BGLC    H3 2744   4.883   3.753   9.314
   11BGLC    O3 2745   5.067   3.789   9.412
   11BGLC    C4 2746   4.995   3.919   9.231
   11BGLC    H4 2747   5.101   3.950   9.217
   11BGLC    O4 2748   4.932   4.015   9.314
   11BGLC   HO4 2749   4.990   4.038   9.386
   11BGLC    C6 2750   4.950   4.047   9.016
   11BGLC   H61 2751   4.915   4.133   9.077
   11BGLC   H62 2752   5.057   4.064   8.993
   11BGLC    O6 2753   4.876   4.042   8.894
   11BGLC   HO6 2754   4.887   4.123   8.844
   12BGLCN   C1 2755   5.015   3.732   9.530
   12BGLCN   H1 2756   5.004   3.623   9.518
   12BGLCN   C5 2757   4.840   3.745   9.694
   12BGLCN   H5 2758   4.824   3.636   9.688
   12BGLCN   O5 2759   4.892   3.794   9.568
   12BGLCN   C2 2760   5.122   3.765   9.635
   12BGLCN   H2 2761   5.128   3.876   9.641
   12BGLCN    N 2762   5.251   3.711   9.594
   12BGLCN   HN 2763   5.253   3.615   9.568
   12BGLCN    C 2764   5.363   3.783   9.578
   12BGLCN    O 2765   5.369   3.904   9.598
   12BGLCN   CT 2766   5.486   3.707   9.533
   12BGLCN  HT1 2767   5.572   3.736   9.596
   12BGLCN  HT2 2768   5.509   3.733   9.427
   12BGLCN  HT3 2769   5.469   3.598   9.540
   12BGLCN   C3 2770   5.077   3.714   9.773
   12BGLCN   H3 2771   5.071   3.603   9.769
   12BGLCN   O3 2772   5.173   3.755   9.872
   12BGLCN   C4 2773   4.942   3.776   9.804
   12BGLCN   H4 2774   4.955   3.886   9.811
   12BGLCN   O4 2775   4.892   3.731   9.929
   12BGLCN  HO4 2776   4.844   3.648   9.918
   12BGLCN   C6 2777   4.707   3.815   9.719
   12BGLCN  H61 2778   4.682   3.814   9.827
   12BGLCN  H62 2779   4.714   3.922   9.688
   12BGLCN   O6 2780   4.596   3.755   9.651
   12BGLCN  HO6 2781   4.618   3.668   9.617
   13AGAL    C1 2782   5.195   3.668   9.983
   13AGAL    H1 2783   5.100   3.621  10.016
   13AGAL    C5 2784   5.416   3.621   9.903
   13AGAL    H5 2785   5.395   3.693   9.821
   13AGAL    O5 2786   5.290   3.566   9.947
   13AGAL    C2 2787   5.257   3.744  10.099
   13AGAL    H2 2788   5.284   3.668  10.175
   13AGAL    O2 2789   5.165   3.836  10.161
   13AGAL    C3 2790   5.387   3.811  10.056
   13AGAL    H3 2791   5.365   3.876   9.969
   13AGAL    O3 2792   5.443   3.894  10.157
   13AGAL   HO3 2793   5.472   3.977  10.117
   13AGAL    C4 2794   5.484   3.702  10.013
   13AGAL    H4 2795   5.574   3.751   9.969
   13AGAL    O4 2796   5.528   3.619  10.122
   13AGAL   HO4 2797   5.463   3.551  10.134
   13AGAL    C6 2798   5.501   3.511   9.839
   13AGAL   H61 2799   5.442   3.462   9.759
   13AGAL   H62 2800   5.591   3.557   9.793
   13AGAL    O6 2801   5.543   3.410   9.932
   13AGAL   HO6 2802   5.601   3.450   9.997
   14ARHM    C1 2803   5.116   3.801  10.289
   14ARHM    H1 2804   5.110   3.691  10.297
   14ARHM    C5 2805   4.975   3.991  10.304
   14ARHM    H5 2806   5.012   4.026  10.205
   14ARHM    O5 2807   4.983   3.848  10.311
   14ARHM    C2 2808   5.210   3.855  10.398
   14ARHM    H2 2809   5.313   3.821  10.373
   14ARHM    O2 2810   5.179   3.814  10.531
   14ARHM    C3 2811   5.206   4.006  10.392
   14ARHM    H3 2812   5.238   4.040  10.292
   14ARHM    O3 2813   5.295   4.067  10.487
   14ARHM   HO3 2814   5.243   4.138  10.525
   14ARHM    C4 2815   5.062   4.051  10.414
   14ARHM    H4 2816   5.027   4.009  10.511
   14ARHM    O4 2817   5.049   4.192  10.421
   14ARHM   HO4 2818   4.956   4.215  10.420
   14ARHM    C6 2819   4.826   4.026  10.315
   14ARHM   H61 2820   4.769   3.972  10.237
   14ARHM   H62 2821   4.786   3.997  10.415
   14ARHM   H63 2822   4.810   4.135  10.300
   15ARHM    C1 2823   5.175   3.675  10.558
   15ARHM    H1 2824   5.242   3.621  10.487
   15ARHM    C5 2825   4.950   3.690  10.638
   15ARHM    H5 2826   4.946   3.798  10.612
   15ARHM    O5 2827   5.041   3.623  10.549
   15ARHM    C2 2828   5.225   3.653  10.700
   15ARHM    H2 2829   5.328   3.693  10.708
   15ARHM    O2 2830   5.228   3.511  10.721
   15ARHM    C3 2831   5.136   3.729  10.795
   15ARHM    H3 2832   5.134   3.836  10.764
   15ARHM    O3 2833   5.190   3.724  10.929
   15ARHM    C4 2834   4.995   3.674  10.783
   15ARHM    H4 2835   4.996   3.566  10.807
   15ARHM    O4 2836   4.905   3.737  10.874
   15ARHM   HO4 2837   4.818   3.700  10.860
   15ARHM    C6 2838   4.811   3.629  10.610
   15ARHM   H61 2839   4.732   3.681  10.669
   15ARHM   H62 2840   4.786   3.640  10.502
   15ARHM   H63 2841   4.810   3.521  10.635
   16BMANN   C1 2842   5.257   3.463  10.852
   16BMANN   H1 2843   5.179   3.494  10.922
   16BMANN   C5 2844   5.414   3.454  11.030
   16BMANN   H5 2845   5.336   3.492  11.099
   16BMANN   O5 2846   5.387   3.503  10.898
   16BMANN   C2 2847   5.254   3.312  10.841
   16BMANN   H2 2848   5.150   3.286  10.812
   16BMANN    N 2849   5.346   3.260  10.741
   16BMANN   HN 2850   5.440   3.293  10.745
   16BMANN    C 2851   5.312   3.171  10.646
   16BMANN    O 2852   5.200   3.124  10.638
   16BMANN   CT 2853   5.419   3.133  10.547
   16BMANN  HT1 2854   5.422   3.023  10.536
   16BMANN  HT2 2855   5.518   3.170  10.582
   16BMANN  HT3 2856   5.395   3.179  10.448
   16BMANN   C3 2857   5.276   3.257  10.981
   16BMANN   H3 2858   5.199   3.301  11.048
   16BMANN   O3 2859   5.259   3.115  10.988
   16BMANN  HO3 2860   5.165   3.099  11.002
   16BMANN   C4 2861   5.411   3.302  11.033
   16BMANN   H4 2862   5.491   3.263  10.967
   16BMANN   O4 2863   5.434   3.252  11.165
   16BMANN  HO4 2864   5.410   3.159  11.161
   16BMANN   C6 2865   5.548   3.511  11.072
   16BMANN  H61 2866   5.581   3.463  11.168
   16BMANN  H62 2867   5.624   3.489  10.995
   16BMANN   O6 2868   5.540   3.652  11.095
   16BMANN  HO6 2869   5.514   3.693  11.012
   17BGLCN   C1 2870   5.180   3.842  11.002
   17BGLCN   H1 2871   5.087   3.898  10.977
   17BGLCN   C5 2872   5.291   4.043  11.068
   17BGLCN   H5 2873   5.204   4.104  11.038
   17BGLCN   O5 2874   5.296   3.924  10.988
   17BGLCN   C2 2875   5.174   3.796  11.147
   17BGLCN   H2 2876   5.274   3.752  11.169
   17BGLCN    N 2877   5.076   3.689  11.165
   17BGLCN   HN 2878   5.004   3.685  11.096
   17BGLCN    C 2879   5.088   3.593  11.256
   17BGLCN    O 2880   5.180   3.588  11.336
   17BGLCN   CT 2881   4.981   3.487  11.259
   17BGLCN  HT1 2882   5.011   3.403  11.193
   17BGLCN  HT2 2883   4.884   3.528  11.222
   17BGLCN  HT3 2884   4.968   3.449  11.361
   17BGLCN   C3 2885   5.157   3.918  11.236
   17BGLCN   H3 2886   5.068   3.974  11.200
   17BGLCN   O3 2887   5.136   3.879  11.373
   17BGLCN   C4 2888   5.279   4.006  11.215
   17BGLCN   H4 2889   5.370   3.949  11.246
   17BGLCN   O4 2890   5.273   4.125  11.293
   17BGLCN  HO4 2891   5.345   4.127  11.356
   17BGLCN   C6 2892   5.418   4.121  11.041
   17BGLCN  H61 2893   5.422   4.209  11.109
   17BGLCN  H62 2894   5.507   4.058  11.062
   17BGLCN   O6 2895   5.426   4.171  10.908
   17BGLCN  HO6 2896   5.418   4.098  10.846
   18AGAL    C1 2897   5.062   3.970  11.453
   18AGAL    H1 2898   5.117   4.065  11.467
   18AGAL    C5 2899   4.851   3.882  11.380
   18AGAL    H5 2900   4.905   3.810  11.314
   18AGAL    O5 2901   4.933   3.999  11.395
   18AGAL    C2 2902   5.036   3.910  11.590
   18AGAL    H2 2903   4.969   3.985  11.637
   18AGAL    O2 2904   5.153   3.900  11.673
   18AGAL    C3 2905   4.959   3.780  11.576
   18AGAL    H3 2906   5.016   3.713  11.509
   18AGAL    O3 2907   4.944   3.711  11.700
   18AGAL   HO3 2908   4.997   3.631  11.697
   18AGAL    C4 2909   4.825   3.812  11.513
   18AGAL    H4 2910   4.773   3.716  11.492
   18AGAL    O4 2911   4.742   3.886  11.603
   18AGAL   HO4 2912   4.749   3.842  11.689
   18AGAL    C6 2913   4.725   3.922  11.305
   18AGAL   H61 2914   4.752   3.962  11.206
   18AGAL   H62 2915   4.660   3.833  11.290
   18AGAL    O6 2916   4.652   4.022  11.377
   18AGAL   HO6 2917   4.651   3.995  11.468
   19ARHM    C1 2918   5.124   3.943  11.804
   19ARHM    H1 2919   5.018   3.922  11.828
   19ARHM    C5 2920   5.282   4.123  11.811
   19ARHM    H5 2921   5.321   4.090  11.714
   19ARHM    O5 2922   5.144   4.084  11.822
   19ARHM    C2 2923   5.206   3.866  11.906
   19ARHM    H2 2924   5.203   3.759  11.878
   19ARHM    O2 2925   5.150   3.882  12.038
   19ARHM    C3 2926   5.352   3.905  11.899
   19ARHM    H3 2927   5.391   3.883  11.797
   19ARHM    O3 2928   5.432   3.831  11.991
   19ARHM   HO3 2929   5.494   3.893  12.030
   19ARHM    C4 2930   5.360   4.055  11.922
   19ARHM    H4 2931   5.306   4.077  12.017
   19ARHM    O4 2932   5.492   4.106  11.943
   19ARHM   HO4 2933   5.551   4.090  11.870
   19ARHM    C6 2934   5.288   4.276  11.814
   19ARHM   H61 2935   5.226   4.318  11.731
   19ARHM   H62 2936   5.253   4.317  11.911
   19ARHM   H63 2937   5.393   4.309  11.794
   20ARHM    C1 2938   5.039   3.799  12.062
   20ARHM    H1 2939   5.024   3.728  11.978
   20ARHM    C5 2940   4.910   3.956  12.189
   20ARHM    H5 2941   4.990   4.033  12.179
   20ARHM    O5 2942   4.914   3.869  12.075
   20ARHM    C2 2943   5.068   3.719  12.186
   20ARHM    H2 2944   5.169   3.674  12.179
   20ARHM    O2 2945   4.971   3.614  12.204
   20ARHM    C3 2946   5.067   3.809  12.307
   20ARHM    H3 2947   5.146   3.886  12.294
   20ARHM    O3 2948   5.096   3.729  12.422
   20ARHM    C4 2949   4.931   3.875  12.316
   20ARHM    H4 2950   4.854   3.796  12.319
   20ARHM    O4 2951   4.912   3.956  12.433
   20ARHM   HO4 2952   4.817   3.965  12.443
   20ARHM    C6 2953   4.773   4.027  12.186
   20ARHM   H61 2954   4.691   3.953  12.194
   20ARHM   H62 2955   4.764   4.101  12.269
   20ARHM   H63 2956   4.762   4.082  12.090
   21BMANN   C1 2957   4.992   3.502  12.123
   21BMANN   H1 2958   5.079   3.517  12.054
   21BMANN   C5 2959   4.892   3.359  11.960
   21BMANN   H5 2960   4.976   3.378  11.890
   21BMANN   O5 2961   4.875   3.475  12.044
   21BMANN   C2 2962   5.019   3.387  12.217
   21BMANN   H2 2963   5.112   3.411  12.272
   21BMANN    N 2964   4.913   3.375  12.315
   21BMANN   HN 2965   4.837   3.438  12.300
   21BMANN    C 2966   4.911   3.299  12.426
   21BMANN    O 2967   5.000   3.218  12.453
   21BMANN   CT 2968   4.793   3.317  12.516
   21BMANN  HT1 2969   4.717   3.238  12.496
   21BMANN  HT2 2970   4.747   3.417  12.502
   21BMANN  HT3 2971   4.826   3.308  12.623
   21BMANN   C3 2972   5.045   3.265  12.130
   21BMANN   H3 2973   5.129   3.287  12.061
   21BMANN   O3 2974   5.087   3.154  12.210
   21BMANN  HO3 2975   5.059   3.171  12.300
   21BMANN   C4 2976   4.923   3.237  12.045
   21BMANN   H4 2977   4.836   3.217  12.110
   21BMANN   O4 2978   4.943   3.124  11.960
   21BMANN  HO4 2979   4.955   3.045  12.012
   21BMANN   C6 2980   4.766   3.340  11.877
   21BMANN  H61 2981   4.781   3.257  11.805
   21BMANN  H62 2982   4.683   3.312  11.946
   21BMANN   O6 2983   4.729   3.458  11.805
   21BMANN  HO6 2984   4.749   3.533  11.861
   22BGLCN   C1 2985   5.180   3.788  12.516
   22BGLCN   H1 2986   5.169   3.899  12.516
   22BGLCN   C5 2987   5.402   3.800  12.599
   22BGLCN   H5 2988   5.388   3.910  12.606
   22BGLCN   O5 2989   5.315   3.749  12.496
   22BGLCN   C2 2990   5.129   3.730  12.645
   22BGLCN   H2 2991   5.138   3.620  12.640
   22BGLCN    N 2992   4.987   3.763  12.659
   22BGLCN   HN 2993   4.956   3.839  12.603
   22BGLCN    C 2994   4.896   3.688  12.722
   22BGLCN    O 2995   4.924   3.584  12.781
   22BGLCN   CT 2996   4.754   3.737  12.715
   22BGLCN  HT1 2997   4.708   3.705  12.620
   22BGLCN  HT2 2998   4.752   3.848  12.722
   22BGLCN  HT3 2999   4.697   3.693  12.800
   22BGLCN   C3 3000   5.216   3.779  12.759
   22BGLCN   H3 3001   5.211   3.890  12.759
   22BGLCN   O3 3002   5.160   3.729  12.881
   22BGLCN   C4 3003   5.360   3.741  12.734
   22BGLCN   H4 3004   5.367   3.630  12.728
   22BGLCN   O4 3005   5.448   3.788  12.835
   22BGLCN  HO4 3006   5.512   3.719  12.856
   22BGLCN   C6 3007   5.545   3.770  12.557
   22BGLCN  H61 3008   5.605   3.736  12.644
   22BGLCN  H62 3009   5.548   3.687  12.482
   22BGLCN   O6 3010   5.609   3.886  12.502
   22BGLCN  HO6 3011   5.617   3.880  12.408
   23AGAL    C1 3012   5.200   3.789  13.002
   23AGAL    H1 3013   5.302   3.753  13.029
   23AGAL    C5 3014   5.071   3.986  12.967
   23AGAL    H5 3015   5.031   3.940  12.873
   23AGAL    O5 3016   5.202   3.932  12.995
   23AGAL    C2 3017   5.108   3.746  13.116
   23AGAL    H2 3018   5.146   3.792  13.210
   23AGAL    O2 3019   5.106   3.603  13.128
   23AGAL    C3 3020   4.968   3.798  13.092
   23AGAL    H3 3021   4.926   3.752  13.000
   23AGAL    O3 3022   4.883   3.766  13.203
   23AGAL   HO3 3023   4.889   3.843  13.259
   23AGAL    C4 3024   4.974   3.949  13.078
   23AGAL    H4 3025   4.873   3.986  13.050
   23AGAL    O4 3026   5.009   4.012  13.200
   23AGAL   HO4 3027   5.034   4.102  13.180
   23AGAL    C6 3028   5.086   4.135  12.939
   23AGAL   H61 3029   5.156   4.149  12.853
   23AGAL   H62 3030   4.988   4.176  12.906
   23AGAL    O6 3031   5.132   4.211  13.050
   23AGAL   HO6 3032   5.228   4.211  13.050
   24ARHM    C1 3033   5.202   3.548  13.217
   24ARHM    H1 3034   5.286   3.619  13.227
   24ARHM    C5 3035   5.165   3.323  13.151
   24ARHM    H5 3036   5.085   3.354  13.079
   24ARHM    O5 3037   5.261   3.429  13.165
   24ARHM    C2 3038   5.134   3.526  13.349
   24ARHM    H2 3039   5.080   3.619  13.377
   24ARHM    O2 3040   5.229   3.494  13.453
   24ARHM    C3 3041   5.031   3.417  13.335
   24ARHM    H3 3042   4.957   3.446  13.258
   24ARHM    O3 3043   4.959   3.397  13.457
   24ARHM   HO3 3044   4.949   3.302  13.467
   24ARHM    C4 3045   5.103   3.291  13.286
   24ARHM    H4 3046   5.185   3.267  13.356
   24ARHM    O4 3047   5.017   3.177  13.279
   24ARHM   HO4 3048   5.059   3.105  13.328
   24ARHM    C6 3049   5.241   3.206  13.086
   24ARHM   H61 3050   5.173   3.119  13.068
   24ARHM   H62 3051   5.283   3.238  12.989
   24ARHM   H63 3052   5.324   3.173  13.154
   25ARHM    C1 3053   5.295   3.606  13.508
   25ARHM    H1 3054   5.287   3.691  13.436
   25ARHM    C5 3055   5.466   3.488  13.623
   25ARHM    H5 3056   5.420   3.391  13.595
   25ARHM    O5 3057   5.436   3.586  13.522
   25ARHM    C2 3058   5.230   3.647  13.637
   25ARHM    H2 3059   5.120   3.648  13.623
   25ARHM    O2 3060   5.274   3.776  13.682
   25ARHM    C3 3061   5.260   3.547  13.745
   25ARHM    H3 3062   5.217   3.449  13.715
   25ARHM    O3 3063   5.199   3.595  13.864
   25ARHM    C4 3064   5.411   3.535  13.758
   25ARHM    H4 3065   5.453   3.636  13.780
   25ARHM    O4 3066   5.449   3.449  13.863
   25ARHM   HO4 3067   5.538   3.472  13.891
   25ARHM    C6 3068   5.619   3.471  13.620
   25ARHM   H61 3069   5.651   3.439  13.519
   25ARHM   H62 3070   5.668   3.567  13.644
   25ARHM   H63 3071   5.651   3.393  13.693
   26BMANN   C1 3072   5.215   3.884  13.616
   26BMANN   H1 3073   5.116   3.857  13.575
   26BMANN   C5 3074   5.248   4.046  13.444
   26BMANN   H5 3075   5.150   4.016  13.401
   26BMANN   O5 3076   5.302   3.932  13.512
   26BMANN   C2 3077   5.200   3.993  13.720
   26BMANN   H2 3078   5.131   3.954  13.798
   26BMANN    N 3079   5.327   4.022  13.786
   26BMANN   HN 3080   5.406   3.976  13.745
   26BMANN    C 3081   5.344   4.095  13.897
   26BMANN    O 3082   5.252   4.154  13.953
   26BMANN   CT 3083   5.485   4.104  13.950
   26BMANN  HT1 3084   5.558   4.085  13.868
   26BMANN  HT2 3085   5.499   4.029  14.030
   26BMANN  HT3 3086   5.503   4.205  13.991
   26BMANN   C3 3087   5.133   4.111  13.651
   26BMANN   H3 3088   5.039   4.075  13.604
   26BMANN   O3 3089   5.094   4.210  13.745
   26BMANN  HO3 3090   5.153   4.206  13.821
   26BMANN   C4 3091   5.223   4.161  13.540
   26BMANN   H4 3092   5.320   4.196  13.582
   26BMANN   O4 3093   5.163   4.269  13.470
   26BMANN  HO4 3094   5.178   4.350  13.519
   26BMANN   C6 3095   5.342   4.082  13.329
   26BMANN  H61 3096   5.344   3.998  13.256
   26BMANN  H62 3097   5.303   4.171  13.276
   26BMANN   O6 3098   5.476   4.107  13.374
   26BMANN  HO6 3099   5.505   4.194  13.345
   27BGLCN   C1 3100   5.148   3.494  13.946
   27BGLCN   H1 3101   5.211   3.403  13.941
   27BGLCN   C5 3102   4.955   3.364  13.995
   27BGLCN   H5 3103   5.021   3.274  13.991
   27BGLCN   O5 3104   5.013   3.465  13.909
   27BGLCN   C2 3105   5.148   3.553  14.085
   27BGLCN   H2 3106   5.078   3.640  14.083
   27BGLCN    N 3107   5.280   3.601  14.120
   27BGLCN   HN 3108   5.357   3.558  14.072
   27BGLCN    C 3109   5.304   3.707  14.200
   27BGLCN    O 3110   5.214   3.771  14.252
   27BGLCN   CT 3111   5.448   3.745  14.220
   27BGLCN  HT1 3112   5.513   3.689  14.148
   27BGLCN  HT2 3113   5.478   3.721  14.324
   27BGLCN  HT3 3114   5.460   3.854  14.203
   27BGLCN   C3 3115   5.092   3.450  14.182
   27BGLCN   H3 3116   5.155   3.359  14.172
   27BGLCN   O3 3117   5.106   3.502  14.315
   27BGLCN   C4 3118   4.951   3.414  14.138
   27BGLCN   H4 3119   4.887   3.505  14.142
   27BGLCN   O4 3120   4.891   3.315  14.221
   27BGLCN  HO4 3121   4.955   3.249  14.248
   27BGLCN   C6 3122   4.820   3.326  13.939
   27BGLCN  H61 3123   4.777   3.243  13.998
   27BGLCN  H62 3124   4.752   3.413  13.944
   27BGLCN   O6 3125   4.828   3.282  13.802
   27BGLCN  HO6 3126   4.771   3.339  13.749
   28AGAL    C1 3127   5.089   3.414  14.424
   28AGAL    H1 3128   4.980   3.397  14.440
   28AGAL    C5 3129   5.298   3.299  14.395
   28AGAL    H5 3130   5.324   3.364  14.309
   28AGAL    O5 3131   5.154   3.287  14.403
   28AGAL    C2 3132   5.144   3.475  14.551
   28AGAL    H2 3133   5.129   3.392  14.624
   28AGAL    O2 3134   5.074   3.590  14.600
   28AGAL    C3 3135   5.294   3.499  14.538
   28AGAL    H3 3136   5.312   3.562  14.448
   28AGAL    O3 3137   5.348   3.570  14.650
   28AGAL   HO3 3138   5.356   3.663  14.627
   28AGAL    C4 3139   5.361   3.364  14.519
   28AGAL    H4 3140   5.469   3.382  14.497
   28AGAL    O4 3141   5.355   3.286  14.638
   28AGAL   HO4 3142   5.346   3.350  14.710
   28AGAL    C6 3143   5.351   3.160  14.362
   28AGAL   H61 3144   5.319   3.133  14.259
   28AGAL   H62 3145   5.462   3.160  14.364
   28AGAL    O6 3146   5.302   3.059  14.452
   28AGAL   HO6 3147   5.211   3.082  14.475
   29ARHM    C1 3148   5.040   3.575  14.736
   29ARHM    H1 3149   5.117   3.512  14.786
   29ARHM    C5 3150   4.805   3.591  14.697
   29ARHM    H5 3151   4.821   3.605  14.588
   29ARHM    O5 3152   4.912   3.512  14.751
   29ARHM    C2 3153   5.040   3.707  14.809
   29ARHM    H2 3154   5.138   3.756  14.792
   29ARHM    O2 3155   5.017   3.685  14.950
   29ARHM    C3 3156   4.933   3.797  14.751
   29ARHM    H3 3157   4.954   3.815  14.644
   29ARHM    O3 3158   4.934   3.924  14.817
   29ARHM   HO3 3159   4.845   3.960  14.807
   29ARHM    C4 3160   4.800   3.728  14.766
   29ARHM    H4 3161   4.779   3.711  14.873
   29ARHM    O4 3162   4.694   3.808  14.713
   29ARHM   HO4 3163   4.692   3.801  14.618
   29ARHM    C6 3164   4.678   3.508  14.718
   29ARHM   H61 3165   4.686   3.411  14.665
   29ARHM   H62 3166   4.663   3.488  14.826
   29ARHM   H63 3167   4.588   3.562  14.680
   30ARHM    C1 3168   5.135   3.678  15.027
   30ARHM    H1 3169   5.198   3.766  15.003
   30ARHM    C5 3170   5.137   3.438  15.038
   30ARHM    H5 3171   5.043   3.434  14.980
   30ARHM    O5 3172   5.211   3.558  15.004
   30ARHM    C2 3173   5.097   3.684  15.174
   30ARHM    H2 3174   5.031   3.772  15.189
   30ARHM    O2 3175   5.217   3.698  15.250
   30ARHM    C3 3176   5.019   3.560  15.216
   30ARHM    H3 3177   4.929   3.555  15.152
   30ARHM    O3 3178   4.971   3.569  15.352
   30ARHM    C4 3179   5.102   3.437  15.186
   30ARHM    H4 3180   5.196   3.438  15.244
   30ARHM    O4 3181   5.032   3.316  15.216
   30ARHM   HO4 3182   4.945   3.335  15.251
   30ARHM    C6 3183   5.225   3.319  14.995
   30ARHM   H61 3184   5.171   3.223  15.014
   30ARHM   H62 3185   5.248   3.325  14.886
   30ARHM   H63 3186   5.320   3.317  15.053
   31BMANN   C1 3187   5.259   3.829  15.280
   31BMANN   H1 3188   5.172   3.894  15.304
   31BMANN   C5 3189   5.394   4.013  15.207
   31BMANN   H5 3190   5.312   4.082  15.236
   31BMANN   O5 3191   5.339   3.884  15.174
   31BMANN   C2 3192   5.349   3.808  15.400
   31BMANN   H2 3193   5.284   3.773  15.483
   31BMANN    N 3194   5.449   3.705  15.376
   31BMANN   HN 3195   5.464   3.680  15.281
   31BMANN    C 3196   5.516   3.639  15.471
   31BMANN    O 3197   5.506   3.669  15.590
   31BMANN   CT 3198   5.604   3.527  15.425
   31BMANN  HT1 3199   5.629   3.538  15.317
   31BMANN  HT2 3200   5.553   3.430  15.441
   31BMANN  HT3 3201   5.698   3.527  15.484
   31BMANN   C3 3202   5.404   3.943  15.440
   31BMANN   H3 3203   5.319   4.012  15.456
   31BMANN   O3 3204   5.473   3.936  15.564
   31BMANN  HO3 3205   5.509   3.848  15.573
   31BMANN   C4 3206   5.487   4.000  15.328
   31BMANN   H4 3207   5.571   3.931  15.302
   31BMANN   O4 3208   5.544   4.125  15.367
   31BMANN  HO4 3209   5.570   4.112  15.458
   31BMANN   C6 3210   5.462   4.068  15.083
   31BMANN  H61 3211   5.548   4.132  15.112
   31BMANN  H62 3212   5.503   3.985  15.021
   31BMANN   O6 3213   5.374   4.149  15.005
   31BMANN  HO6 3214   5.297   4.098  14.978
   32BGLCN   C1 3215   5.063   3.539  15.456
   32BGLCN   H1 3216   5.161   3.587  15.435
   32BGLCN   C5 3217   5.188   3.369  15.566
   32BGLCN   H5 3218   5.283   3.417  15.534
   32BGLCN   O5 3219   5.084   3.399  15.472
   32BGLCN   C2 3220   5.014   3.591  15.590
   32BGLCN   H2 3221   4.931   3.523  15.619
   32BGLCN    N 3222   4.958   3.725  15.585
   32BGLCN   HN 3223   4.994   3.788  15.516
   32BGLCN    C 3224   4.857   3.764  15.664
   32BGLCN    O 3225   4.805   3.692  15.748
   32BGLCN   CT 3226   4.810   3.905  15.645
   32BGLCN  HT1 3227   4.889   3.968  15.598
   32BGLCN  HT2 3228   4.782   3.949  15.743
   32BGLCN  HT3 3229   4.720   3.904  15.579
   32BGLCN   C3 3230   5.126   3.572  15.692
   32BGLCN   H3 3231   5.217   3.617  15.647
   32BGLCN   O3 3232   5.101   3.640  15.816
   32BGLCN   C4 3233   5.151   3.422  15.704
   32BGLCN   H4 3234   5.058   3.372  15.738
   32BGLCN   O4 3235   5.254   3.393  15.797
   32BGLCN  HO4 3236   5.235   3.314  15.847
   32BGLCN   C6 3237   5.208   3.219  15.558
   32BGLCN  H61 3238   5.291   3.187  15.625
   32BGLCN  H62 3239   5.116   3.166  15.590
   32BGLCN   O6 3240   5.239   3.180  15.423
   32BGLCN  HO6 3241   5.164   3.202  15.368
   33AGAL    C1 3242   5.218   3.700  15.869
   33AGAL    H1 3243   5.304   3.631  15.861
   33AGAL    C5 3244   5.156   3.928  15.817
   33AGAL    H5 3245   5.059   3.891  15.779
   33AGAL    O5 3246   5.254   3.822  15.801
   33AGAL    C2 3247   5.199   3.734  16.016
   33AGAL    H2 3248   5.296   3.776  16.051
   33AGAL    O2 3249   5.173   3.613  16.090
   33AGAL    C3 3250   5.091   3.839  16.036
   33AGAL    H3 3251   4.997   3.800  15.990
   33AGAL    O3 3252   5.062   3.867  16.172
   33AGAL   HO3 3253   5.126   3.932  16.201
   33AGAL    C4 3254   5.134   3.964  15.964
   33AGAL    H4 3255   5.052   4.039  15.969
   33AGAL    O4 3256   5.251   4.022  16.021
   33AGAL   HO4 3257   5.296   4.067  15.949
   33AGAL    C6 3258   5.194   4.048  15.733
   33AGAL   H61 3259   5.185   4.021  15.626
   33AGAL   H62 3260   5.123   4.131  15.752
   33AGAL    O6 3261   5.327   4.095  15.759
   33AGAL   HO6 3262   5.389   4.043  15.706
   34ARHM    C1 3263   5.241   3.605  16.212
   34ARHM    H1 3264   5.220   3.696  16.272
   34ARHM    C5 3265   5.420   3.479  16.117
   34ARHM    H5 3266   5.375   3.487  16.016
   34ARHM    O5 3267   5.384   3.593  16.195
   34ARHM    C2 3268   5.188   3.483  16.283
   34ARHM    H2 3269   5.077   3.492  16.289
   34ARHM    O2 3270   5.239   3.468  16.417
   34ARHM    C3 3271   5.220   3.360  16.199
   34ARHM    H3 3272   5.174   3.373  16.099
   34ARHM    O3 3273   5.164   3.241  16.255
   34ARHM   HO3 3274   5.101   3.206  16.191
   34ARHM    C4 3275   5.370   3.350  16.181
   34ARHM    H4 3276   5.418   3.339  16.281
   34ARHM    O4 3277   5.406   3.239  16.100
   34ARHM   HO4 3278   5.350   3.164  16.123
   34ARHM    C6 3279   5.573   3.485  16.101
   34ARHM   H61 3280   5.622   3.477  16.201
   34ARHM   H62 3281   5.608   3.401  16.037
   34ARHM   H63 3282   5.602   3.581  16.053
   35ARHM    C1 3283   5.215   3.576  16.504
   35ARHM    H1 3284   5.118   3.624  16.480
   35ARHM    C5 3285   5.450   3.621  16.524
   35ARHM    H5 3286   5.472   3.542  16.450
   35ARHM    O5 3287   5.319   3.675  16.498
   35ARHM    C2 3288   5.212   3.519  16.645
   35ARHM    H2 3289   5.136   3.437  16.646
   35ARHM    O2 3290   5.176   3.617  16.744
   35ARHM    C3 3291   5.346   3.457  16.678
   35ARHM    H3 3292   5.367   3.377  16.604
   35ARHM    O3 3293   5.346   3.394  16.806
   35ARHM   HO3 3294   5.329   3.460  16.875
   35ARHM    C4 3295   5.454   3.563  16.665
   35ARHM    H4 3296   5.433   3.645  16.736
   35ARHM    O4 3297   5.584   3.511  16.695
   35ARHM   HO4 3298   5.591   3.423  16.658
   35ARHM    C6 3299   5.549   3.737  16.502
   35ARHM   H61 3300   5.540   3.775  16.398
   35ARHM   H62 3301   5.528   3.820  16.572
   35ARHM   H63 3302   5.654   3.702  16.517
   36BMANN   C1 3303   5.044   3.666  16.736
   36BMANN   H1 3304   4.976   3.589  16.694
   36BMANN   C5 3305   4.901   3.841  16.656
   36BMANN   H5 3306   4.836   3.763  16.610
   36BMANN   O5 3307   5.036   3.788  16.662
   36BMANN   C2 3308   5.003   3.698  16.879
   36BMANN   H2 3309   5.007   3.602  16.934
   36BMANN    N 3310   5.094   3.793  16.941
   36BMANN   HN 3311   5.120   3.870  16.883
   36BMANN    C 3312   5.140   3.785  17.066
   36BMANN    O 3313   5.118   3.689  17.139
   36BMANN   CT 3314   5.224   3.901  17.114
   36BMANN  HT1 3315   5.200   3.993  17.056
   36BMANN  HT2 3316   5.331   3.877  17.103
   36BMANN  HT3 3317   5.202   3.920  17.222
   36BMANN   C3 3318   4.859   3.745  16.878
   36BMANN   H3 3319   4.795   3.667  16.830
   36BMANN   O3 3320   4.810   3.764  17.011
   36BMANN  HO3 3321   4.826   3.683  17.061
   36BMANN   C4 3322   4.849   3.871  16.795
   36BMANN   H4 3323   4.909   3.952  16.841
   36BMANN   O4 3324   4.714   3.915  16.788
   36BMANN  HO4 3325   4.682   3.925  16.878
   36BMANN   C6 3326   4.898   3.961  16.562
   36BMANN  H61 3327   4.949   3.936  16.467
   36BMANN  H62 3328   4.792   3.984  16.539
   36BMANN   O6 3329   4.958   4.079  16.619
   36BMANN  HO6 3330   4.912   4.156  16.584
    1ECLIP HB6S 3331   5.520   4.776   6.657
    1ECLIP  OB6 3332   5.453   4.935   6.773
    1ECLIP  CB6 3333   5.424   4.826   6.683
    1ECLIP HB6R 3334   5.360   4.750   6.733
    1ECLIP  CB5 3335   5.352   4.860   6.554
    1ECLIP  OB5 3336   5.410   4.977   6.498
    1ECLIP  HB5 3337   5.245   4.879   6.579
    1ECLIP  CB1 3338   5.340   5.021   6.381
    1ECLIP  HB1 3339   5.236   5.050   6.406
    1ECLIP  OA6 3340   5.409   5.129   6.325
    1ECLIP  CA6 3341   5.549   5.121   6.347
    1ECLIP HA6R 3342   5.587   5.017   6.340
    1ECLIP HA6S 3343   5.570   5.156   6.451
    1ECLIP  CB4 3344   5.360   4.747   6.450
    1ECLIP  HB4 3345   5.467   4.742   6.417
    1ECLIP  OB4 3346   5.322   4.626   6.514
    1ECLIP   PB 3347   5.397   4.483   6.483
    1ECLIP OPB4 3348   5.416   4.399   6.608
    1ECLIP OPB3 3349   5.536   4.501   6.421
    1ECLIP OPB2 3350   5.323   4.405   6.377
    1ECLIP  CB3 3351   5.276   4.788   6.330
    1ECLIP  OB3 3352   5.274   4.687   6.229
    1ECLIP  HB3 3353   5.174   4.811   6.368
    1ECLIP  C71 3354   5.168   4.689   6.148
    1ECLIP  O71 3355   5.080   4.773   6.151
    1ECLIP  C72 3356   5.199   4.616   6.018
    1ECLIP H72R 3357   5.215   4.692   5.938
    1ECLIP H72S 3358   5.108   4.557   5.992
    1ECLIP  CB2 3359   5.343   4.914   6.275
    1ECLIP  HB2 3360   5.448   4.884   6.259
    1ECLIP  NB2 3361   5.291   4.964   6.148
    1ECLIP HNB2 3362   5.197   4.996   6.149
    1ECLIP  CA4 3363   5.544   5.324   6.198
    1ECLIP  HA4 3364   5.444   5.289   6.164
    1ECLIP  OA4 3365   5.537   5.411   6.312
    1ECLIP HOA4 3366   5.443   5.425   6.325
    1ECLIP  CA5 3367   5.624   5.208   6.249
    1ECLIP  HA5 3368   5.714   5.236   6.308
    1ECLIP  OA5 3369   5.663   5.124   6.142
    1ECLIP  CA1 3370   5.736   5.195   6.042
    1ECLIP  HA1 3371   5.748   5.118   5.964
    1ECLIP  OA1 3372   5.869   5.226   6.079
    1ECLIP OPA2 3373   5.916   5.461   6.175
    1ECLIP OPA3 3374   5.919   5.286   6.329
    1ECLIP OPA4 3375   6.100   5.306   6.150
    1ECLIP   PA 3376   5.954   5.315   6.186
    1ECLIP  CA3 3377   5.609   5.401   6.087
    1ECLIP  HA3 3378   5.704   5.451   6.118
    1ECLIP  OA3 3379   5.518   5.510   6.069
    1ECLIP  C31 3380   5.437   5.522   5.964
    1ECLIP  O31 3381   5.477   5.544   5.851
    1ECLIP  C32 3382   5.313   5.596   6.019
    1ECLIP H32R 3383   5.268   5.650   5.933
    1ECLIP H32S 3384   5.347   5.672   6.094
    1ECLIP  CA2 3385   5.646   5.303   5.976
    1ECLIP  HA2 3386   5.553   5.251   5.945
    1ECLIP  NA2 3387   5.709   5.357   5.856
    1ECLIP HNA2 3388   5.745   5.450   5.860
    1ECLIP  C73 3389   5.320   4.523   6.030
    1ECLIP H73R 3390   5.305   4.461   6.120
    1ECLIP  O73 3391   5.439   4.601   6.036
    1ECLIP  C81 3392   5.542   4.546   6.095
    1ECLIP  O81 3393   5.545   4.431   6.141
    1ECLIP  C82 3394   5.668   4.620   6.049
    1ECLIP H82R 3395   5.757   4.565   6.083
    1ECLIP H82S 3396   5.666   4.721   6.095
    1ECLIP  C83 3397   5.670   4.636   5.894
    1ECLIP H83R 3398   5.582   4.697   5.865
    1ECLIP H83S 3399   5.662   4.537   5.844
    1ECLIP  C84 3400   5.793   4.710   5.839
    1ECLIP H84R 3401   5.883   4.646   5.846
    1ECLIP H84S 3402   5.810   4.802   5.898
    1ECLIP  C85 3403   5.768   4.750   5.693
    1ECLIP H85R 3404   5.684   4.822   5.691
    1ECLIP H85S 3405   5.737   4.660   5.635
    1ECLIP  C86 3406   5.888   4.816   5.622
    1ECLIP H86R 3407   5.967   4.740   5.605
    1ECLIP H86S 3408   5.929   4.895   5.688
    1ECLIP  C87 3409   5.850   4.880   5.486
    1ECLIP H87R 3410   5.942   4.920   5.438
    1ECLIP H87S 3411   5.783   4.966   5.506
    1ECLIP  C88 3412   5.778   4.785   5.389
    1ECLIP H88R 3413   5.683   4.753   5.438
    1ECLIP H88S 3414   5.839   4.693   5.373
    1ECLIP  C89 3415   5.741   4.847   5.254
    1ECLIP H89R 3416   5.704   4.950   5.268
    1ECLIP H89S 3417   5.656   4.786   5.214
    1ECLIP C810 3418   5.853   4.847   5.149
    1ECLIPH810R 3419   5.906   4.749   5.153
    1ECLIPH810S 3420   5.927   4.925   5.179
    1ECLIP C811 3421   5.802   4.874   5.007
    1ECLIPH811R 3422   5.890   4.887   4.940
    1ECLIPH811S 3423   5.746   4.970   5.007
    1ECLIP C812 3424   5.712   4.765   4.947
    1ECLIPH812R 3425   5.680   4.796   4.845
    1ECLIPH812S 3426   5.619   4.755   5.009
    1ECLIP C813 3427   5.777   4.626   4.938
    1ECLIPH813R 3428   5.867   4.633   4.872
    1ECLIPH813S 3429   5.812   4.594   5.038
    1ECLIP C814 3430   5.682   4.519   4.884
    1ECLIPH814R 3431   5.644   4.549   4.783
    1ECLIPH814S 3432   5.595   4.507   4.951
    1ECLIPH814T 3433   5.734   4.421   4.874
    1ECLIP  C74 3434   5.331   4.429   5.907
    1ECLIP H74R 3435   5.235   4.373   5.905
    1ECLIP H74S 3436   5.414   4.358   5.926
    1ECLIP  C75 3437   5.354   4.489   5.767
    1ECLIP H75R 3438   5.416   4.417   5.710
    1ECLIP H75S 3439   5.411   4.584   5.773
    1ECLIP  C76 3440   5.224   4.509   5.688
    1ECLIP H76R 3441   5.171   4.599   5.723
    1ECLIP H76S 3442   5.156   4.422   5.703
    1ECLIP  C77 3443   5.248   4.521   5.535
    1ECLIP H77R 3444   5.290   4.426   5.497
    1ECLIP H77S 3445   5.322   4.601   5.516
    1ECLIP  C78 3446   5.118   4.555   5.462
    1ECLIP H78R 3447   5.047   4.470   5.470
    1ECLIP H78S 3448   5.074   4.642   5.514
    1ECLIP  C79 3449   5.132   4.598   5.316
    1ECLIP H79R 3450   5.186   4.695   5.312
    1ECLIP H79S 3451   5.030   4.616   5.276
    1ECLIP C710 3452   5.204   4.500   5.222
    1ECLIPH710R 3453   5.310   4.490   5.252
    1ECLIPH710S 3454   5.156   4.400   5.228
    1ECLIP C711 3455   5.194   4.555   5.079
    1ECLIPH711R 3456   5.086   4.564   5.056
    1ECLIPH711S 3457   5.237   4.657   5.077
    1ECLIP C712 3458   5.264   4.470   4.973
    1ECLIPH712R 3459   5.216   4.370   4.970
    1ECLIPH712S 3460   5.370   4.455   5.002
    1ECLIP C713 3461   5.257   4.535   4.834
    1ECLIPH713R 3462   5.319   4.626   4.834
    1ECLIPH713S 3463   5.300   4.464   4.760
    1ECLIP C714 3464   5.115   4.572   4.790
    1ECLIPH714R 3465   5.048   4.483   4.795
    1ECLIPH714S 3466   5.072   4.652   4.854
    1ECLIPH714T 3467   5.115   4.610   4.686
    1ECLIP  C51 3468   5.358   4.959   6.031
    1ECLIP  O51 3469   5.470   4.910   6.019
    1ECLIP  C52 3470   5.285   5.020   5.914
    1ECLIP H52R 3471   5.188   4.969   5.903
    1ECLIP H52S 3472   5.268   5.127   5.941
    1ECLIP  C53 3473   5.363   5.012   5.782
    1ECLIP H53R 3474   5.468   5.047   5.796
    1ECLIP  O53 3475   5.296   5.092   5.686
    1ECLIP  C61 3476   5.320   5.221   5.684
    1ECLIP  O61 3477   5.379   5.282   5.770
    1ECLIP  C62 3478   5.223   5.287   5.584
    1ECLIP H62R 3479   5.148   5.344   5.642
    1ECLIP H62S 3480   5.171   5.207   5.528
    1ECLIP  C63 3481   5.296   5.379   5.484
    1ECLIP H63R 3482   5.379   5.323   5.436
    1ECLIP H63S 3483   5.338   5.466   5.539
    1ECLIP  C64 3484   5.206   5.429   5.370
    1ECLIP H64R 3485   5.245   5.526   5.334
    1ECLIP H64S 3486   5.103   5.445   5.410
    1ECLIP  C65 3487   5.202   5.331   5.252
    1ECLIP H65R 3488   5.156   5.236   5.288
    1ECLIP H65S 3489   5.305   5.308   5.219
    1ECLIP  C66 3490   5.119   5.382   5.134
    1ECLIP H66R 3491   5.024   5.425   5.172
    1ECLIP H66S 3492   5.094   5.296   5.068
    1ECLIP  C67 3493   5.185   5.491   5.049
    1ECLIP H67R 3494   5.209   5.580   5.109
    1ECLIP H67S 3495   5.109   5.522   4.973
    1ECLIP  C68 3496   5.310   5.443   4.973
    1ECLIP H68R 3497   5.308   5.332   4.969
    1ECLIP H68S 3498   5.401   5.473   5.030
    1ECLIP  C69 3499   5.313   5.497   4.829
    1ECLIP H69R 3500   5.319   5.608   4.832
    1ECLIP H69S 3501   5.217   5.470   4.781
    1ECLIP C610 3502   5.429   5.440   4.747
    1ECLIPH610R 3503   5.432   5.330   4.757
    1ECLIPH610S 3504   5.525   5.479   4.788
    1ECLIP C611 3505   5.420   5.476   4.597
    1ECLIPH611R 3506   5.413   5.587   4.589
    1ECLIPH611S 3507   5.514   5.444   4.549
    1ECLIP C612 3508   5.301   5.414   4.524
    1ECLIPH612R 3509   5.304   5.303   4.532
    1ECLIPH612S 3510   5.204   5.450   4.568
    1ECLIPH612T 3511   5.303   5.443   4.417
    1ECLIP  C54 3512   5.364   4.869   5.726
    1ECLIP H54R 3513   5.260   4.832   5.717
    1ECLIP H54S 3514   5.417   4.805   5.799
    1ECLIP  C55 3515   5.433   4.856   5.589
    1ECLIP H55R 3516   5.469   4.752   5.576
    1ECLIP H55S 3517   5.522   4.923   5.587
    1ECLIP  C56 3518   5.342   4.891   5.470
    1ECLIP H56R 3519   5.304   4.995   5.480
    1ECLIP H56S 3520   5.252   4.824   5.472
    1ECLIP  C57 3521   5.413   4.882   5.335
    1ECLIP H57R 3522   5.441   4.776   5.315
    1ECLIP H57S 3523   5.506   4.943   5.344
    1ECLIP  C58 3524   5.327   4.938   5.223
    1ECLIP H58R 3525   5.231   4.882   5.220
    1ECLIP H58S 3526   5.303   5.043   5.247
    1ECLIP  C59 3527   5.391   4.931   5.084
    1ECLIP H59R 3528   5.416   4.825   5.059
    1ECLIP H59S 3529   5.485   4.991   5.082
    1ECLIP C510 3530   5.292   4.985   4.980
    1ECLIPH510R 3531   5.262   5.087   5.013
    1ECLIPH510S 3532   5.201   4.921   4.984
    1ECLIP C511 3533   5.341   4.990   4.837
    1ECLIPH511R 3534   5.421   5.067   4.827
    1ECLIPH511S 3535   5.385   4.891   4.809
    1ECLIP C512 3536   5.227   5.023   4.738
    1ECLIPH512R 3537   5.267   5.029   4.635
    1ECLIPH512S 3538   5.153   4.939   4.741
    1ECLIP C513 3539   5.153   5.154   4.770
    1ECLIPH513R 3540   5.227   5.237   4.766
    1ECLIPH513S 3541   5.113   5.150   4.873
    1ECLIP C514 3542   5.038   5.185   4.675
    1ECLIPH514R 3543   4.962   5.104   4.679
    1ECLIPH514S 3544   4.989   5.280   4.704
    1ECLIPH514T 3545   5.074   5.195   4.571
    1ECLIP  C33 3546   5.206   5.504   6.082
    1ECLIP H33R 3547   5.118   5.566   6.110
    1ECLIP  O33 3548   5.256   5.445   6.201
    1ECLIP HO33 3549   5.188   5.405   6.255
    1ECLIP  C34 3550   5.161   5.395   5.984
    1ECLIP H34R 3551   5.250   5.333   5.959
    1ECLIP H34S 3552   5.127   5.445   5.891
    1ECLIP  C35 3553   5.050   5.298   6.030
    1ECLIP H35R 3554   4.963   5.352   6.071
    1ECLIP H35S 3555   5.089   5.230   6.108
    1ECLIP  C36 3556   5.005   5.215   5.907
    1ECLIP H36R 3557   5.095   5.198   5.845
    1ECLIP H36S 3558   4.935   5.277   5.846
    1ECLIP  C37 3559   4.941   5.078   5.936
    1ECLIP H37R 3560   4.841   5.094   5.983
    1ECLIP H37S 3561   5.001   5.023   6.011
    1ECLIP  C38 3562   4.926   4.987   5.811
    1ECLIP H38R 3563   4.990   4.898   5.822
    1ECLIP H38S 3564   4.821   4.950   5.808
    1ECLIP  C39 3565   4.959   5.054   5.675
    1ECLIP H39R 3566   5.067   5.078   5.674
    1ECLIP H39S 3567   4.902   5.149   5.665
    1ECLIP C310 3568   4.931   4.968   5.551
    1ECLIPH310R 3569   4.822   4.947   5.546
    1ECLIPH310S 3570   4.985   4.871   5.563
    1ECLIP C311 3571   4.976   5.034   5.419
    1ECLIPH311R 3572   4.931   5.136   5.413
    1ECLIPH311S 3573   5.087   5.045   5.420
    1ECLIP C312 3574   4.936   4.955   5.295
    1ECLIPH312R 3575   4.985   4.855   5.300
    1ECLIPH312S 3576   4.826   4.940   5.296
    1ECLIP C313 3577   4.975   5.021   5.162
    1ECLIPH313R 3578   4.926   5.121   5.157
    1ECLIPH313S 3579   5.084   5.038   5.160
    1ECLIP C314 3580   4.932   4.942   5.038
    1ECLIPH314R 3581   4.821   4.932   5.036
    1ECLIPH314S 3582   4.964   4.993   4.945
    1ECLIPH314T 3583   4.977   4.840   5.040
    1ECLIP  C11 3584   5.725   5.284   5.743
    1ECLIP  O11 3585   5.670   5.177   5.726
    1ECLIP  C12 3586   5.823   5.337   5.641
    1ECLIP H12R 3587   5.921   5.289   5.660
    1ECLIP H12S 3588   5.834   5.447   5.651
    1ECLIP  C13 3589   5.777   5.303   5.497
    1ECLIP H13R 3590   5.759   5.194   5.487
    1ECLIP  O13 3591   5.883   5.339   5.410
    1ECLIP HO13 3592   5.864   5.320   5.318
    1ECLIP  C14 3593   5.651   5.380   5.454
    1ECLIP H14R 3594   5.660   5.484   5.492
    1ECLIP H14S 3595   5.566   5.333   5.507
    1ECLIP  C15 3596   5.624   5.390   5.302
    1ECLIP H15R 3597   5.706   5.450   5.257
    1ECLIP H15S 3598   5.531   5.449   5.286
    1ECLIP  C16 3599   5.610   5.257   5.226
    1ECLIP H16R 3600   5.507   5.218   5.241
    1ECLIP H16S 3601   5.680   5.181   5.266
    1ECLIP  C17 3602   5.636   5.274   5.075
    1ECLIP H17R 3603   5.588   5.368   5.039
    1ECLIP H17S 3604   5.590   5.190   5.018
    1ECLIP  C18 3605   5.787   5.279   5.042
    1ECLIP H18R 3606   5.835   5.346   5.116
    1ECLIP H18S 3607   5.831   5.178   5.056
    1ECLIP  C19 3608   5.822   5.335   4.903
    1ECLIP H19R 3609   5.932   5.352   4.903
    1ECLIP H19S 3610   5.773   5.433   4.888
    1ECLIP C110 3611   5.789   5.243   4.785
    1ECLIPH110R 3612   5.817   5.138   4.809
    1ECLIPH110S 3613   5.679   5.245   4.766
    1ECLIP C111 3614   5.866   5.287   4.660
    1ECLIPH111R 3615   5.849   5.395   4.642
    1ECLIPH111S 3616   5.975   5.272   4.677
    1ECLIP C112 3617   5.826   5.211   4.532
    1ECLIPH112R 3618   5.834   5.102   4.549
    1ECLIPH112S 3619   5.719   5.235   4.511
    1ECLIP C113 3620   5.911   5.250   4.411
    1ECLIPH113R 3621   5.913   5.361   4.403
    1ECLIPH113S 3622   6.016   5.217   4.429
    1ECLIP C114 3623   5.862   5.192   4.278
    1ECLIPH114R 3624   5.848   5.082   4.288
    1ECLIPH114S 3625   5.764   5.236   4.250
    1ECLIPH114T 3626   5.935   5.210   4.197
    2AKDO    C1 3627   5.229   4.987   6.828
    2AKDO   O11 3628   5.129   4.916   6.853
    2AKDO   O12 3629   5.230   5.107   6.786
    2AKDO    C2 3630   5.366   4.937   6.885
    2AKDO    C6 3631   5.494   4.767   6.997
    2AKDO    H6 3632   5.563   4.786   6.912
    2AKDO    O6 3633   5.363   4.807   6.950
    2AKDO    C3 3634   5.420   5.036   6.990
    2AKDO   H31 3635   5.348   5.039   7.075
    2AKDO   H32 3636   5.424   5.136   6.943
    2AKDO    C4 3637   5.553   4.999   7.043
    2AKDO    H4 3638   5.626   4.997   6.960
    2AKDO    O4 3639   5.592   5.095   7.142
    2AKDO    C5 3640   5.549   4.860   7.108
    2AKDO    H5 3641   5.656   4.832   7.120
    2AKDO    O5 3642   5.487   4.852   7.240
    2AKDO    C7 3643   5.504   4.616   7.014
    2AKDO    H7 3644   5.447   4.582   7.103
    2AKDO    O7 3645   5.643   4.579   7.023
    2AKDO   HO7 3646   5.642   4.502   6.965
    2AKDO    C8 3647   5.448   4.550   6.888
    2AKDO   H81 3648   5.338   4.566   6.884
    2AKDO   H82 3649   5.492   4.598   6.799
    2AKDO    O8 3650   5.473   4.409   6.875
    2AKDO   HO8 3651   5.440   4.392   6.787
    3AKDO    C1 3652   5.731   5.252   6.997
    3AKDO   O11 3653   5.757   5.374   6.974
    3AKDO   O12 3654   5.807   5.154   6.969
    3AKDO    C2 3655   5.623   5.229   7.109
    3AKDO    C6 3656   5.404   5.316   7.179
    3AKDO    H6 3657   5.364   5.213   7.193
    3AKDO    O6 3658   5.510   5.317   7.080
    3AKDO    C3 3659   5.677   5.271   7.247
    3AKDO   H31 3660   5.719   5.374   7.236
    3AKDO   H32 3661   5.762   5.205   7.273
    3AKDO    C4 3662   5.573   5.268   7.354
    3AKDO    H4 3663   5.530   5.167   7.365
    3AKDO    O4 3664   5.635   5.303   7.477
    3AKDO   HO4 3665   5.639   5.226   7.535
    3AKDO    C5 3666   5.459   5.362   7.315
    3AKDO    H5 3667   5.379   5.353   7.391
    3AKDO    O5 3668   5.500   5.500   7.309
    3AKDO   HO5 3669   5.569   5.503   7.243
    3AKDO    C7 3670   5.291   5.407   7.129
    3AKDO    H7 3671   5.334   5.508   7.115
    3AKDO    O7 3672   5.185   5.414   7.226
    3AKDO   HO7 3673   5.126   5.341   7.205
    3AKDO    C8 3674   5.234   5.360   6.997
    3AKDO   H81 3675   5.315   5.337   6.924
    3AKDO   H82 3676   5.175   5.267   7.010
    3AKDO    O8 3677   5.152   5.464   6.941
    3AKDO   HO8 3678   5.082   5.420   6.892
    4AHEP    C1 3679   5.549   4.761   7.330
    4AHEP    H1 3680   5.540   4.660   7.285
    4AHEP    C5 3681   5.717   4.907   7.415
    4AHEP    H5 3682   5.658   4.988   7.366
    4AHEP    O5 3683   5.691   4.786   7.342
    4AHEP    C2 3684   5.491   4.746   7.473
    4AHEP    H2 3685   5.381   4.740   7.458
    4AHEP    O2 3686   5.530   4.626   7.540
    4AHEP   HO2 3687   5.484   4.630   7.624
    4AHEP    C3 3688   5.518   4.868   7.561
    4AHEP    H3 3689   5.460   4.955   7.523
    4AHEP    O3 3690   5.485   4.838   7.701
    4AHEP    C4 3691   5.667   4.893   7.559
    4AHEP    H4 3692   5.720   4.808   7.608
    4AHEP    O4 3693   5.691   5.018   7.625
    4AHEP    P4 3694   5.794   5.034   7.752
    4AHEP  OP42 3695   5.767   5.170   7.811
    4AHEP  OP43 3696   5.936   5.025   7.698
    4AHEP  OP44 3697   5.771   4.919   7.848
    4AHEP    C6 3698   5.864   4.949   7.400
    4AHEP    H6 3699   5.873   5.055   7.434
    4AHEP    O6 3700   5.948   4.870   7.486
    4AHEP   HO6 3701   5.938   4.916   7.570
    4AHEP    C7 3702   5.916   4.941   7.257
    4AHEP   H71 3703   6.020   4.982   7.253
    4AHEP   H72 3704   5.852   5.006   7.193
    4AHEP    O7 3705   5.915   4.808   7.202
    4AHEP   HO7 3706   5.840   4.770   7.248
    5AHEP    C1 3707   5.412   4.935   7.776
    5AHEP    H1 3708   5.427   5.035   7.728
    5AHEP    C5 3709   5.239   4.780   7.844
    5AHEP    H5 3710   5.293   4.696   7.795
    5AHEP    O5 3711   5.272   4.904   7.778
    5AHEP    C2 3712   5.446   4.950   7.925
    5AHEP    H2 3713   5.553   4.977   7.934
    5AHEP    O2 3714   5.369   5.058   7.980
    5AHEP   HO2 3715   5.278   5.034   7.959
    5AHEP    C3 3716   5.422   4.820   8.004
    5AHEP    H3 3717   5.486   4.739   7.964
    5AHEP    O3 3718   5.443   4.840   8.145
    5AHEP    C4 3719   5.276   4.784   7.993
    5AHEP    H4 3720   5.212   4.858   8.047
    5AHEP    O4 3721   5.247   4.652   8.039
    5AHEP    P4 3722   5.281   4.577   8.181
    5AHEP  OP42 3723   5.427   4.533   8.177
    5AHEP  OP43 3724   5.192   4.454   8.189
    5AHEP  OP44 3725   5.258   4.674   8.296
    5AHEP    C6 3726   5.088   4.763   7.821
    5AHEP    H6 3727   5.052   4.678   7.884
    5AHEP    O6 3728   5.015   4.881   7.859
    5AHEP   HO6 3729   4.925   4.865   7.832
    5AHEP    C7 3730   5.060   4.729   7.675
    5AHEP   H71 3731   4.974   4.659   7.681
    5AHEP   H72 3732   5.143   4.671   7.629
    5AHEP    O7 3733   5.018   4.837   7.589
    6AHEP    C1 3734   5.127   4.905   7.530
    6AHEP    H1 3735   5.223   4.863   7.565
    6AHEP    C5 3736   5.020   4.942   7.318
    6AHEP    H5 3737   4.929   4.892   7.358
    6AHEP    O5 3738   5.132   4.886   7.388
    6AHEP    C2 3739   5.119   5.052   7.568
    6AHEP    H2 3740   5.106   5.059   7.677
    6AHEP    O2 3741   5.238   5.125   7.535
    6AHEP   HO2 3742   5.208   5.216   7.530
    6AHEP    C3 3743   4.999   5.113   7.500
    6AHEP    H3 3744   4.908   5.061   7.537
    6AHEP    O3 3745   4.987   5.253   7.535
    6AHEP   HO3 3746   4.895   5.279   7.524
    6AHEP    C4 3747   5.011   5.090   7.351
    6AHEP    H4 3748   5.105   5.139   7.316
    6AHEP    O4 3749   4.905   5.150   7.278
    6AHEP   HO4 3750   4.823   5.103   7.288
    6AHEP    C6 3751   5.023   4.915   7.167
    6AHEP    H6 3752   4.922   4.935   7.127
    6AHEP    O6 3753   5.111   5.008   7.103
    6AHEP   HO6 3754   5.112   4.981   7.011
    6AHEP    C7 3755   5.061   4.773   7.129
    6AHEP   H71 3756   5.045   4.756   7.020
    6AHEP   H72 3757   4.992   4.704   7.183
    6AHEP    O7 3758   5.195   4.734   7.162
    6AHEP   HO7 3759   5.249   4.783   7.101
    7AGLC    C1 3760   5.571   4.819   8.198
    7AGLC    H1 3761   5.616   4.727   8.155
    7AGLC    C5 3762   5.597   5.055   8.226
    7AGLC    H5 3763   5.494   5.066   8.186
    7AGLC    O5 3764   5.655   4.933   8.176
    7AGLC    C2 3765   5.560   4.806   8.351
    7AGLC    H2 3766   5.664   4.804   8.388
    7AGLC    O2 3767   5.504   4.684   8.399
    7AGLC   HO2 3768   5.418   4.675   8.355
    7AGLC    C3 3769   5.491   4.927   8.412
    7AGLC    H3 3770   5.394   4.939   8.360
    7AGLC    O3 3771   5.466   4.911   8.556
    7AGLC    C4 3772   5.582   5.044   8.378
    7AGLC    H4 3773   5.684   5.021   8.417
    7AGLC    O4 3774   5.542   5.166   8.438
    7AGLC   HO4 3775   5.578   5.170   8.528
    7AGLC    C6 3776   5.677   5.172   8.174
    7AGLC   H61 3777   5.722   5.145   8.075
    7AGLC   H62 3778   5.608   5.257   8.155
    7AGLC    O6 3779   5.778   5.216   8.266
    7AGLC   HO6 3780   5.732   5.231   8.348
    8AGLC    C1 3781   5.331   4.936   8.594
    8AGLC    H1 3782   5.291   5.022   8.536
    8AGLC    C5 3783   5.267   4.705   8.637
    8AGLC    H5 3784   5.370   4.672   8.613
    8AGLC    O5 3785   5.241   4.827   8.566
    8AGLC    C2 3786   5.323   4.963   8.742
    8AGLC    H2 3787   5.219   4.993   8.767
    8AGLC    O2 3788   5.412   5.067   8.785
    8AGLC    C3 3789   5.357   4.839   8.823
    8AGLC    H3 3790   5.457   4.805   8.789
    8AGLC    O3 3791   5.371   4.873   8.964
    8AGLC    C4 3792   5.258   4.730   8.788
    8AGLC    H4 3793   5.155   4.764   8.811
    8AGLC    O4 3794   5.285   4.610   8.858
    8AGLC   HO4 3795   5.234   4.545   8.809
    8AGLC    C6 3796   5.171   4.599   8.582
    8AGLC   H61 3797   5.110   4.644   8.500
    8AGLC   H62 3798   5.230   4.518   8.533
    8AGLC    O6 3799   5.083   4.541   8.679
    8AGLC   HO6 3800   4.994   4.549   8.644
    9AGAL    C1 3801   5.387   5.193   8.729
    9AGAL    H1 3802   5.377   5.189   8.618
    9AGAL    C5 3803   5.269   5.263   8.922
    9AGAL    H5 3804   5.298   5.164   8.964
    9AGAL    O5 3805   5.265   5.250   8.780
    9AGAL    C2 3806   5.505   5.281   8.763
    9AGAL    H2 3807   5.491   5.378   8.710
    9AGAL    O2 3808   5.620   5.213   8.707
    9AGAL    C3 3809   5.510   5.305   8.912
    9AGAL    H3 3810   5.527   5.209   8.965
    9AGAL    O3 3811   5.616   5.397   8.943
    9AGAL   HO3 3812   5.638   5.435   8.858
    9AGAL    C4 3813   5.378   5.362   8.962
    9AGAL    H4 3814   5.381   5.371   9.071
    9AGAL    O4 3815   5.351   5.491   8.906
    9AGAL   HO4 3816   5.259   5.487   8.878
    9AGAL    C6 3817   5.130   5.287   8.977
    9AGAL   H61 3818   5.060   5.223   8.920
    9AGAL   H62 3819   5.127   5.252   9.082
    9AGAL    O6 3820   5.087   5.423   8.972
    9AGAL   HO6 3821   5.010   5.423   8.915
   10AGAL    C1 3822   5.747   5.199   8.770
   10AGAL    H1 3823   5.789   5.301   8.787
   10AGAL    C5 3824   5.711   4.994   8.887
   10AGAL    H5 3825   5.613   4.982   8.837
   10AGAL    O5 3826   5.743   5.134   8.898
   10AGAL    C2 3827   5.847   5.130   8.679
   10AGAL    H2 3828   5.948   5.139   8.726
   10AGAL    O2 3829   5.852   5.198   8.554
   10AGAL   HO2 3830   5.927   5.171   8.500
   10AGAL    C3 3831   5.814   4.982   8.663
   10AGAL    H3 3832   5.713   4.970   8.618
   10AGAL    O3 3833   5.911   4.915   8.583
   10AGAL   HO3 3834   5.896   4.926   8.488
   10AGAL    C4 3835   5.811   4.918   8.801
   10AGAL    H4 3836   5.775   4.814   8.788
   10AGAL    O4 3837   5.941   4.912   8.859
   10AGAL   HO4 3838   5.998   4.899   8.782
   10AGAL    C6 3839   5.696   4.937   9.028
   10AGAL   H61 3840   5.602   4.976   9.072
   10AGAL   H62 3841   5.686   4.826   9.023
   10AGAL    O6 3842   5.805   4.971   9.113
   10AGAL   HO6 3843   5.885   4.948   9.066
   11BGLC    C1 3844   5.263   4.857   9.054
   11BGLC    H1 3845   5.229   4.752   9.058
   11BGLC    C5 3846   5.049   4.937   9.123
   11BGLC    H5 3847   5.018   4.830   9.130
   11BGLC    O5 3848   5.154   4.946   9.025
   11BGLC    C2 3849   5.323   4.899   9.188
   11BGLC    H2 3850   5.359   5.004   9.176
   11BGLC    O2 3851   5.436   4.819   9.223
   11BGLC   HO2 3852   5.461   4.770   9.145
   11BGLC    C3 3853   5.220   4.895   9.297
   11BGLC    H3 3854   5.187   4.791   9.319
   11BGLC    O3 3855   5.273   4.960   9.413
   11BGLC    C4 3856   5.105   4.982   9.256
   11BGLC    H4 3857   5.144   5.085   9.242
   11BGLC    O4 3858   5.004   4.990   9.356
   11BGLC   HO4 3859   4.992   5.083   9.378
   11BGLC    C6 3860   4.924   5.018   9.091
   11BGLC   H61 3861   4.838   4.978   9.149
   11BGLC   H62 3862   4.942   5.122   9.125
   11BGLC    O6 3863   4.889   5.024   8.954
   11BGLC   HO6 3864   4.864   4.938   8.919
   12BGLCN   C1 3865   5.279   4.891   9.535
   12BGLCN   H1 3866   5.372   4.830   9.536
   12BGLCN   C5 3867   5.174   4.746   9.690
   12BGLCN   H5 3868   5.265   4.683   9.694
   12BGLCN   O5 3869   5.165   4.809   9.561
   12BGLCN   C2 3870   5.285   5.005   9.636
   12BGLCN   H2 3871   5.186   5.054   9.632
   12BGLCN    N 3872   5.385   5.103   9.594
   12BGLCN   HN 3873   5.461   5.068   9.542
   12BGLCN    C 3874   5.364   5.236   9.596
   12BGLCN    O 3875   5.272   5.288   9.657
   12BGLCN   CT 3876   5.463   5.320   9.519
   12BGLCN  HT1 3877   5.498   5.403   9.583
   12BGLCN  HT2 3878   5.412   5.362   9.431
   12BGLCN  HT3 3879   5.549   5.259   9.487
   12BGLCN   C3 3880   5.302   4.946   9.775
   12BGLCN   H3 3881   5.396   4.888   9.778
   12BGLCN   O3 3882   5.304   5.050   9.877
   12BGLCN   C4 3883   5.183   4.853   9.799
   12BGLCN   H4 3884   5.090   4.914   9.795
   12BGLCN   O4 3885   5.190   4.791   9.927
   12BGLCN  HO4 3886   5.178   4.696   9.918
   12BGLCN   C6 3887   5.051   4.657   9.701
   12BGLCN  H61 3888   5.036   4.623   9.806
   12BGLCN  H62 3889   4.960   4.714   9.671
   12BGLCN   O6 3890   5.062   4.540   9.620
   12BGLCN  HO6 3891   5.061   4.566   9.528
   13AGAL    C1 3892   5.396   5.028   9.983
   13AGAL    H1 3893   5.395   4.921  10.012
   13AGAL    C5 3894   5.538   5.206   9.906
   13AGAL    H5 3895   5.460   5.225   9.830
   13AGAL    O5 3896   5.530   5.066   9.943
   13AGAL    C2 3897   5.365   5.113  10.105
   13AGAL    H2 3898   5.450   5.097  10.174
   13AGAL    O2 3899   5.246   5.068  10.174
   13AGAL    C3 3900   5.365   5.260  10.070
   13AGAL    H3 3901   5.294   5.277   9.986
   13AGAL    O3 3902   5.322   5.342  10.179
   13AGAL   HO3 3903   5.228   5.360  10.170
   13AGAL    C4 3904   5.505   5.298  10.023
   13AGAL    H4 3905   5.503   5.403   9.987
   13AGAL    O4 3906   5.603   5.290  10.127
   13AGAL   HO4 3907   5.642   5.202  10.122
   13AGAL    C6 3908   5.671   5.234   9.837
   13AGAL   H61 3909   5.686   5.159   9.755
   13AGAL   H62 3910   5.666   5.334   9.789
   13AGAL    O6 3911   5.784   5.230   9.924
   13AGAL   HO6 3912   5.775   5.301   9.987
   14ARHM    C1 3913   5.268   5.004  10.297
   14ARHM    H1 3914   5.364   4.949  10.294
   14ARHM    C5 3915   5.039   4.960  10.344
   14ARHM    H5 3916   5.005   5.007  10.248
   14ARHM    O5 3917   5.170   4.905  10.325
   14ARHM    C2 3918   5.273   5.109  10.406
   14ARHM    H2 3919   5.348   5.185  10.379
   14ARHM    O2 3920   5.302   5.061  10.539
   14ARHM    C3 3921   5.136   5.173  10.417
   14ARHM    H3 3922   5.107   5.214  10.318
   14ARHM    O3 3923   5.135   5.283  10.509
   14ARHM   HO3 3924   5.184   5.261  10.589
   14ARHM    C4 3925   5.037   5.064  10.454
   14ARHM    H4 3926   5.071   5.014  10.547
   14ARHM    O4 3927   4.906   5.113  10.479
   14ARHM   HO4 3928   4.911   5.167  10.559
   14ARHM    C6 3929   4.951   4.839  10.372
   14ARHM   H61 3930   4.952   4.771  10.285
   14ARHM   H62 3931   4.989   4.783  10.460
   14ARHM   H63 3932   4.846   4.871  10.392
   15ARHM    C1 3933   5.416   4.982  10.559
   15ARHM    H1 3934   5.497   5.011  10.490
   15ARHM    C5 3935   5.290   4.793  10.641
   15ARHM    H5 3936   5.193   4.843  10.620
   15ARHM    O5 3937   5.389   4.841  10.549
   15ARHM    C2 3938   5.459   5.013  10.701
   15ARHM    H2 3939   5.475   5.123  10.709
   15ARHM    O2 3940   5.584   4.946  10.724
   15ARHM    C3 3941   5.349   4.972  10.796
   15ARHM    H3 3942   5.255   5.019  10.762
   15ARHM    O3 3943   5.376   5.023  10.927
   15ARHM    C4 3944   5.332   4.822  10.785
   15ARHM    H4 3945   5.429   4.771  10.802
   15ARHM    O4 3946   5.239   4.770  10.881
   15ARHM   HO4 3947   5.192   4.695  10.844
   15ARHM    C6 3948   5.272   4.643  10.610
   15ARHM   H61 3949   5.194   4.597  10.674
   15ARHM   H62 3950   5.241   4.630  10.504
   15ARHM   H63 3951   5.367   4.588  10.627
   16BMANN   C1 3952   5.641   4.959  10.852
   16BMANN   H1 3953   5.582   4.902  10.925
   16BMANN   C5 3954   5.709   5.109  11.023
   16BMANN   H5 3955   5.648   5.052  11.095
   16BMANN   O5 3956   5.652   5.097  10.891
   16BMANN   C2 3957   5.779   4.900  10.840
   16BMANN   H2 3958   5.765   4.793  10.816
   16BMANN    N 3959   5.853   4.963  10.731
   16BMANN   HN 3960   5.840   5.061  10.720
   16BMANN    C 3961   5.924   4.896  10.639
   16BMANN    O 3962   5.941   4.775  10.643
   16BMANN   CT 3963   5.981   4.978  10.528
   16BMANN  HT1 3964   6.066   4.924  10.481
   16BMANN  HT2 3965   6.014   5.077  10.564
   16BMANN  HT3 3966   5.903   4.992  10.450
   16BMANN   C3 3967   5.845   4.909  10.977
   16BMANN   H3 3968   5.783   4.852  11.048
   16BMANN   O3 3969   5.974   4.848  10.974
   16BMANN  HO3 3970   5.983   4.788  11.048
   16BMANN   C4 3971   5.851   5.053  11.023
   16BMANN   H4 3972   5.914   5.112  10.953
   16BMANN   O4 3973   5.909   5.064  11.154
   16BMANN  HO4 3974   6.003   5.045  11.147
   16BMANN   C6 3975   5.701   5.256  11.061
   16BMANN  H61 3976   5.740   5.270  11.165
   16BMANN  H62 3977   5.763   5.316  10.991
   16BMANN   O6 3978   5.566   5.303  11.055
   16BMANN  HO6 3979   5.527   5.269  10.975
   17BGLCN   C1 3980   5.260   5.062  10.996
   17BGLCN   H1 3981   5.174   4.998  10.967
   17BGLCN   C5 3982   5.109   5.237  11.044
   17BGLCN   H5 3983   5.026   5.173  11.009
   17BGLCN   O5 3984   5.229   5.200  10.975
   17BGLCN   C2 3985   5.289   5.039  11.142
   17BGLCN   H2 3986   5.369   5.109  11.173
   17BGLCN    N 3987   5.341   4.903  11.158
   17BGLCN   HN 3988   5.312   4.840  11.086
   17BGLCN    C 3989   5.427   4.861  11.252
   17BGLCN    O 3990   5.476   4.933  11.339
   17BGLCN   CT 3991   5.462   4.715  11.245
   17BGLCN  HT1 3992   5.539   4.699  11.165
   17BGLCN  HT2 3993   5.372   4.655  11.220
   17BGLCN  HT3 3994   5.502   4.683  11.342
   17BGLCN   C3 3995   5.163   5.071  11.220
   17BGLCN   H3 3996   5.082   5.008  11.177
   17BGLCN   O3 3997   5.179   5.036  11.360
   17BGLCN   C4 3998   5.126   5.216  11.194
   17BGLCN   H4 3999   5.208   5.281  11.231
   17BGLCN   O4 4000   5.006   5.252  11.262
   17BGLCN  HO4 4001   5.004   5.347  11.281
   17BGLCN   C6 4002   5.073   5.380  11.006
   17BGLCN  H61 4003   4.983   5.412  11.064
   17BGLCN  H62 4004   5.156   5.449  11.033
   17BGLCN   O6 4005   5.041   5.395  10.868
   17BGLCN  HO6 4006   5.120   5.381  10.815
   18AGAL    C1 4007   5.060   5.000  11.429
   18AGAL    H1 4008   4.995   5.088  11.443
   18AGAL    C5 4009   5.062   4.776  11.343
   18AGAL    H5 4010   5.159   4.804  11.298
   18AGAL    O5 4011   4.986   4.898  11.360
   18AGAL    C2 4012   5.095   4.948  11.569
   18AGAL    H2 4013   4.997   4.924  11.617
   18AGAL    O2 4014   5.160   5.049  11.649
   18AGAL    C3 4015   5.175   4.819  11.557
   18AGAL    H3 4016   5.268   4.844  11.502
   18AGAL    O3 4017   5.214   4.766  11.683
   18AGAL   HO3 4018   5.301   4.726  11.676
   18AGAL    C4 4019   5.096   4.716  11.478
   18AGAL    H4 4020   5.161   4.628  11.463
   18AGAL    O4 4021   4.980   4.672  11.548
   18AGAL   HO4 4022   5.000   4.676  11.641
   18AGAL    C6 4023   5.002   4.676  11.243
   18AGAL   H61 4024   5.060   4.683  11.148
   18AGAL   H62 4025   5.014   4.572  11.281
   18AGAL    O6 4026   4.866   4.699  11.210
   18AGAL   HO6 4027   4.811   4.686  11.287
   19ARHM    C1 4028   5.133   5.042  11.788
   19ARHM    H1 4029   5.121   4.937  11.821
   19ARHM    C5 4030   5.015   5.249  11.794
   19ARHM    H5 4031   5.035   5.262  11.686
   19ARHM    O5 4032   5.011   5.109  11.825
   19ARHM    C2 4033   5.249   5.105  11.863
   19ARHM    H2 4034   5.342   5.062  11.821
   19ARHM    O2 4035   5.248   5.079  12.006
   19ARHM    C3 4036   5.257   5.253  11.838
   19ARHM    H3 4037   5.276   5.270  11.729
   19ARHM    O3 4038   5.367   5.311  11.908
   19ARHM   HO3 4039   5.352   5.297  12.002
   19ARHM    C4 4040   5.125   5.317  11.874
   19ARHM    H4 4041   5.105   5.298  11.982
   19ARHM    O4 4042   5.124   5.458  11.856
   19ARHM   HO4 4043   5.152   5.476  11.766
   19ARHM    C6 4044   4.874   5.300  11.822
   19ARHM   H61 4045   4.801   5.247  11.759
   19ARHM   H62 4046   4.846   5.283  11.929
   19ARHM   H63 4047   4.867   5.409  11.802
   20ARHM    C1 4048   5.283   4.947  12.038
   20ARHM    H1 4049   5.351   4.905  11.961
   20ARHM    C5 4050   5.076   4.902  12.148
   20ARHM    H5 4051   5.043   5.006  12.128
   20ARHM    O5 4052   5.168   4.861  12.047
   20ARHM    C2 4053   5.354   4.945  12.172
   20ARHM    H2 4054   5.436   5.021  12.169
   20ARHM    O2 4055   5.412   4.817  12.201
   20ARHM    C3 4056   5.262   4.986  12.284
   20ARHM    H3 4057   5.230   5.091  12.269
   20ARHM    O3 4058   5.333   4.973  12.408
   20ARHM    C4 4059   5.142   4.895  12.284
   20ARHM    H4 4060   5.177   4.790  12.301
   20ARHM    O4 4061   5.050   4.929  12.388
   20ARHM   HO4 4062   4.974   4.870  12.381
   20ARHM    C6 4063   4.954   4.809  12.134
   20ARHM   H61 4064   4.984   4.703  12.148
   20ARHM   H62 4065   4.876   4.837  12.207
   20ARHM   H63 4066   4.911   4.819  12.031
   21BMANN   C1 4067   5.522   4.783  12.120
   21BMANN   H1 4068   5.563   4.873  12.071
   21BMANN   C5 4069   5.592   4.649  11.936
   21BMANN   H5 4070   5.630   4.740  11.884
   21BMANN   O5 4071   5.483   4.686  12.023
   21BMANN   C2 4072   5.627   4.723  12.211
   21BMANN   H2 4073   5.659   4.807  12.276
   21BMANN    N 4074   5.575   4.617  12.297
   21BMANN   HN 4075   5.511   4.553  12.256
   21BMANN    C 4076   5.605   4.606  12.429
   21BMANN    O 4077   5.685   4.680  12.484
   21BMANN   CT 4078   5.535   4.497  12.505
   21BMANN  HT1 4079   5.601   4.408  12.512
   21BMANN  HT2 4080   5.440   4.469  12.453
   21BMANN  HT3 4081   5.512   4.534  12.606
   21BMANN   C3 4082   5.747   4.684  12.127
   21BMANN   H3 4083   5.789   4.774  12.079
   21BMANN   O3 4084   5.849   4.626  12.210
   21BMANN  HO3 4085   5.892   4.694  12.262
   21BMANN   C4 4086   5.704   4.587  12.019
   21BMANN   H4 4087   5.664   4.494  12.064
   21BMANN   O4 4088   5.811   4.554  11.932
   21BMANN  HO4 4089   5.866   4.486  11.972
   21BMANN   C6 4090   5.540   4.553  11.832
   21BMANN  H61 4091   5.617   4.533  11.755
   21BMANN  H62 4092   5.516   4.456  11.883
   21BMANN   O6 4093   5.422   4.602  11.769
   21BMANN  HO6 4094   5.354   4.611  11.835
   22BGLCN   C1 4095   5.309   5.069  12.506
   22BGLCN   H1 4096   5.206   5.110  12.498
   22BGLCN   C5 4097   5.396   5.266  12.604
   22BGLCN   H5 4098   5.294   5.310  12.602
   22BGLCN   O5 4099   5.408   5.171  12.498
   22BGLCN   C2 4100   5.327   4.993  12.635
   22BGLCN   H2 4101   5.431   4.952  12.634
   22BGLCN    N 4102   5.234   4.881  12.641
   22BGLCN   HN 4103   5.146   4.896  12.595
   22BGLCN    C 4104   5.262   4.761  12.693
   22BGLCN    O 4105   5.372   4.732  12.739
   22BGLCN   CT 4106   5.150   4.661  12.691
   22BGLCN  HT1 4107   5.152   4.605  12.595
   22BGLCN  HT2 4108   5.052   4.712  12.701
   22BGLCN  HT3 4109   5.163   4.590  12.776
   22BGLCN   C3 4110   5.315   5.087  12.755
   22BGLCN   H3 4111   5.213   5.131  12.755
   22BGLCN   O3 4112   5.334   5.005  12.873
   22BGLCN   C4 4113   5.418   5.197  12.738
   22BGLCN   H4 4114   5.519   5.152  12.741
   22BGLCN   O4 4115   5.408   5.295  12.842
   22BGLCN  HO4 4116   5.494   5.331  12.863
   22BGLCN   C6 4117   5.496   5.376  12.575
   22BGLCN  H61 4118   5.490   5.452  12.655
   22BGLCN  H62 4119   5.599   5.335  12.575
   22BGLCN   O6 4120   5.471   5.441  12.450
   22BGLCN  HO6 4121   5.512   5.390  12.380
   23AGAL    C1 4122   5.302   5.057  12.999
   23AGAL    H1 4123   5.374   5.137  13.026
   23AGAL    C5 4124   5.070   5.010  12.977
   23AGAL    H5 4125   5.092   4.966  12.877
   23AGAL    O5 4126   5.169   5.110  13.005
   23AGAL    C2 4127   5.314   4.948  13.104
   23AGAL    H2 4128   5.286   4.994  13.201
   23AGAL    O2 4129   5.447   4.895  13.114
   23AGAL    C3 4130   5.214   4.837  13.076
   23AGAL    H3 4131   5.236   4.794  12.977
   23AGAL    O3 4132   5.224   4.732  13.172
   23AGAL   HO3 4133   5.160   4.752  13.241
   23AGAL    C4 4134   5.075   4.896  13.078
   23AGAL    H4 4135   5.002   4.818  13.047
   23AGAL    O4 4136   5.038   4.939  13.210
   23AGAL   HO4 4137   4.976   5.011  13.194
   23AGAL    C6 4138   4.935   5.079  12.964
   23AGAL   H61 4139   4.948   5.169  12.899
   23AGAL   H62 4140   4.865   5.011  12.911
   23AGAL    O6 4141   4.876   5.119  13.088
   23AGAL   HO6 4142   4.781   5.121  13.078
   24ARHM    C1 4143   5.530   4.956  13.210
   24ARHM    H1 4144   5.505   5.064  13.214
   24ARHM    C5 4145   5.715   4.815  13.165
   24ARHM    H5 4146   5.653   4.757  13.092
   24ARHM    O5 4147   5.668   4.950  13.172
   24ARHM    C2 4148   5.509   4.893  13.345
   24ARHM    H2 4149   5.400   4.890  13.368
   24ARHM    O2 4150   5.577   4.967  13.449
   24ARHM    C3 4151   5.558   4.750  13.345
   24ARHM    H3 4152   5.499   4.693  13.269
   24ARHM    O3 4153   5.539   4.687  13.471
   24ARHM   HO3 4154   5.587   4.604  13.467
   24ARHM    C4 4155   5.703   4.750  13.302
   24ARHM    H4 4156   5.761   4.812  13.374
   24ARHM    O4 4157   5.760   4.619  13.305
   24ARHM   HO4 4158   5.841   4.623  13.357
   24ARHM    C6 4159   5.858   4.824  13.109
   24ARHM   H61 4160   5.903   4.723  13.099
   24ARHM   H62 4161   5.855   4.870  13.008
   24ARHM   H63 4162   5.922   4.887  13.173
   25ARHM    C1 4163   5.504   5.077  13.496
   25ARHM    H1 4164   5.424   5.103  13.423
   25ARHM    C5 4165   5.685   5.184  13.606
   25ARHM    H5 4166   5.751   5.099  13.582
   25ARHM    O5 4167   5.584   5.196  13.506
   25ARHM    C2 4168   5.438   5.042  13.627
   25ARHM    H2 4169   5.389   4.943  13.618
   25ARHM    O2 4170   5.340   5.140  13.665
   25ARHM    C3 4171   5.543   5.029  13.735
   25ARHM    H3 4172   5.612   4.946  13.708
   25ARHM    O3 4173   5.477   4.997  13.859
   25ARHM    C4 4174   5.620   5.159  13.742
   25ARHM    H4 4175   5.547   5.241  13.762
   25ARHM    O4 4176   5.716   5.162  13.849
   25ARHM   HO4 4177   5.712   5.250  13.887
   25ARHM    C6 4178   5.768   5.313  13.597
   25ARHM   H61 4179   5.813   5.322  13.496
   25ARHM   H62 4180   5.704   5.402  13.613
   25ARHM   H63 4181   5.850   5.314  13.672
   26BMANN   C1 4182   5.216   5.127  13.599
   26BMANN   H1 4183   5.207   5.029  13.548
   26BMANN   C5 4184   5.067   5.223  13.440
   26BMANN   H5 4185   5.063   5.126  13.387
   26BMANN   O5 4186   5.195   5.233  13.505
   26BMANN   C2 4187   5.112   5.140  13.707
   26BMANN   H2 4188   5.130   5.057  13.780
   26BMANN    N 4189   5.127   5.267  13.776
   26BMANN   HN 4190   5.159   5.341  13.720
   26BMANN    C 4191   5.103   5.287  13.906
   26BMANN    O 4192   5.067   5.198  13.982
   26BMANN   CT 4193   5.127   5.427  13.957
   26BMANN  HT1 4194   5.141   5.497  13.870
   26BMANN  HT2 4195   5.218   5.428  14.019
   26BMANN  HT3 4196   5.039   5.460  14.016
   26BMANN   C3 4197   4.976   5.119  13.644
   26BMANN   H3 4198   4.976   5.021  13.590
   26BMANN   O3 4199   4.873   5.113  13.741
   26BMANN  HO3 4200   4.877   5.028  13.786
   26BMANN   C4 4201   4.953   5.229  13.541
   26BMANN   H4 4202   4.951   5.327  13.592
   26BMANN   O4 4203   4.829   5.212  13.474
   26BMANN  HO4 4204   4.773   5.151  13.523
   26BMANN   C6 4205   5.058   5.332  13.335
   26BMANN  H61 4206   5.152   5.334  13.276
   26BMANN  H62 4207   4.975   5.309  13.265
   26BMANN   O6 4208   5.035   5.462  13.391
   26BMANN  HO6 4209   4.942   5.471  13.409
   27BGLCN   C1 4210   5.543   4.905  13.941
   27BGLCN   H1 4211   5.653   4.920  13.936
   27BGLCN   C5 4212   5.569   4.673  13.991
   27BGLCN   H5 4213   5.680   4.684  13.984
   27BGLCN   O5 4214   5.507   4.771  13.905
   27BGLCN   C2 4215   5.492   4.932  14.082
   27BGLCN   H2 4216   5.383   4.909  14.082
   27BGLCN    N 4217   5.506   5.073  14.116
   27BGLCN   HN 4218   5.579   5.123  14.071
   27BGLCN    C 4219   5.423   5.141  14.197
   27BGLCN    O 4220   5.329   5.089  14.258
   27BGLCN   CT 4221   5.451   5.288  14.213
   27BGLCN  HT1 4222   5.517   5.324  14.131
   27BGLCN  HT2 4223   5.499   5.307  14.311
   27BGLCN  HT3 4224   5.355   5.344  14.208
   27BGLCN   C3 4225   5.560   4.837  14.179
   27BGLCN   H3 4226   5.669   4.851  14.168
   27BGLCN   O3 4227   5.519   4.873  14.311
   27BGLCN   C4 4228   5.526   4.695  14.135
   27BGLCN   H4 4229   5.416   4.681  14.142
   27BGLCN   O4 4230   5.588   4.597  14.218
   27BGLCN  HO4 4231   5.683   4.606  14.213
   27BGLCN   C6 4232   5.532   4.536  13.937
   27BGLCN  H61 4233   5.571   4.457  14.005
   27BGLCN  H62 4234   5.422   4.525  13.934
   27BGLCN   O6 4235   5.586   4.515  13.807
   27BGLCN  HO6 4236   5.552   4.583  13.748
   28AGAL    C1 4237   5.590   4.819  14.420
   28AGAL    H1 4238   5.563   4.712  14.432
   28AGAL    C5 4239   5.775   4.970  14.398
   28AGAL    H5 4240   5.723   5.018  14.312
   28AGAL    O5 4241   5.733   4.832  14.406
   28AGAL    C2 4242   5.553   4.890  14.549
   28AGAL    H2 4243   5.623   4.847  14.623
   28AGAL    O2 4244   5.418   4.863  14.593
   28AGAL    C3 4245   5.585   5.038  14.539
   28AGAL    H3 4246   5.537   5.078  14.448
   28AGAL    O3 4247   5.534   5.113  14.649
   28AGAL   HO3 4248   5.441   5.127  14.630
   28AGAL    C4 4249   5.736   5.051  14.522
   28AGAL    H4 4250   5.758   5.158  14.501
   28AGAL    O4 4251   5.809   5.015  14.639
   28AGAL   HO4 4252   5.867   5.088  14.658
   28AGAL    C6 4253   5.924   4.974  14.363
   28AGAL   H61 4254   5.938   4.934  14.260
   28AGAL   H62 4255   5.958   5.079  14.363
   28AGAL    O6 4256   6.006   4.899  14.453
   28AGAL   HO6 4257   5.989   4.805  14.445
   29ARHM    C1 4258   5.413   4.819  14.727
   29ARHM    H1 4259   5.504   4.852  14.781
   29ARHM    C5 4260   5.282   4.625  14.677
   29ARHM    H5 4261   5.279   4.654  14.569
   29ARHM    O5 4262   5.404   4.675  14.735
   29ARHM    C2 4263   5.297   4.882  14.800
   29ARHM    H2 4264   5.302   4.992  14.783
   29ARHM    O2 4265   5.307   4.854  14.941
   29ARHM    C3 4266   5.166   4.835  14.741
   29ARHM    H3 4267   5.162   4.866  14.635
   29ARHM    O3 4268   5.055   4.893  14.809
   29ARHM   HO3 4269   4.977   4.845  14.778
   29ARHM    C4 4270   5.162   4.684  14.749
   29ARHM    H4 4271   5.169   4.654  14.856
   29ARHM    O4 4272   5.038   4.631  14.700
   29ARHM   HO4 4273   5.032   4.639  14.604
   29ARHM    C6 4274   5.288   4.471  14.684
   29ARHM   H61 4275   5.381   4.433  14.639
   29ARHM   H62 4276   5.280   4.437  14.790
   29ARHM   H63 4277   5.202   4.427  14.629
   30ARHM    C1 4278   5.364   4.958  15.017
   30ARHM    H1 4279   5.315   5.054  14.990
   30ARHM    C5 4280   5.581   4.854  15.033
   30ARHM    H5 4281   5.543   4.766  14.976
   30ARHM    O5 4282   5.506   4.971  14.994
   30ARHM    C2 4283   5.340   4.931  15.164
   30ARHM    H2 4284   5.232   4.913  15.179
   30ARHM    O2 4285   5.383   5.043  15.243
   30ARHM    C3 4286   5.415   4.807  15.209
   30ARHM    H3 4287   5.381   4.723  15.144
   30ARHM    O3 4288   5.377   4.770  15.343
   30ARHM    C4 4289   5.564   4.825  15.181
   30ARHM    H4 4290   5.601   4.913  15.238
   30ARHM    O4 4291   5.642   4.712  15.219
   30ARHM   HO4 4292   5.641   4.645  15.149
   30ARHM    C6 4293   5.727   4.879  14.991
   30ARHM   H61 4294   5.789   4.788  15.008
   30ARHM   H62 4295   5.732   4.904  14.883
   30ARHM   H63 4296   5.770   4.962  15.050
   31BMANN   C1 4297   5.287   5.144  15.265
   31BMANN   H1 4298   5.187   5.100  15.284
   31BMANN   C5 4299   5.189   5.344  15.178
   31BMANN   H5 4300   5.089   5.300  15.198
   31BMANN   O5 4301   5.283   5.237  15.156
   31BMANN   C2 4302   5.337   5.219  15.387
   31BMANN   H2 4303   5.331   5.147  15.472
   31BMANN    N 4304   5.475   5.262  15.374
   31BMANN   HN 4305   5.506   5.289  15.283
   31BMANN    C 4306   5.564   5.264  15.474
   31BMANN    O 4307   5.538   5.221  15.586
   31BMANN   CT 4308   5.701   5.318  15.442
   31BMANN  HT1 4309   5.691   5.408  15.377
   31BMANN  HT2 4310   5.760   5.241  15.388
   31BMANN  HT3 4311   5.753   5.346  15.536
   31BMANN   C3 4312   5.240   5.331  15.418
   31BMANN   H3 4313   5.139   5.286  15.430
   31BMANN   O3 4314   5.269   5.396  15.541
   31BMANN  HO3 4315   5.357   5.435  15.535
   31BMANN   C4 4316   5.231   5.426  15.300
   31BMANN   H4 4317   5.331   5.471  15.280
   31BMANN   O4 4318   5.139   5.532  15.325
   31BMANN  HO4 4319   5.154   5.562  15.415
   31BMANN   C6 4320   5.176   5.426  15.051
   31BMANN  H61 4321   5.105   5.511  15.066
   31BMANN  H62 4322   5.275   5.470  15.025
   31BMANN   O6 4323   5.130   5.347  14.941
   31BMANN  HO6 4324   5.037   5.327  14.950
   32BGLCN   C1 4325   5.445   4.832  15.450
   32BGLCN   H1 4326   5.467   4.939  15.428
   32BGLCN   C5 4327   5.637   4.823  15.593
   32BGLCN   H5 4328   5.657   4.930  15.571
   32BGLCN   O5 4329   5.566   4.763  15.484
   32BGLCN   C2 4330   5.352   4.822  15.570
   32BGLCN   H2 4331   5.344   4.715  15.596
   32BGLCN    N 4332   5.218   4.874  15.545
   32BGLCN   HN 4333   5.210   4.972  15.529
   32BGLCN    C 4334   5.107   4.798  15.547
   32BGLCN    O 4335   5.107   4.676  15.559
   32BGLCN   CT 4336   4.976   4.871  15.532
   32BGLCN  HT1 4337   4.993   4.977  15.502
   32BGLCN  HT2 4338   4.919   4.868  15.627
   32BGLCN  HT3 4339   4.917   4.821  15.452
   32BGLCN   C3 4340   5.421   4.892  15.686
   32BGLCN   H3 4341   5.450   4.993  15.648
   32BGLCN   O3 4342   5.340   4.910  15.804
   32BGLCN   C4 4343   5.548   4.815  15.716
   32BGLCN   H4 4344   5.521   4.708  15.734
   32BGLCN   O4 4345   5.612   4.861  15.834
   32BGLCN  HO4 4346   5.543   4.877  15.900
   32BGLCN   C6 4347   5.770   4.753  15.604
   32BGLCN  H61 4348   5.830   4.798  15.687
   32BGLCN  H62 4349   5.755   4.645  15.628
   32BGLCN   O6 4350   5.845   4.764  15.483
   32BGLCN  HO6 4351   5.786   4.746  15.409
   33AGAL    C1 4352   5.348   5.043  15.853
   33AGAL    H1 4353   5.451   5.084  15.840
   33AGAL    C5 4354   5.118   5.089  15.806
   33AGAL    H5 4355   5.103   4.985  15.769
   33AGAL    O5 4356   5.255   5.128  15.785
   33AGAL    C2 4357   5.316   5.046  16.001
   33AGAL    H2 4358   5.324   5.153  16.031
   33AGAL    O2 4359   5.416   4.972  16.074
   33AGAL    C3 4360   5.175   4.999  16.027
   33AGAL    H3 4361   5.165   4.895  15.989
   33AGAL    O3 4362   5.142   4.997  16.166
   33AGAL   HO3 4363   5.115   5.087  16.187
   33AGAL    C4 4364   5.080   5.090  15.954
   33AGAL    H4 4365   4.977   5.050  15.963
   33AGAL    O4 4366   5.079   5.222  16.007
   33AGAL   HO4 4367   5.080   5.282  15.932
   33AGAL    C6 4368   5.032   5.182  15.721
   33AGAL   H61 4369   5.052   5.163  15.614
   33AGAL   H62 4370   4.925   5.161  15.740
   33AGAL    O6 4371   5.058   5.321  15.747
   33AGAL   HO6 4372   5.136   5.348  15.700
   34ARHM    C1 4373   5.456   5.036  16.193
   34ARHM    H1 4374   5.367   5.077  16.246
   34ARHM    C5 4375   5.668   5.102  16.105
   34ARHM    H5 4376   5.645   5.057  16.005
   34ARHM    O5 4377   5.547   5.144  16.168
   34ARHM    C2 4378   5.522   4.932  16.281
   34ARHM    H2 4379   5.452   4.846  16.293
   34ARHM    O2 4380   5.554   4.984  16.410
   34ARHM    C3 4381   5.648   4.881  16.216
   34ARHM    H3 4382   5.624   4.833  16.119
   34ARHM    O3 4383   5.709   4.782  16.299
   34ARHM   HO3 4384   5.797   4.760  16.267
   34ARHM    C4 4385   5.741   4.999  16.191
   34ARHM    H4 4386   5.766   5.047  16.288
   34ARHM    O4 4387   5.862   4.957  16.129
   34ARHM   HO4 4388   5.937   4.985  16.182
   34ARHM    C6 4389   5.748   5.231  16.081
   34ARHM   H61 4390   5.773   5.280  16.177
   34ARHM   H62 4391   5.842   5.209  16.026
   34ARHM   H63 4392   5.687   5.302  16.020
   35ARHM    C1 4393   5.447   5.015  16.495
   35ARHM    H1 4394   5.360   4.950  16.474
   35ARHM    C5 4395   5.522   5.242  16.503
   35ARHM    H5 4396   5.599   5.220  16.425
   35ARHM    O5 4397   5.410   5.154  16.486
   35ARHM    C2 4398   5.502   4.989  16.634
   35ARHM    H2 4399   5.539   4.884  16.636
   35ARHM    O2 4400   5.405   5.004  16.740
   35ARHM    C3 4401   5.622   5.077  16.659
   35ARHM    H3 4402   5.702   5.053  16.586
   35ARHM    O3 4403   5.675   5.053  16.789
   35ARHM   HO3 4404   5.603   5.061  16.852
   35ARHM    C4 4405   5.583   5.223  16.641
   35ARHM    H4 4406   5.506   5.250  16.717
   35ARHM    O4 4407   5.695   5.309  16.657
   35ARHM   HO4 4408   5.742   5.283  16.737
   35ARHM    C6 4409   5.470   5.384  16.478
   35ARHM   H61 4410   5.425   5.391  16.376
   35ARHM   H62 4411   5.392   5.410  16.553
   35ARHM   H63 4412   5.552   5.458  16.486
   36BMANN   C1 4413   5.301   4.908  16.735
   36BMANN   H1 4414   5.338   4.814  16.688
   36BMANN   C5 4415   5.082   4.858  16.655
   36BMANN   H5 4416   5.123   4.769  16.604
   36BMANN   O5 4417   5.187   4.957  16.664
   36BMANN   C2 4418   5.258   4.880  16.878
   36BMANN   H2 4419   5.348   4.841  16.930
   36BMANN    N 4420   5.211   4.999  16.947
   36BMANN   HN 4421   5.156   5.062  16.892
   36BMANN    C 4422   5.226   5.020  17.079
   36BMANN    O 4423   5.296   4.947  17.148
   36BMANN   CT 4424   5.152   5.136  17.139
   36BMANN  HT1 4425   5.077   5.178  17.067
   36BMANN  HT2 4426   5.223   5.216  17.169
   36BMANN  HT3 4427   5.098   5.102  17.230
   36BMANN   C3 4428   5.154   4.769  16.874
   36BMANN   H3 4429   5.198   4.681  16.823
   36BMANN   O3 4430   5.116   4.727  17.005
   36BMANN  HO3 4431   5.188   4.738  17.067
   36BMANN   C4 4432   5.035   4.818  16.794
   36BMANN   H4 4433   4.989   4.905  16.845
   36BMANN   O4 4434   4.936   4.716  16.786
   36BMANN  HO4 4435   4.929   4.680  16.875
   36BMANN   C6 4436   4.972   4.914  16.566
   36BMANN  H61 4437   5.018   4.965  16.479
   36BMANN  H62 4438   4.913   4.829  16.525
   36BMANN   O6 4439   4.883   5.004  16.633
   36BMANN  HO6 4440   4.820   4.954  16.686
    1ECLIP HB6S 4441   2.659   4.428   6.664
    1ECLIP  OB6 4442   2.791   4.530   6.790
    1ECLIP  CB6 4443   2.681   4.532   6.695
    1ECLIP HB6R 4444   2.589   4.572   6.743
    1ECLIP  CB5 4445   2.701   4.615   6.570
    1ECLIP  OB5 4446   2.829   4.580   6.516
    1ECLIP  HB5 4447   2.701   4.723   6.598
    1ECLIP  CB1 4448   2.860   4.659   6.399
    1ECLIP  HB1 4449   2.859   4.767   6.425
    1ECLIP  OA6 4450   2.986   4.628   6.344
    1ECLIP  CA6 4451   3.041   4.502   6.385
    1ECLIP HA6R 4452   2.964   4.431   6.422
    1ECLIP HA6S 4453   3.113   4.520   6.467
    1ECLIP  CB4 4454   2.592   4.590   6.466
    1ECLIP  HB4 4455   2.601   4.483   6.436
    1ECLIP  OB4 4456   2.465   4.619   6.526
    1ECLIP   PB 4457   2.345   4.503   6.525
    1ECLIP OPB4 4458   2.254   4.530   6.646
    1ECLIP OPB3 4459   2.420   4.371   6.539
    1ECLIP OPB2 4460   2.275   4.519   6.391
    1ECLIP  CB3 4461   2.622   4.671   6.342
    1ECLIP  OB3 4462   2.532   4.641   6.235
    1ECLIP  HB3 4463   2.626   4.779   6.368
    1ECLIP  C71 4464   2.433   4.727   6.214
    1ECLIP  O71 4465   2.433   4.842   6.254
    1ECLIP  C72 4466   2.386   4.704   6.069
    1ECLIP H72R 4467   2.474   4.710   6.002
    1ECLIP H72S 4468   2.316   4.787   6.046
    1ECLIP  CB2 4469   2.758   4.628   6.292
    1ECLIP  HB2 4470   2.756   4.518   6.281
    1ECLIP  NB2 4471   2.793   4.686   6.163
    1ECLIP HNB2 4472   2.819   4.782   6.164
    1ECLIP  CA4 4473   3.202   4.526   6.190
    1ECLIP  HA4 4474   3.141   4.609   6.146
    1ECLIP  OA4 4475   3.299   4.582   6.278
    1ECLIP HOA4 4476   3.291   4.677   6.268
    1ECLIP  CA5 4477   3.108   4.437   6.267
    1ECLIP  HA5 4478   3.165   4.349   6.306
    1ECLIP  OA5 4479   3.003   4.392   6.179
    1ECLIP  CA1 4480   3.052   4.313   6.069
    1ECLIP  HA1 4481   2.965   4.296   6.002
    1ECLIP  OA1 4482   3.101   4.185   6.108
    1ECLIP OPA2 4483   3.020   4.157   6.347
    1ECLIP OPA3 4484   2.863   4.110   6.175
    1ECLIP OPA4 4485   3.060   3.951   6.208
    1ECLIP   PA 4486   3.010   4.093   6.209
    1ECLIP  CA3 4487   3.264   4.447   6.078
    1ECLIP  HA3 4488   3.310   4.357   6.124
    1ECLIP  OA3 4489   3.372   4.514   6.010
    1ECLIP  C31 4490   3.350   4.629   5.943
    1ECLIP  O31 4491   3.377   4.639   5.825
    1ECLIP  C32 4492   3.406   4.745   6.030
    1ECLIP H32R 4493   3.488   4.788   5.969
    1ECLIP H32S 4494   3.454   4.705   6.122
    1ECLIP  CA2 4495   3.152   4.396   5.987
    1ECLIP  HA2 4496   3.097   4.484   5.947
    1ECLIP  NA2 4497   3.206   4.321   5.877
    1ECLIP HNA2 4498   3.296   4.281   5.893
    1ECLIP  C73 4499   2.314   4.570   6.052
    1ECLIP H73R 4500   2.248   4.553   6.141
    1ECLIP  O73 4501   2.415   4.469   6.044
    1ECLIP  C81 4502   2.374   4.344   6.065
    1ECLIP  O81 4503   2.259   4.305   6.056
    1ECLIP  C82 4504   2.493   4.253   6.033
    1ECLIP H82R 4505   2.471   4.153   6.076
    1ECLIP H82S 4506   2.584   4.295   6.082
    1ECLIP  C83 4507   2.515   4.242   5.880
    1ECLIP H83R 4508   2.547   4.342   5.844
    1ECLIP H83S 4509   2.419   4.217   5.830
    1ECLIP  C84 4510   2.621   4.139   5.839
    1ECLIP H84R 4511   2.582   4.037   5.855
    1ECLIP H84S 4512   2.712   4.152   5.900
    1ECLIP  C85 4513   2.657   4.159   5.690
    1ECLIP H85R 4514   2.711   4.256   5.683
    1ECLIP H85S 4515   2.563   4.168   5.632
    1ECLIP  C86 4516   2.746   4.051   5.627
    1ECLIP H86R 4517   2.687   3.957   5.618
    1ECLIP H86S 4518   2.831   4.031   5.695
    1ECLIP  C87 4519   2.802   4.092   5.488
    1ECLIP H87R 4520   2.852   4.004   5.443
    1ECLIP H87S 4521   2.878   4.171   5.505
    1ECLIP  C88 4522   2.694   4.147   5.393
    1ECLIP H88R 4523   2.654   4.240   5.438
    1ECLIP H88S 4524   2.610   4.075   5.384
    1ECLIP  C89 4525   2.746   4.185   5.252
    1ECLIP H89R 4526   2.846   4.232   5.260
    1ECLIP H89S 4527   2.676   4.262   5.214
    1ECLIP C810 4528   2.748   4.067   5.153
    1ECLIPH810R 4529   2.654   4.010   5.163
    1ECLIPH810S 4530   2.831   4.000   5.183
    1ECLIP C811 4531   2.767   4.111   5.006
    1ECLIPH811R 4532   2.785   4.020   4.945
    1ECLIPH811S 4533   2.859   4.174   5.002
    1ECLIP C812 4534   2.651   4.191   4.945
    1ECLIPH812R 4535   2.680   4.224   4.844
    1ECLIPH812S 4536   2.633   4.283   5.005
    1ECLIP C813 4537   2.519   4.113   4.936
    1ECLIPH813R 4538   2.535   4.022   4.875
    1ECLIPH813S 4539   2.488   4.081   5.037
    1ECLIP C814 4540   2.405   4.196   4.875
    1ECLIPH814R 4541   2.432   4.232   4.773
    1ECLIPH814S 4542   2.384   4.284   4.939
    1ECLIPH814T 4543   2.312   4.135   4.868
    1ECLIP  C74 4544   2.224   4.570   5.925
    1ECLIP H74R 4545   2.159   4.659   5.927
    1ECLIP H74S 4546   2.156   4.482   5.934
    1ECLIP  C75 4547   2.294   4.559   5.787
    1ECLIP H75R 4548   2.224   4.504   5.721
    1ECLIP H75S 4549   2.385   4.497   5.796
    1ECLIP  C76 4550   2.326   4.692   5.719
    1ECLIP H76R 4551   2.415   4.739   5.767
    1ECLIP H76S 4552   2.241   4.762   5.733
    1ECLIP  C77 4553   2.350   4.676   5.568
    1ECLIP H77R 4554   2.263   4.622   5.524
    1ECLIP H77S 4555   2.440   4.613   5.552
    1ECLIP  C78 4556   2.367   4.810   5.495
    1ECLIP H78R 4557   2.273   4.868   5.503
    1ECLIP H78S 4558   2.446   4.868   5.547
    1ECLIP  C79 4559   2.407   4.799   5.346
    1ECLIP H79R 4560   2.515   4.772   5.342
    1ECLIP H79S 4561   2.395   4.898   5.299
    1ECLIP C710 4562   2.332   4.693   5.262
    1ECLIPH710R 4563   2.358   4.592   5.300
    1ECLIPH710S 4564   2.223   4.706   5.274
    1ECLIP C711 4565   2.371   4.702   5.113
    1ECLIPH711R 4566   2.346   4.803   5.075
    1ECLIPH711S 4567   2.482   4.690   5.106
    1ECLIP C712 4568   2.306   4.595   5.025
    1ECLIPH712R 4569   2.196   4.613   5.021
    1ECLIPH712S 4570   2.321   4.496   5.075
    1ECLIP C713 4571   2.363   4.588   4.882
    1ECLIPH713R 4572   2.471   4.565   4.891
    1ECLIPH713S 4573   2.315   4.503   4.829
    1ECLIP C714 4574   2.344   4.715   4.799
    1ECLIPH714R 4575   2.237   4.741   4.792
    1ECLIPH714S 4576   2.398   4.800   4.846
    1ECLIPH714T 4577   2.385   4.701   4.696
    1ECLIP  C51 4578   2.793   4.618   6.047
    1ECLIP  O51 4579   2.761   4.501   6.037
    1ECLIP  C52 4580   2.837   4.700   5.929
    1ECLIP H52R 4581   2.767   4.786   5.921
    1ECLIP H52S 4582   2.939   4.737   5.951
    1ECLIP  C53 4583   2.841   4.622   5.795
    1ECLIP H53R 4584   2.896   4.527   5.809
    1ECLIP  O53 4585   2.901   4.707   5.697
    1ECLIP  C61 4586   3.031   4.689   5.676
    1ECLIP  O61 4587   3.106   4.635   5.754
    1ECLIP  C62 4588   3.075   4.796   5.575
    1ECLIP H62R 4589   3.106   4.886   5.632
    1ECLIP H62S 4590   2.986   4.820   5.513
    1ECLIP  C63 4591   3.193   4.751   5.485
    1ECLIP H63R 4592   3.164   4.658   5.433
    1ECLIP H63S 4593   3.281   4.727   5.549
    1ECLIP  C64 4594   3.233   4.855   5.379
    1ECLIP H64R 4595   3.315   4.813   5.318
    1ECLIP H64S 4596   3.271   4.946   5.429
    1ECLIP  C65 4597   3.114   4.892   5.289
    1ECLIP H65R 4598   3.038   4.939   5.354
    1ECLIP H65S 4599   3.069   4.800   5.247
    1ECLIP  C66 4600   3.145   4.993   5.177
    1ECLIP H66R 4601   3.185   5.086   5.224
    1ECLIP H66S 4602   3.049   5.020   5.128
    1ECLIP  C67 4603   3.243   4.946   5.070
    1ECLIP H67R 4604   3.347   4.954   5.109
    1ECLIP H67S 4605   3.234   5.016   4.984
    1ECLIP  C68 4606   3.220   4.803   5.023
    1ECLIP H68R 4607   3.114   4.789   4.991
    1ECLIP H68S 4608   3.240   4.733   5.106
    1ECLIP  C69 4609   3.313   4.766   4.906
    1ECLIP H69R 4610   3.415   4.803   4.929
    1ECLIP H69S 4611   3.276   4.818   4.815
    1ECLIP C610 4612   3.319   4.614   4.884
    1ECLIPH610R 4613   3.217   4.577   4.863
    1ECLIPH610S 4614   3.353   4.567   4.979
    1ECLIP C611 4615   3.415   4.570   4.773
    1ECLIPH611R 4616   3.519   4.574   4.811
    1ECLIPH611S 4617   3.393   4.464   4.747
    1ECLIP C612 4618   3.406   4.657   4.648
    1ECLIPH612R 4619   3.300   4.681   4.624
    1ECLIPH612S 4620   3.459   4.753   4.665
    1ECLIPH612T 4621   3.452   4.607   4.561
    1ECLIP  C54 4622   2.701   4.589   5.740
    1ECLIP H54R 4623   2.642   4.683   5.728
    1ECLIP H54S 4624   2.649   4.526   5.815
    1ECLIP  C55 4625   2.705   4.513   5.606
    1ECLIP H55R 4626   2.609   4.457   5.594
    1ECLIP H55S 4627   2.787   4.438   5.610
    1ECLIP  C56 4628   2.725   4.601   5.483
    1ECLIP H56R 4629   2.821   4.657   5.490
    1ECLIP H56S 4630   2.643   4.676   5.478
    1ECLIP  C57 4631   2.731   4.520   5.352
    1ECLIP H57R 4632   2.635   4.466   5.339
    1ECLIP H57S 4633   2.812   4.445   5.361
    1ECLIP  C58 4634   2.758   4.610   5.231
    1ECLIP H58R 4635   2.676   4.685   5.226
    1ECLIP H58S 4636   2.854   4.664   5.245
    1ECLIP  C59 4637   2.758   4.532   5.099
    1ECLIP H59R 4638   2.664   4.474   5.094
    1ECLIP H59S 4639   2.843   4.460   5.099
    1ECLIP C510 4640   2.766   4.626   4.978
    1ECLIPH510R 4641   2.857   4.689   4.986
    1ECLIPH510S 4642   2.677   4.693   4.983
    1ECLIP C511 4643   2.764   4.550   4.846
    1ECLIPH511R 4644   2.862   4.500   4.833
    1ECLIPH511S 4645   2.687   4.471   4.851
    1ECLIP C512 4646   2.732   4.641   4.726
    1ECLIPH512R 4647   2.734   4.579   4.634
    1ECLIPH512S 4648   2.630   4.681   4.737
    1ECLIP C513 4649   2.829   4.759   4.708
    1ECLIPH513R 4650   2.933   4.721   4.708
    1ECLIPH513S 4651   2.823   4.827   4.796
    1ECLIP C514 4652   2.802   4.838   4.580
    1ECLIPH514R 4653   2.732   4.922   4.601
    1ECLIPH514S 4654   2.896   4.880   4.540
    1ECLIPH514T 4655   2.758   4.773   4.502
    1ECLIP  C33 4656   3.307   4.860   6.061
    1ECLIP H33R 4657   3.364   4.955   6.070
    1ECLIP  O33 4658   3.244   4.835   6.184
    1ECLIP HO33 4659   3.179   4.900   6.212
    1ECLIP  C34 4660   3.197   4.877   5.953
    1ECLIP H34R 4661   3.146   4.779   5.940
    1ECLIP H34S 4662   3.247   4.902   5.858
    1ECLIP  C35 4663   3.087   4.981   5.983
    1ECLIP H35R 4664   3.134   5.074   6.020
    1ECLIP H35S 4665   3.022   4.941   6.065
    1ECLIP  C36 4666   3.000   5.005   5.858
    1ECLIP H36R 4667   2.987   4.905   5.812
    1ECLIP H36S 4668   3.055   5.068   5.785
    1ECLIP  C37 4669   2.857   5.058   5.880
    1ECLIP H37R 4670   2.856   5.168   5.891
    1ECLIP H37S 4671   2.817   5.016   5.976
    1ECLIP  C38 4672   2.762   5.014   5.766
    1ECLIP H38R 4673   2.763   4.904   5.757
    1ECLIP H38S 4674   2.658   5.043   5.792
    1ECLIP  C39 4675   2.799   5.068   5.628
    1ECLIP H39R 4676   2.907   5.047   5.609
    1ECLIP H39S 4677   2.784   5.178   5.627
    1ECLIP C310 4678   2.720   5.002   5.514
    1ECLIPH310R 4679   2.611   5.019   5.530
    1ECLIPH310S 4680   2.737   4.893   5.517
    1ECLIP C311 4681   2.761   5.057   5.377
    1ECLIPH311R 4682   2.748   5.167   5.375
    1ECLIPH311S 4683   2.870   5.037   5.365
    1ECLIP C312 4684   2.686   4.991   5.260
    1ECLIPH312R 4685   2.680   4.882   5.280
    1ECLIPH312S 4686   2.582   5.030   5.256
    1ECLIP C313 4687   2.754   5.010   5.124
    1ECLIPH313R 4688   2.792   5.114   5.115
    1ECLIPH313S 4689   2.842   4.941   5.122
    1ECLIP C314 4690   2.662   4.978   5.006
    1ECLIPH314R 4691   2.586   5.059   4.993
    1ECLIPH314S 4692   2.720   4.970   4.912
    1ECLIPH314T 4693   2.606   4.884   5.024
    1ECLIP  C11 4694   3.147   4.299   5.757
    1ECLIP  O11 4695   3.038   4.345   5.726
    1ECLIP  C12 4696   3.223   4.209   5.663
    1ECLIP H12R 4697   3.188   4.105   5.681
    1ECLIP H12S 4698   3.332   4.215   5.686
    1ECLIP  C13 4699   3.199   4.248   5.516
    1ECLIP H13R 4700   3.090   4.247   5.495
    1ECLIP  O13 4701   3.263   4.150   5.436
    1ECLIP HO13 4702   3.231   4.060   5.451
    1ECLIP  C14 4703   3.257   4.387   5.480
    1ECLIP H14R 4704   3.360   4.391   5.520
    1ECLIP H14S 4705   3.198   4.465   5.535
    1ECLIP  C15 4706   3.262   4.421   5.330
    1ECLIP H15R 4707   3.325   4.343   5.281
    1ECLIP H15S 4708   3.314   4.517   5.315
    1ECLIP  C16 4709   3.125   4.427   5.259
    1ECLIP H16R 4710   3.087   4.531   5.264
    1ECLIP H16S 4711   3.051   4.361   5.311
    1ECLIP  C17 4712   3.135   4.382   5.112
    1ECLIP H17R 4713   3.227   4.429   5.069
    1ECLIP H17S 4714   3.048   4.420   5.054
    1ECLIP  C18 4715   3.145   4.230   5.097
    1ECLIP H18R 4716   3.215   4.192   5.175
    1ECLIP H18S 4717   3.047   4.183   5.116
    1ECLIP  C19 4718   3.201   4.187   4.962
    1ECLIP H19R 4719   3.232   4.080   4.966
    1ECLIP H19S 4720   3.293   4.246   4.941
    1ECLIP C110 4721   3.104   4.204   4.844
    1ECLIPH110R 4722   3.028   4.124   4.848
    1ECLIPH110S 4723   3.051   4.302   4.851
    1ECLIP C111 4724   3.180   4.199   4.712
    1ECLIPH111R 4725   3.232   4.296   4.695
    1ECLIPH111S 4726   3.259   4.121   4.719
    1ECLIP C112 4727   3.091   4.168   4.590
    1ECLIPH112R 4728   3.054   4.063   4.598
    1ECLIPH112S 4729   3.002   4.234   4.594
    1ECLIP C113 4730   3.168   4.188   4.459
    1ECLIPH113R 4731   3.209   4.291   4.455
    1ECLIPH113S 4732   3.256   4.120   4.465
    1ECLIP C114 4733   3.095   4.157   4.328
    1ECLIPH114R 4734   3.047   4.057   4.334
    1ECLIPH114S 4735   3.018   4.234   4.308
    1ECLIPH114T 4736   3.166   4.156   4.243
    2AKDO    C1 4737   2.793   4.763   6.846
    2AKDO   O11 4738   2.703   4.847   6.872
    2AKDO   O12 4739   2.910   4.790   6.806
    2AKDO    C2 4740   2.774   4.617   6.900
    2AKDO    C6 4741   2.630   4.458   7.009
    2AKDO    H6 4742   2.654   4.393   6.924
    2AKDO    O6 4743   2.647   4.595   6.966
    2AKDO    C3 4744   2.881   4.579   7.004
    2AKDO   H31 4745   2.872   4.649   7.090
    2AKDO   H32 4746   2.980   4.593   6.955
    2AKDO    C4 4747   2.869   4.440   7.056
    2AKDO    H4 4748   2.882   4.369   6.970
    2AKDO    O4 4749   2.970   4.418   7.155
    2AKDO    C5 4750   2.732   4.416   7.118
    2AKDO    H5 4751   2.724   4.305   7.125
    2AKDO    O5 4752   2.715   4.469   7.253
    2AKDO    C7 4753   2.481   4.436   7.032
    2AKDO    H7 4754   2.446   4.498   7.118
    2AKDO    O7 4755   2.453   4.298   7.054
    2AKDO   HO7 4756   2.381   4.283   6.991
    2AKDO    C8 4757   2.408   4.479   6.905
    2AKDO   H81 4758   2.425   4.587   6.886
    2AKDO   H82 4759   2.449   4.424   6.818
    2AKDO    O8 4760   2.267   4.457   6.907
    2AKDO   HO8 4761   2.249   4.471   6.814
    3AKDO    C1 4762   3.133   4.288   7.013
    3AKDO   O11 4763   3.251   4.286   6.969
    3AKDO   O12 4764   3.050   4.192   7.012
    3AKDO    C2 4765   3.106   4.400   7.120
    3AKDO    C6 4766   3.167   4.631   7.174
    3AKDO    H6 4767   3.060   4.655   7.193
    3AKDO    O6 4768   3.176   4.522   7.079
    3AKDO    C3 4769   3.163   4.357   7.255
    3AKDO   H31 4770   3.269   4.327   7.242
    3AKDO   H32 4771   3.108   4.267   7.289
    3AKDO    C4 4772   3.152   4.466   7.358
    3AKDO    H4 4773   3.045   4.495   7.370
    3AKDO    O4 4774   3.198   4.419   7.483
    3AKDO   HO4 4775   3.131   4.360   7.519
    3AKDO    C5 4776   3.228   4.587   7.306
    3AKDO    H5 4777   3.218   4.670   7.380
    3AKDO    O5 4778   3.367   4.561   7.287
    3AKDO   HO5 4779   3.372   4.498   7.215
    3AKDO    C7 4780   3.233   4.756   7.115
    3AKDO    H7 4781   3.342   4.737   7.104
    3AKDO    O7 4782   3.213   4.870   7.200
    3AKDO   HO7 4783   3.133   4.910   7.163
    3AKDO    C8 4784   3.177   4.788   6.976
    3AKDO   H81 4785   3.187   4.699   6.910
    3AKDO   H82 4786   3.069   4.809   6.986
    3AKDO    O8 4787   3.242   4.901   6.914
    3AKDO   HO8 4788   3.171   4.936   6.860
    4AHEP    C1 4789   2.632   4.389   7.337
    4AHEP    H1 4790   2.532   4.385   7.289
    4AHEP    C5 4791   2.797   4.237   7.425
    4AHEP    H5 4792   2.873   4.305   7.379
    4AHEP    O5 4793   2.676   4.252   7.348
    4AHEP    C2 4794   2.607   4.442   7.479
    4AHEP    H2 4795   2.586   4.550   7.469
    4AHEP    O2 4796   2.493   4.384   7.543
    4AHEP   HO2 4797   2.516   4.385   7.636
    4AHEP    C3 4798   2.729   4.427   7.569
    4AHEP    H3 4799   2.810   4.493   7.530
    4AHEP    O3 4800   2.691   4.460   7.705
    4AHEP    C4 4801   2.774   4.282   7.571
    4AHEP    H4 4802   2.692   4.220   7.615
    4AHEP    O4 4803   2.895   4.271   7.648
    4AHEP    P4 4804   2.921   4.163   7.770
    4AHEP  OP42 4805   3.056   4.199   7.832
    4AHEP  OP43 4806   2.924   4.024   7.709
    4AHEP  OP44 4807   2.806   4.173   7.870
    4AHEP    C6 4808   2.851   4.095   7.408
    4AHEP    H6 4809   2.957   4.095   7.440
    4AHEP    O6 4810   2.781   4.006   7.497
    4AHEP   HO6 4811   2.829   4.019   7.577
    4AHEP    C7 4812   2.845   4.041   7.266
    4AHEP   H71 4813   2.898   3.944   7.259
    4AHEP   H72 4814   2.896   4.113   7.198
    4AHEP    O7 4815   2.710   4.023   7.220
    4AHEP   HO7 4816   2.666   4.104   7.245
    5AHEP    C1 4817   2.778   4.548   7.773
    5AHEP    H1 4818   2.878   4.542   7.726
    5AHEP    C5 4819   2.608   4.708   7.832
    5AHEP    H5 4820   2.530   4.641   7.792
    5AHEP    O5 4821   2.733   4.683   7.766
    5AHEP    C2 4822   2.796   4.516   7.921
    5AHEP    H2 4823   2.819   4.408   7.929
    5AHEP    O2 4824   2.912   4.586   7.970
    5AHEP   HO2 4825   2.987   4.529   7.948
    5AHEP    C3 4826   2.668   4.537   8.002
    5AHEP    H3 4827   2.590   4.468   7.965
    5AHEP    O3 4828   2.690   4.517   8.144
    5AHEP    C4 4829   2.621   4.681   7.984
    5AHEP    H4 4830   2.698   4.749   8.025
    5AHEP    O4 4831   2.495   4.715   8.042
    5AHEP    P4 4832   2.385   4.632   8.131
    5AHEP  OP42 4833   2.358   4.501   8.057
    5AHEP  OP43 4834   2.258   4.715   8.135
    5AHEP  OP44 4835   2.435   4.608   8.273
    5AHEP    C6 4836   2.572   4.852   7.792
    5AHEP    H6 4837   2.471   4.875   7.830
    5AHEP    O6 4838   2.665   4.945   7.851
    5AHEP   HO6 4839   2.728   4.955   7.778
    5AHEP    C7 4840   2.577   4.869   7.639
    5AHEP   H71 4841   2.489   4.930   7.611
    5AHEP   H72 4842   2.564   4.771   7.587
    5AHEP    O7 4843   2.694   4.940   7.592
    6AHEP    C1 4844   2.787   4.857   7.526
    6AHEP    H1 4845   2.778   4.751   7.558
    6AHEP    C5 4846   2.783   4.985   7.323
    6AHEP    H5 4847   2.706   5.053   7.367
    6AHEP    O5 4848   2.772   4.856   7.384
    6AHEP    C2 4849   2.927   4.906   7.557
    6AHEP    H2 4850   2.937   4.911   7.668
    6AHEP    O2 4851   3.026   4.815   7.509
    6AHEP   HO2 4852   3.000   4.790   7.420
    6AHEP    C3 4853   2.944   5.047   7.502
    6AHEP    H3 4854   2.864   5.112   7.543
    6AHEP    O3 4855   3.069   5.107   7.535
    6AHEP   HO3 4856   3.093   5.154   7.457
    6AHEP    C4 4857   2.922   5.043   7.351
    6AHEP    H4 4858   2.997   4.974   7.306
    6AHEP    O4 4859   2.943   5.172   7.293
    6AHEP   HO4 4860   2.865   5.206   7.250
    6AHEP    C6 4861   2.750   4.969   7.175
    6AHEP    H6 4862   2.751   5.068   7.125
    6AHEP    O6 4863   2.852   4.894   7.109
    6AHEP   HO6 4864   2.816   4.874   7.023
    6AHEP    C7 4865   2.611   4.906   7.155
    6AHEP   H71 4866   2.577   4.919   7.049
    6AHEP   H72 4867   2.538   4.964   7.216
    6AHEP    O7 4868   2.596   4.768   7.190
    6AHEP   HO7 4869   2.629   4.719   7.115
    7AGLC    C1 4870   2.686   4.386   8.195
    7AGLC    H1 4871   2.603   4.329   8.149
    7AGLC    C5 4872   2.924   4.391   8.227
    7AGLC    H5 4873   2.926   4.493   8.184
    7AGLC    O5 4874   2.812   4.319   8.174
    7AGLC    C2 4875   2.673   4.390   8.348
    7AGLC    H2 4876   2.691   4.286   8.382
    7AGLC    O2 4877   2.541   4.417   8.395
    7AGLC   HO2 4878   2.509   4.493   8.346
    7AGLC    C3 4879   2.782   4.476   8.411
    7AGLC    H3 4880   2.777   4.576   8.363
    7AGLC    O3 4881   2.766   4.491   8.556
    7AGLC    C4 4882   2.912   4.407   8.377
    7AGLC    H4 4883   2.912   4.306   8.424
    7AGLC    O4 4884   3.026   4.479   8.424
    7AGLC   HO4 4885   3.104   4.426   8.410
    7AGLC    C6 4886   3.047   4.315   8.179
    7AGLC   H61 4887   3.020   4.251   8.092
    7AGLC   H62 4888   3.122   4.388   8.141
    7AGLC    O6 4889   3.109   4.234   8.281
    7AGLC   HO6 4890   3.192   4.274   8.306
    8AGLC    C1 4891   2.778   4.625   8.601
    8AGLC    H1 4892   2.862   4.676   8.549
    8AGLC    C5 4893   2.542   4.652   8.639
    8AGLC    H5 4894   2.530   4.546   8.608
    8AGLC    O5 4895   2.660   4.703   8.576
    8AGLC    C2 4896   2.801   4.628   8.752
    8AGLC    H2 4897   2.813   4.735   8.780
    8AGLC    O2 4898   2.916   4.557   8.799
    8AGLC    C3 4899   2.681   4.572   8.827
    8AGLC    H3 4900   2.663   4.470   8.788
    8AGLC    O3 4901   2.710   4.558   8.969
    8AGLC    C4 4902   2.560   4.655   8.792
    8AGLC    H4 4903   2.578   4.761   8.819
    8AGLC    O4 4904   2.440   4.613   8.855
    8AGLC   HO4 4905   2.371   4.659   8.807
    8AGLC    C6 4906   2.421   4.727   8.589
    8AGLC   H61 4907   2.436   4.754   8.481
    8AGLC   H62 4908   2.333   4.659   8.591
    8AGLC    O6 4909   2.388   4.844   8.664
    8AGLC   HO6 4910   2.373   4.913   8.599
    9AGAL    C1 4911   3.041   4.590   8.740
    9AGAL    H1 4912   3.034   4.593   8.629
    9AGAL    C5 4913   3.103   4.725   8.925
    9AGAL    H5 4914   3.007   4.691   8.969
    9AGAL    O5 4915   3.088   4.718   8.783
    9AGAL    C2 4916   3.138   4.480   8.780
    9AGAL    H2 4917   3.234   4.499   8.727
    9AGAL    O2 4918   3.082   4.358   8.721
    9AGAL    C3 4919   3.161   4.484   8.931
    9AGAL    H3 4920   3.064   4.463   8.981
    9AGAL    O3 4921   3.256   4.389   8.976
    9AGAL   HO3 4922   3.340   4.415   8.938
    9AGAL    C4 4923   3.209   4.624   8.969
    9AGAL    H4 4924   3.217   4.628   9.080
    9AGAL    O4 4925   3.339   4.651   8.915
    9AGAL   HO4 4926   3.332   4.675   8.823
    9AGAL    C6 4927   3.116   4.870   8.972
    9AGAL   H61 4928   3.059   4.935   8.903
    9AGAL   H62 4929   3.067   4.879   9.071
    9AGAL    O6 4930   3.249   4.920   8.987
    9AGAL   HO6 4931   3.281   4.946   8.900
   10AGAL    C1 4932   3.094   4.233   8.785
   10AGAL    H1 4933   3.201   4.213   8.807
   10AGAL    C5 4934   2.876   4.242   8.884
   10AGAL    H5 4935   2.860   4.336   8.825
   10AGAL    O5 4936   3.017   4.226   8.907
   10AGAL    C2 4937   3.045   4.122   8.693
   10AGAL    H2 4938   3.063   4.026   8.745
   10AGAL    O2 4939   3.123   4.115   8.571
   10AGAL   HO2 4940   3.097   4.184   8.510
   10AGAL    C3 4941   2.896   4.133   8.665
   10AGAL    H3 4942   2.874   4.230   8.616
   10AGAL    O3 4943   2.848   4.028   8.580
   10AGAL   HO3 4944   2.876   4.044   8.490
   10AGAL    C4 4945   2.820   4.130   8.796
   10AGAL    H4 4946   2.713   4.151   8.775
   10AGAL    O4 4947   2.827   4.002   8.861
   10AGAL   HO4 4948   2.827   3.939   8.789
   10AGAL    C6 4949   2.805   4.263   9.016
   10AGAL   H61 4950   2.851   4.350   9.068
   10AGAL   H62 4951   2.698   4.286   8.997
   10AGAL    O6 4952   2.813   4.149   9.101
   10AGAL   HO6 4953   2.827   4.075   9.042
   11BGLC    C1 4954   2.676   4.662   9.057
   11BGLC    H1 4955   2.566   4.664   9.071
   11BGLC    C5 4956   2.691   4.897   9.097
   11BGLC    H5 4957   2.581   4.900   9.116
   11BGLC    O5 4958   2.723   4.788   9.009
   11BGLC    C2 4959   2.746   4.631   9.189
   11BGLC    H2 4960   2.855   4.627   9.168
   11BGLC    O2 4961   2.707   4.504   9.241
   11BGLC   HO2 4962   2.703   4.444   9.165
   11BGLC    C3 4963   2.720   4.741   9.290
   11BGLC    H3 4964   2.612   4.745   9.316
   11BGLC    O3 4965   2.801   4.723   9.408
   11BGLC    C4 4966   2.763   4.873   9.229
   11BGLC    H4 4967   2.872   4.871   9.208
   11BGLC    O4 4968   2.737   4.981   9.319
   11BGLC   HO4 4969   2.783   4.963   9.403
   11BGLC    C6 4970   2.733   5.023   9.025
   11BGLC   H61 4971   2.746   5.105   9.099
   11BGLC   H62 4972   2.830   5.008   8.974
   11BGLC    O6 4973   2.635   5.066   8.931
   11BGLC   HO6 4974   2.642   5.016   8.849
   12BGLCN   C1 4975   2.737   4.674   9.524
   12BGLCN   H1 4976   2.689   4.576   9.503
   12BGLCN   C5 4977   2.577   4.727   9.694
   12BGLCN   H5 4978   2.526   4.630   9.677
   12BGLCN   O5 4979   2.642   4.770   9.573
   12BGLCN   C2 4980   2.848   4.659   9.628
   12BGLCN   H2 4981   2.889   4.761   9.644
   12BGLCN    N 4982   2.955   4.573   9.579
   12BGLCN   HN 4983   2.929   4.492   9.528
   12BGLCN    C 4984   3.085   4.598   9.597
   12BGLCN    O 4985   3.126   4.692   9.663
   12BGLCN   CT 4986   3.181   4.500   9.535
   12BGLCN  HT1 4987   3.278   4.506   9.589
   12BGLCN  HT2 4988   3.197   4.525   9.429
   12BGLCN  HT3 4989   3.141   4.396   9.542
   12BGLCN   C3 4990   2.790   4.612   9.762
   12BGLCN   H3 4991   2.747   4.511   9.750
   12BGLCN   O3 4992   2.894   4.610   9.863
   12BGLCN   C4 4993   2.683   4.712   9.804
   12BGLCN   H4 4994   2.733   4.811   9.815
   12BGLCN   O4 4995   2.622   4.680   9.929
   12BGLCN  HO4 4996   2.536   4.641   9.917
   12BGLCN   C6 4997   2.474   4.833   9.733
   12BGLCN  H61 4998   2.435   4.814   9.835
   12BGLCN  H62 4999   2.525   4.931   9.733
   12BGLCN   O6 5000   2.361   4.842   9.645
   12BGLCN  HO6 5001   2.314   4.759   9.636
   13AGAL    C1 5002   2.884   4.518   9.970
   13AGAL    H1 5003   2.778   4.506  10.003
   13AGAL    C5 5004   3.076   4.395   9.896
   13AGAL    H5 5005   3.085   4.467   9.812
   13AGAL    O5 5006   2.937   4.389   9.936
   13AGAL    C2 5007   2.966   4.566  10.090
   13AGAL    H2 5008   2.966   4.482  10.162
   13AGAL    O2 5009   2.908   4.680  10.156
   13AGAL    C3 5010   3.111   4.584  10.049
   13AGAL    H3 5011   3.113   4.651   9.959
   13AGAL    O3 5012   3.192   4.648  10.148
   13AGAL   HO3 5013   3.261   4.694  10.099
   13AGAL    C4 5014   3.165   4.448  10.009
   13AGAL    H4 5015   3.267   4.461   9.966
   13AGAL    O4 5016   3.174   4.356  10.116
   13AGAL   HO4 5017   3.147   4.271  10.079
   13AGAL    C6 5018   3.119   4.259   9.841
   13AGAL   H61 5019   3.057   4.237   9.752
   13AGAL   H62 5020   3.224   4.265   9.807
   13AGAL    O6 5021   3.106   4.151   9.936
   13AGAL   HO6 5022   3.085   4.071   9.886
   14ARHM    C1 5023   2.846   4.656  10.281
   14ARHM    H1 5024   2.820   4.548  10.292
   14ARHM    C5 5025   2.740   4.866  10.280
   14ARHM    H5 5026   2.783   4.888  10.179
   14ARHM    O5 5027   2.722   4.725  10.293
   14ARHM    C2 5028   2.939   4.697  10.393
   14ARHM    H2 5029   3.034   4.640  10.384
   14ARHM    O2 5030   2.888   4.677  10.528
   14ARHM    C3 5031   2.968   4.845  10.380
   14ARHM    H3 5032   3.014   4.865  10.281
   14ARHM    O3 5033   3.060   4.889  10.481
   14ARHM   HO3 5034   3.150   4.870  10.452
   14ARHM    C4 5035   2.835   4.919  10.387
   14ARHM    H4 5036   2.788   4.897  10.485
   14ARHM    O4 5037   2.853   5.060  10.378
   14ARHM   HO4 5038   2.845   5.097  10.466
   14ARHM    C6 5039   2.597   4.921  10.285
   14ARHM   H61 5040   2.527   4.853  10.231
   14ARHM   H62 5041   2.563   4.933  10.389
   14ARHM   H63 5042   2.593   5.019  10.233
   15ARHM    C1 5043   2.835   4.552  10.561
   15ARHM    H1 5044   2.881   4.473  10.497
   15ARHM    C5 5045   2.624   4.642  10.634
   15ARHM    H5 5046   2.656   4.745  10.608
   15ARHM    O5 5047   2.691   4.548  10.547
   15ARHM    C2 5048   2.873   4.526  10.704
   15ARHM    H2 5049   2.983   4.534  10.714
   15ARHM    O2 5050   2.832   4.392  10.733
   15ARHM    C3 5051   2.807   4.628  10.793
   15ARHM    H3 5052   2.837   4.729  10.759
   15ARHM    O3 5053   2.853   4.611  10.927
   15ARHM    C4 5054   2.657   4.614  10.780
   15ARHM    H4 5055   2.628   4.509  10.802
   15ARHM    O4 5056   2.585   4.698  10.870
   15ARHM   HO4 5057   2.493   4.670  10.870
   15ARHM    C6 5058   2.473   4.630  10.603
   15ARHM   H61 5059   2.415   4.704  10.663
   15ARHM   H62 5060   2.456   4.651  10.495
   15ARHM   H63 5061   2.437   4.528  10.627
   16BMANN   C1 5062   2.869   4.338  10.857
   16BMANN   H1 5063   2.810   4.386  10.939
   16BMANN   C5 5064   3.047   4.293  11.009
   16BMANN   H5 5065   2.988   4.341  11.089
   16BMANN   O5 5066   3.009   4.350  10.883
   16BMANN   C2 5067   2.831   4.193  10.847
   16BMANN   H2 5068   2.720   4.191  10.841
   16BMANN    N 5069   2.888   4.131  10.728
   16BMANN   HN 5070   2.984   4.147  10.712
   16BMANN    C 5071   2.814   4.072  10.634
   16BMANN    O 5072   2.693   4.057  10.644
   16BMANN   CT 5073   2.888   4.026  10.510
   16BMANN  HT1 5074   2.859   3.922  10.485
   16BMANN  HT2 5075   2.998   4.030  10.526
   16BMANN  HT3 5076   2.862   4.092  10.424
   16BMANN   C3 5077   2.869   4.125  10.977
   16BMANN   H3 5078   2.812   4.174  11.061
   16BMANN   O3 5079   2.830   3.988  10.975
   16BMANN  HO3 5080   2.824   3.959  10.884
   16BMANN   C4 5081   3.017   4.143  11.006
   16BMANN   H4 5082   3.077   4.096  10.926
   16BMANN   O4 5083   3.051   4.082  11.130
   16BMANN  HO4 5084   3.005   3.998  11.131
   16BMANN   C6 5085   3.194   4.325  11.033
   16BMANN  H61 5086   3.227   4.282  11.130
   16BMANN  H62 5087   3.256   4.281  10.953
   16BMANN   O6 5088   3.215   4.466  11.037
   16BMANN  HO6 5089   3.205   4.500  10.947
   17BGLCN   C1 5090   2.876   4.731  10.996
   17BGLCN   H1 5091   2.799   4.807  10.970
   17BGLCN   C5 5092   3.036   4.898  11.045
   17BGLCN   H5 5093   2.958   4.974  11.026
   17BGLCN   O5 5094   3.008   4.780  10.970
   17BGLCN   C2 5095   2.865   4.690  11.141
   17BGLCN   H2 5096   2.945   4.616  11.161
   17BGLCN    N 5097   2.737   4.624  11.161
   17BGLCN   HN 5098   2.667   4.649  11.093
   17BGLCN    C 5099   2.711   4.527  11.248
   17BGLCN    O 5100   2.794   4.483  11.326
   17BGLCN   CT 5101   2.572   4.470  11.245
   17BGLCN  HT1 5102   2.573   4.372  11.193
   17BGLCN  HT2 5103   2.503   4.539  11.190
   17BGLCN  HT3 5104   2.535   4.456  11.349
   17BGLCN   C3 5105   2.891   4.813  11.227
   17BGLCN   H3 5106   2.820   4.891  11.193
   17BGLCN   O3 5107   2.865   4.785  11.367
   17BGLCN   C4 5108   3.032   4.862  11.193
   17BGLCN   H4 5109   3.103   4.779  11.213
   17BGLCN   O4 5110   3.074   4.973  11.273
   17BGLCN  HO4 5111   3.170   4.970  11.280
   17BGLCN   C6 5112   3.167   4.955  10.992
   17BGLCN  H61 5113   3.192   5.049  11.047
   17BGLCN  H62 5114   3.249   4.882  11.009
   17BGLCN   O6 5115   3.158   4.983  10.852
   17BGLCN  HO6 5116   3.147   4.899  10.807
   18AGAL    C1 5117   2.819   4.894  11.446
   18AGAL    H1 5118   2.900   4.968  11.458
   18AGAL    C5 5119   2.591   4.873  11.374
   18AGAL    H5 5120   2.623   4.785  11.314
   18AGAL    O5 5121   2.704   4.960  11.388
   18AGAL    C2 5122   2.776   4.848  11.585
   18AGAL    H2 5123   2.734   4.940  11.630
   18AGAL    O2 5124   2.884   4.806  11.670
   18AGAL    C3 5125   2.662   4.746  11.572
   18AGAL    H3 5126   2.697   4.664  11.506
   18AGAL    O3 5127   2.626   4.685  11.697
   18AGAL   HO3 5128   2.599   4.594  11.683
   18AGAL    C4 5129   2.543   4.816  11.509
   18AGAL    H4 5130   2.464   4.741  11.488
   18AGAL    O4 5131   2.489   4.913  11.596
   18AGAL   HO4 5132   2.490   4.875  11.684
   18AGAL    C6 5133   2.487   4.943  11.288
   18AGAL   H61 5134   2.532   4.971  11.191
   18AGAL   H62 5135   2.403   4.874  11.266
   18AGAL    O6 5136   2.434   5.062  11.349
   18AGAL   HO6 5137   2.507   5.115  11.383
   19ARHM    C1 5138   2.861   4.843  11.805
   19ARHM    H1 5139   2.753   4.849  11.828
   19ARHM    C5 5140   3.059   4.978  11.824
   19ARHM    H5 5141   3.086   4.955  11.718
   19ARHM    O5 5142   2.917   4.972  11.839
   19ARHM    C2 5143   2.922   4.738  11.894
   19ARHM    H2 5144   2.890   4.639  11.854
   19ARHM    O2 5145   2.878   4.750  12.031
   19ARHM    C3 5146   3.072   4.738  11.883
   19ARHM    H3 5147   3.100   4.716  11.777
   19ARHM    O3 5148   3.129   4.635  11.964
   19ARHM   HO3 5149   3.116   4.659  12.057
   19ARHM    C4 5150   3.125   4.877  11.918
   19ARHM    H4 5151   3.094   4.901  12.022
   19ARHM    O4 5152   3.268   4.884  11.912
   19ARHM   HO4 5153   3.298   4.937  11.838
   19ARHM    C6 5154   3.097   5.124  11.853
   19ARHM   H61 5155   3.046   5.192  11.781
   19ARHM   H62 5156   3.066   5.152  11.957
   19ARHM   H63 5157   3.207   5.140  11.843
   20ARHM    C1 5158   2.756   4.684  12.061
   20ARHM    H1 5159   2.735   4.606  11.984
   20ARHM    C5 5160   2.650   4.871  12.168
   20ARHM    H5 5161   2.734   4.941  12.145
   20ARHM    O5 5162   2.642   4.771  12.065
   20ARHM    C2 5163   2.773   4.618  12.196
   20ARHM    H2 5164   2.866   4.557  12.194
   20ARHM    O2 5165   2.661   4.534  12.227
   20ARHM    C3 5166   2.788   4.720  12.304
   20ARHM    H3 5167   2.881   4.780  12.287
   20ARHM    O3 5168   2.796   4.646  12.425
   20ARHM    C4 5169   2.667   4.809  12.304
   20ARHM    H4 5170   2.577   4.746  12.326
   20ARHM    O4 5171   2.676   4.908  12.406
   20ARHM   HO4 5172   2.601   4.968  12.398
   20ARHM    C6 5173   2.515   4.944  12.154
   20ARHM   H61 5174   2.431   4.871  12.161
   20ARHM   H62 5175   2.501   5.021  12.232
   20ARHM   H63 5176   2.508   4.994  12.054
   21BMANN   C1 5177   2.657   4.417  12.151
   21BMANN   H1 5178   2.754   4.402  12.097
   21BMANN   C5 5179   2.556   4.308  11.967
   21BMANN   H5 5180   2.655   4.305  11.916
   21BMANN   O5 5181   2.553   4.424  12.052
   21BMANN   C2 5182   2.633   4.299  12.242
   21BMANN   H2 5183   2.719   4.297  12.314
   21BMANN    N 5184   2.512   4.316  12.321
   21BMANN   HN 5185   2.448   4.386  12.288
   21BMANN    C 5186   2.486   4.253  12.436
   21BMANN    O 5187   2.558   4.165  12.479
   21BMANN   CT 5188   2.363   4.297  12.510
   21BMANN  HT1 5189   2.276   4.236  12.478
   21BMANN  HT2 5190   2.342   4.405  12.491
   21BMANN  HT3 5191   2.379   4.283  12.620
   21BMANN   C3 5192   2.640   4.174  12.158
   21BMANN   H3 5193   2.741   4.170  12.109
   21BMANN   O3 5194   2.629   4.057  12.238
   21BMANN  HO3 5195   2.603   4.084  12.326
   21BMANN   C4 5196   2.535   4.181  12.047
   21BMANN   H4 5197   2.433   4.181  12.092
   21BMANN   O4 5198   2.548   4.070  11.960
   21BMANN  HO4 5199   2.477   4.006  11.975
   21BMANN   C6 5200   2.452   4.328  11.856
   21BMANN  H61 5201   2.459   4.245  11.783
   21BMANN  H62 5202   2.350   4.326  11.899
   21BMANN   O6 5203   2.472   4.451  11.786
   21BMANN  HO6 5204   2.437   4.523  11.840
   22BGLCN   C1 5205   2.894   4.682  12.517
   22BGLCN   H1 5206   2.919   4.790  12.512
   22BGLCN   C5 5207   3.106   4.617  12.606
   22BGLCN   H5 5208   3.139   4.722  12.609
   22BGLCN   O5 5209   3.009   4.599  12.500
   22BGLCN   C2 5210   2.824   4.648  12.647
   22BGLCN   H2 5211   2.796   4.540  12.644
   22BGLCN    N 5212   2.701   4.726  12.655
   22BGLCN   HN 5213   2.701   4.809  12.599
   22BGLCN    C 5214   2.584   4.689  12.707
   22BGLCN    O 5215   2.564   4.581  12.763
   22BGLCN   CT 5216   2.473   4.789  12.696
   22BGLCN  HT1 5217   2.395   4.749  12.627
   22BGLCN  HT2 5218   2.511   4.885  12.655
   22BGLCN  HT3 5219   2.427   4.805  12.795
   22BGLCN   C3 5220   2.919   4.668  12.762
   22BGLCN   H3 5221   2.951   4.775  12.763
   22BGLCN   O3 5222   2.844   4.639  12.881
   22BGLCN   C4 5223   3.042   4.582  12.741
   22BGLCN   H4 5224   3.011   4.475  12.738
   22BGLCN   O4 5225   3.137   4.601  12.843
   22BGLCN  HO4 5226   3.185   4.520  12.863
   22BGLCN   C6 5227   3.223   4.528  12.569
   22BGLCN  H61 5228   3.288   4.511  12.658
   22BGLCN  H62 5229   3.186   4.428  12.538
   22BGLCN   O6 5230   3.304   4.584  12.465
   22BGLCN  HO6 5231   3.269   4.552  12.381
   23AGAL    C1 5232   2.895   4.683  13.005
   23AGAL    H1 5233   2.987   4.627  13.031
   23AGAL    C5 5234   2.810   4.905  12.977
   23AGAL    H5 5235   2.770   4.873  12.877
   23AGAL    O5 5236   2.925   4.824  13.006
   23AGAL    C2 5237   2.790   4.655  13.111
   23AGAL    H2 5238   2.830   4.690  13.208
   23AGAL    O2 5239   2.762   4.514  13.120
   23AGAL    C3 5240   2.664   4.735  13.082
   23AGAL    H3 5241   2.625   4.704  12.982
   23AGAL    O3 5242   2.561   4.709  13.177
   23AGAL   HO3 5243   2.584   4.759  13.255
   23AGAL    C4 5244   2.699   4.882  13.079
   23AGAL    H4 5245   2.609   4.939  13.045
   23AGAL    O4 5246   2.734   4.930  13.208
   23AGAL   HO4 5247   2.796   5.002  13.193
   23AGAL    C6 5248   2.857   5.049  12.958
   23AGAL   H61 5249   2.948   5.049  12.894
   23AGAL   H62 5250   2.779   5.107  12.905
   23AGAL    O6 5251   2.887   5.114  13.082
   23AGAL   HO6 5252   2.936   5.196  13.069
   24ARHM    C1 5253   2.847   4.441  13.204
   24ARHM    H1 5254   2.945   4.493  13.213
   24ARHM    C5 5255   2.761   4.227  13.148
   24ARHM    H5 5256   2.687   4.271  13.076
   24ARHM    O5 5257   2.877   4.311  13.154
   24ARHM    C2 5258   2.784   4.436  13.342
   24ARHM    H2 5259   2.753   4.538  13.373
   24ARHM    O2 5260   2.875   4.382  13.439
   24ARHM    C3 5261   2.658   4.351  13.336
   24ARHM    H3 5262   2.586   4.397  13.266
   24ARHM    O3 5263   2.595   4.346  13.464
   24ARHM   HO3 5264   2.559   4.258  13.474
   24ARHM    C4 5265   2.697   4.214  13.286
   24ARHM    H4 5266   2.773   4.172  13.353
   24ARHM    O4 5267   2.587   4.122  13.283
   24ARHM   HO4 5268   2.614   4.045  13.333
   24ARHM    C6 5269   2.809   4.092  13.090
   24ARHM   H61 5270   2.723   4.023  13.075
   24ARHM   H62 5271   2.860   4.106  12.993
   24ARHM   H63 5272   2.880   4.044  13.161
   25ARHM    C1 5273   2.962   4.477  13.498
   25ARHM    H1 5274   2.976   4.561  13.426
   25ARHM    C5 5275   3.090   4.315  13.614
   25ARHM    H5 5276   3.023   4.235  13.575
   25ARHM    O5 5277   3.092   4.424  13.522
   25ARHM    C2 5278   2.901   4.528  13.625
   25ARHM    H2 5279   2.795   4.559  13.606
   25ARHM    O2 5280   2.974   4.641  13.676
   25ARHM    C3 5281   2.896   4.419  13.728
   25ARHM    H3 5282   2.828   4.338  13.691
   25ARHM    O3 5283   2.842   4.476  13.849
   25ARHM    C4 5284   3.036   4.364  13.749
   25ARHM    H4 5285   3.101   4.446  13.786
   25ARHM    O4 5286   3.038   4.258  13.845
   25ARHM   HO4 5287   3.126   4.249  13.880
   25ARHM    C6 5288   3.233   4.258  13.620
   25ARHM   H61 5289   3.265   4.228  13.519
   25ARHM   H62 5290   3.304   4.335  13.659
   25ARHM   H63 5291   3.237   4.169  13.686
   26BMANN   C1 5292   2.947   4.762  13.611
   26BMANN   H1 5293   2.843   4.763  13.571
   26BMANN   C5 5294   3.018   4.912  13.440
   26BMANN   H5 5295   2.914   4.910  13.401
   26BMANN   O5 5296   3.043   4.787  13.508
   26BMANN   C2 5297   2.961   4.870  13.717
   26BMANN   H2 5298   2.881   4.850  13.791
   26BMANN    N 5299   3.089   4.864  13.786
   26BMANN   HN 5300   3.165   4.822  13.736
   26BMANN    C 5301   3.106   4.900  13.913
   26BMANN    O 5302   3.014   4.943  13.981
   26BMANN   CT 5303   3.245   4.884  13.970
   26BMANN  HT1 5304   3.302   4.810  13.911
   26BMANN  HT2 5305   3.238   4.850  14.075
   26BMANN  HT3 5306   3.296   4.983  13.967
   26BMANN   C3 5307   2.929   5.003  13.651
   26BMANN   H3 5308   2.829   4.994  13.604
   26BMANN   O3 5309   2.917   5.111  13.743
   26BMANN  HO3 5310   2.994   5.115  13.801
   26BMANN   C4 5311   3.028   5.029  13.538
   26BMANN   H4 5312   3.131   5.033  13.582
   26BMANN   O4 5313   3.002   5.151  13.472
   26BMANN  HO4 5314   2.995   5.220  13.540
   26BMANN   C6 5315   3.109   4.925  13.318
   26BMANN  H61 5316   3.101   4.832  13.258
   26BMANN  H62 5317   3.074   5.009  13.255
   26BMANN   O6 5318   3.246   4.947  13.352
   26BMANN  HO6 5319   3.254   5.032  13.395
   27BGLCN   C1 5320   2.765   4.391  13.929
   27BGLCN   H1 5321   2.804   4.287  13.926
   27BGLCN   C5 5322   2.546   4.311  13.972
   27BGLCN   H5 5323   2.590   4.209  13.972
   27BGLCN   O5 5324   2.628   4.394  13.888
   27BGLCN   C2 5325   2.776   4.448  14.069
   27BGLCN   H2 5326   2.731   4.549  14.068
   27BGLCN    N 5327   2.916   4.462  14.107
   27BGLCN   HN 5328   2.982   4.410  14.055
   27BGLCN    C 5329   2.961   4.553  14.196
   27BGLCN    O 5330   2.886   4.627  14.259
   27BGLCN   CT 5331   3.110   4.561  14.211
   27BGLCN  HT1 5332   3.161   4.479  14.156
   27BGLCN  HT2 5333   3.135   4.554  14.319
   27BGLCN  HT3 5334   3.146   4.659  14.173
   27BGLCN   C3 5335   2.693   4.362  14.165
   27BGLCN   H3 5336   2.731   4.258  14.155
   27BGLCN   O3 5337   2.714   4.406  14.300
   27BGLCN   C4 5338   2.549   4.363  14.116
   27BGLCN   H4 5339   2.513   4.468  14.116
   27BGLCN   O4 5340   2.462   4.287  14.197
   27BGLCN  HO4 5341   2.481   4.193  14.189
   27BGLCN   C6 5342   2.408   4.300  13.911
   27BGLCN  H61 5343   2.339   4.252  13.982
   27BGLCN  H62 5344   2.369   4.402  13.888
   27BGLCN   O6 5345   2.409   4.221  13.791
   27BGLCN  HO6 5346   2.321   4.221  13.753
   28AGAL    C1 5347   2.674   4.322  14.407
   28AGAL    H1 5348   2.564   4.329  14.419
   28AGAL    C5 5349   2.853   4.163  14.379
   28AGAL    H5 5350   2.894   4.230  14.300
   28AGAL    O5 5351   2.709   4.183  14.383
   28AGAL    C2 5352   2.736   4.365  14.539
   28AGAL    H2 5353   2.700   4.288  14.611
   28AGAL    O2 5354   2.694   4.494  14.587
   28AGAL    C3 5355   2.887   4.352  14.533
   28AGAL    H3 5356   2.922   4.413  14.446
   28AGAL    O3 5357   2.953   4.405  14.648
   28AGAL   HO3 5358   3.001   4.484  14.624
   28AGAL    C4 5359   2.922   4.207  14.508
   28AGAL    H4 5360   3.032   4.200  14.491
   28AGAL    O4 5361   2.892   4.122  14.619
   28AGAL   HO4 5362   2.976   4.095  14.656
   28AGAL    C6 5363   2.884   4.022  14.332
   28AGAL   H61 5364   2.841   4.007  14.229
   28AGAL   H62 5365   2.994   4.010  14.324
   28AGAL    O6 5366   2.833   3.918  14.416
   28AGAL   HO6 5367   2.737   3.920  14.416
   29ARHM    C1 5368   2.663   4.494  14.725
   29ARHM    H1 5369   2.716   4.410  14.775
   29ARHM    C5 5370   2.447   4.589  14.689
   29ARHM    H5 5371   2.468   4.595  14.580
   29ARHM    O5 5372   2.521   4.480  14.746
   29ARHM    C2 5373   2.710   4.621  14.793
   29ARHM    H2 5374   2.819   4.633  14.771
   29ARHM    O2 5375   2.691   4.612  14.936
   29ARHM    C3 5376   2.638   4.741  14.736
   29ARHM    H3 5377   2.661   4.748  14.628
   29ARHM    O3 5378   2.684   4.861  14.798
   29ARHM   HO3 5379   2.699   4.929  14.732
   29ARHM    C4 5380   2.488   4.721  14.754
   29ARHM    H4 5381   2.467   4.714  14.863
   29ARHM    O4 5382   2.410   4.829  14.702
   29ARHM   HO4 5383   2.444   4.857  14.617
   29ARHM    C6 5384   2.298   4.555  14.707
   29ARHM   H61 5385   2.275   4.458  14.659
   29ARHM   H62 5386   2.273   4.549  14.815
   29ARHM   H63 5387   2.235   4.633  14.660
   30ARHM    C1 5388   2.807   4.580  15.009
   30ARHM    H1 5389   2.891   4.644  14.977
   30ARHM    C5 5390   2.742   4.350  15.036
   30ARHM    H5 5391   2.648   4.368  14.980
   30ARHM    O5 5392   2.843   4.442  14.993
   30ARHM    C2 5393   2.779   4.605  15.156
   30ARHM    H2 5394   2.745   4.710  15.167
   30ARHM    O2 5395   2.898   4.584  15.233
   30ARHM    C3 5396   2.671   4.513  15.208
   30ARHM    H3 5397   2.581   4.531  15.146
   30ARHM    O3 5398   2.634   4.550  15.343
   30ARHM    C4 5399   2.714   4.368  15.185
   30ARHM    H4 5400   2.808   4.346  15.240
   30ARHM    O4 5401   2.615   4.274  15.227
   30ARHM   HO4 5402   2.527   4.314  15.220
   30ARHM    C6 5403   2.794   4.210  14.999
   30ARHM   H61 5404   2.718   4.133  15.022
   30ARHM   H62 5405   2.819   4.206  14.891
   30ARHM   H63 5406   2.886   4.187  15.057
   31BMANN   C1 5407   2.976   4.697  15.264
   31BMANN   H1 5408   2.912   4.786  15.285
   31BMANN   C5 5409   3.162   4.833  15.199
   31BMANN   H5 5410   3.101   4.925  15.217
   31BMANN   O5 5411   3.074   4.724  15.163
   31BMANN   C2 5412   3.052   4.653  15.387
   31BMANN   H2 5413   2.976   4.634  15.466
   31BMANN    N 5414   3.122   4.528  15.362
   31BMANN   HN 5415   3.142   4.508  15.266
   31BMANN    C 5416   3.155   4.440  15.456
   31BMANN    O 5417   3.128   4.460  15.574
   31BMANN   CT 5418   3.224   4.315  15.410
   31BMANN  HT1 5419   3.313   4.341  15.349
   31BMANN  HT2 5420   3.155   4.252  15.350
   31BMANN  HT3 5421   3.257   4.257  15.499
   31BMANN   C3 5422   3.139   4.766  15.434
   31BMANN   H3 5423   3.076   4.856  15.449
   31BMANN   O3 5424   3.198   4.737  15.560
   31BMANN  HO3 5425   3.191   4.644  15.579
   31BMANN   C4 5426   3.239   4.799  15.326
   31BMANN   H4 5427   3.306   4.712  15.306
   31BMANN   O4 5428   3.321   4.909  15.365
   31BMANN  HO4 5429   3.352   4.892  15.454
   31BMANN   C6 5430   3.254   4.860  15.081
   31BMANN  H61 5431   3.330   4.936  15.108
   31BMANN  H62 5432   3.307   4.766  15.055
   31BMANN   O6 5433   3.183   4.908  14.966
   31BMANN  HO6 5434   3.154   4.998  14.982
   32BGLCN   C1 5435   2.706   4.491  15.450
   32BGLCN   H1 5436   2.814   4.483  15.425
   32BGLCN   C5 5437   2.729   4.294  15.583
   32BGLCN   H5 5438   2.836   4.288  15.553
   32BGLCN   O5 5439   2.655   4.361  15.480
   32BGLCN   C2 5440   2.689   4.575  15.575
   32BGLCN   H2 5441   2.582   4.567  15.605
   32BGLCN    N 5442   2.721   4.715  15.553
   32BGLCN   HN 5443   2.816   4.736  15.531
   32BGLCN    C 5444   2.635   4.817  15.568
   32BGLCN    O 5445   2.518   4.803  15.601
   32BGLCN   CT 5446   2.689   4.954  15.540
   32BGLCN  HT1 5447   2.774   4.949  15.469
   32BGLCN  HT2 5448   2.721   5.003  15.634
   32BGLCN  HT3 5449   2.608   5.015  15.495
   32BGLCN   C3 5450   2.772   4.513  15.685
   32BGLCN   H3 5451   2.876   4.504  15.647
   32BGLCN   O3 5452   2.774   4.591  15.806
   32BGLCN   C4 5453   2.719   4.373  15.712
   32BGLCN   H4 5454   2.612   4.381  15.742
   32BGLCN   O4 5455   2.789   4.309  15.817
   32BGLCN  HO4 5456   2.783   4.365  15.895
   32BGLCN   C6 5457   2.675   4.153  15.588
   32BGLCN  H61 5458   2.732   4.093  15.662
   32BGLCN  H62 5459   2.569   4.154  15.620
   32BGLCN   O6 5460   2.685   4.091  15.459
   32BGLCN  HO6 5461   2.656   4.155  15.394
   33AGAL    C1 5462   2.905   4.606  15.859
   33AGAL    H1 5463   2.965   4.515  15.843
   33AGAL    C5 5464   2.911   4.844  15.824
   33AGAL    H5 5465   2.807   4.844  15.784
   33AGAL    O5 5466   2.972   4.717  15.797
   33AGAL    C2 5467   2.898   4.631  16.009
   33AGAL    H2 5468   3.004   4.641  16.042
   33AGAL    O2 5469   2.841   4.518  16.076
   33AGAL    C3 5470   2.825   4.761  16.037
   33AGAL    H3 5471   2.724   4.754  15.992
   33AGAL    O3 5472   2.806   4.785  16.176
   33AGAL   HO3 5473   2.885   4.828  16.208
   33AGAL    C4 5474   2.901   4.874  15.973
   33AGAL    H4 5475   2.844   4.969  15.986
   33AGAL    O4 5476   3.029   4.893  16.032
   33AGAL   HO4 5477   3.092   4.907  15.960
   33AGAL    C6 5478   2.991   4.950  15.748
   33AGAL   H61 5479   2.971   4.940  15.639
   33AGAL   H62 5480   2.958   5.051  15.779
   33AGAL    O6 5481   3.132   4.937  15.769
   33AGAL   HO6 5482   3.161   4.857  15.725
   34ARHM    C1 5483   2.905   4.487  16.198
   34ARHM    H1 5484   2.928   4.581  16.254
   34ARHM    C5 5485   3.008   4.294  16.106
   34ARHM    H5 5486   2.967   4.317  16.005
   34ARHM    O5 5487   3.027   4.415  16.179
   34ARHM    C2 5488   2.810   4.402  16.280
   34ARHM    H2 5489   2.714   4.457  16.290
   34ARHM    O2 5490   2.860   4.373  16.412
   34ARHM    C3 5491   2.781   4.273  16.205
   34ARHM    H3 5492   2.735   4.298  16.107
   34ARHM    O3 5493   2.687   4.193  16.278
   34ARHM   HO3 5494   2.655   4.122  16.222
   34ARHM    C4 5495   2.912   4.201  16.180
   34ARHM    H4 5496   2.958   4.173  16.278
   34ARHM    O4 5497   2.891   4.082  16.103
   34ARHM   HO4 5498   2.922   4.006  16.152
   34ARHM    C6 5499   3.150   4.236  16.087
   34ARHM   H61 5500   3.196   4.216  16.186
   34ARHM   H62 5501   3.147   4.142  16.029
   34ARHM   H63 5502   3.213   4.310  16.034
   35ARHM    C1 5503   2.873   4.484  16.498
   35ARHM    H1 5504   2.796   4.560  16.473
   35ARHM    C5 5505   3.110   4.454  16.523
   35ARHM    H5 5506   3.109   4.367  16.454
   35ARHM    O5 5507   3.003   4.544  16.489
   35ARHM    C2 5508   2.850   4.432  16.638
   35ARHM    H2 5509   2.753   4.378  16.640
   35ARHM    O2 5510   2.846   4.536  16.737
   35ARHM    C3 5511   2.958   4.333  16.676
   35ARHM    H3 5512   2.958   4.249  16.602
   35ARHM    O3 5513   2.935   4.274  16.804
   35ARHM   HO3 5514   3.021   4.266  16.845
   35ARHM    C4 5515   3.091   4.405  16.667
   35ARHM    H4 5516   3.087   4.495  16.732
   35ARHM    O4 5517   3.201   4.326  16.713
   35ARHM   HO4 5518   3.211   4.248  16.659
   35ARHM    C6 5519   3.240   4.532  16.500
   35ARHM   H61 5520   3.247   4.563  16.393
   35ARHM   H62 5521   3.243   4.623  16.564
   35ARHM   H63 5522   3.329   4.468  16.523
   36BMANN   C1 5523   2.735   4.622  16.732
   36BMANN   H1 5524   2.646   4.569  16.691
   36BMANN   C5 5525   2.653   4.829  16.647
   36BMANN   H5 5526   2.565   4.776  16.605
   36BMANN   O5 5527   2.764   4.738  16.653
   36BMANN   C2 5528   2.710   4.668  16.874
   36BMANN   H2 5529   2.684   4.575  16.930
   36BMANN    N 5530   2.828   4.726  16.936
   36BMANN   HN 5531   2.889   4.777  16.875
   36BMANN    C 5532   2.856   4.719  17.067
   36BMANN    O 5533   2.787   4.654  17.147
   36BMANN   CT 5534   2.978   4.794  17.113
   36BMANN  HT1 5535   2.977   4.897  17.071
   36BMANN  HT2 5536   3.070   4.741  17.081
   36BMANN  HT3 5537   2.978   4.801  17.224
   36BMANN   C3 5538   2.589   4.759  16.875
   36BMANN   H3 5539   2.502   4.705  16.834
   36BMANN   O3 5540   2.556   4.800  17.008
   36BMANN  HO3 5541   2.496   4.737  17.049
   36BMANN   C4 5542   2.617   4.879  16.787
   36BMANN   H4 5543   2.704   4.935  16.828
   36BMANN   O4 5544   2.506   4.968  16.780
   36BMANN  HO4 5545   2.474   4.985  16.869
   36BMANN   C6 5546   2.688   4.941  16.551
   36BMANN  H61 5547   2.713   4.897  16.452
   36BMANN  H62 5548   2.601   5.008  16.536
   36BMANN   O6 5549   2.801   5.018  16.594
   36BMANN  HO6 5550   2.780   5.069  16.672
    1ECLIP HB6S 5551   4.520   2.000   6.681
    1ECLIP  OB6 5552   4.373   1.910   6.797
    1ECLIP  CB6 5553   4.473   1.901   6.694
    1ECLIP HB6R 5554   4.552   1.828   6.723
    1ECLIP  CB5 5555   4.416   1.858   6.561
    1ECLIP  OB5 5556   4.316   1.953   6.519
    1ECLIP  HB5 5557   4.367   1.759   6.576
    1ECLIP  CB1 5558   4.247   1.909   6.403
    1ECLIP  HB1 5559   4.206   1.807   6.422
    1ECLIP  OA6 5560   4.137   1.990   6.368
    1ECLIP  CA6 5561   4.160   2.131   6.372
    1ECLIP HA6R 5562   4.268   2.155   6.354
    1ECLIP HA6S 5563   4.135   2.170   6.472
    1ECLIP  CB4 5564   4.522   1.846   6.450
    1ECLIP  HB4 5565   4.568   1.945   6.432
    1ECLIP  OB4 5566   4.616   1.751   6.497
    1ECLIP   PB 5567   4.775   1.773   6.518
    1ECLIP OPB4 5568   4.818   1.646   6.587
    1ECLIP OPB3 5569   4.798   1.903   6.594
    1ECLIP OPB2 5570   4.838   1.762   6.381
    1ECLIP  CB3 5571   4.455   1.800   6.322
    1ECLIP  OB3 5572   4.543   1.799   6.210
    1ECLIP  HB3 5573   4.409   1.700   6.337
    1ECLIP  C71 5574   4.627   1.702   6.188
    1ECLIP  O71 5575   4.648   1.604   6.259
    1ECLIP  C72 5576   4.690   1.719   6.050
    1ECLIP H72R 5577   4.609   1.733   5.976
    1ECLIP H72S 5578   4.746   1.626   6.028
    1ECLIP  CB2 5579   4.344   1.898   6.286
    1ECLIP  HB2 5580   4.391   1.998   6.273
    1ECLIP  NB2 5581   4.275   1.863   6.162
    1ECLIP HNB2 5582   4.195   1.803   6.169
    1ECLIP  CA4 5583   3.984   2.111   6.184
    1ECLIP  HA4 5584   4.049   2.035   6.136
    1ECLIP  OA4 5585   3.891   2.044   6.269
    1ECLIP HOA4 5586   3.935   2.031   6.353
    1ECLIP  CA5 5587   4.074   2.203   6.267
    1ECLIP  HA5 5588   4.013   2.280   6.318
    1ECLIP  OA5 5589   4.167   2.268   6.179
    1ECLIP  CA1 5590   4.106   2.349   6.077
    1ECLIP  HA1 5591   4.186   2.395   6.016
    1ECLIP  OA1 5592   4.019   2.448   6.127
    1ECLIP OPA2 5593   3.990   2.570   6.347
    1ECLIP OPA3 5594   4.213   2.590   6.226
    1ECLIP OPA4 5595   3.995   2.697   6.149
    1ECLIP   PA 5596   4.063   2.578   6.214
    1ECLIP  CA3 5597   3.915   2.191   6.075
    1ECLIP  HA3 5598   3.860   2.273   6.127
    1ECLIP  OA3 5599   3.810   2.119   6.009
    1ECLIP  C31 5600   3.844   2.005   5.950
    1ECLIP  O31 5601   3.919   1.995   5.854
    1ECLIP  C32 5602   3.749   1.896   5.999
    1ECLIP H32R 5603   3.676   1.874   5.919
    1ECLIP H32S 5604   3.694   1.934   6.089
    1ECLIP  CA2 5605   4.024   2.255   5.988
    1ECLIP  HA2 5606   4.091   2.173   5.957
    1ECLIP  NA2 5607   3.977   2.321   5.868
    1ECLIP HNA2 5608   3.888   2.367   5.874
    1ECLIP  C73 5609   4.784   1.840   6.049
    1ECLIP H73R 5610   4.845   1.839   6.142
    1ECLIP  O73 5611   4.705   1.958   6.039
    1ECLIP  C81 5612   4.760   2.071   6.079
    1ECLIP  O81 5613   4.872   2.083   6.127
    1ECLIP  C82 5614   4.675   2.189   6.033
    1ECLIP H82R 5615   4.724   2.282   6.072
    1ECLIP H82S 5616   4.575   2.180   6.079
    1ECLIP  C83 5617   4.662   2.197   5.880
    1ECLIP H83R 5618   4.596   2.114   5.846
    1ECLIP H83S 5619   4.760   2.185   5.830
    1ECLIP  C84 5620   4.600   2.329   5.832
    1ECLIP H84R 5621   4.671   2.413   5.848
    1ECLIP H84S 5622   4.508   2.350   5.891
    1ECLIP  C85 5623   4.560   2.321   5.683
    1ECLIP H85R 5624   4.478   2.247   5.675
    1ECLIP H85S 5625   4.647   2.283   5.624
    1ECLIP  C86 5626   4.511   2.453   5.622
    1ECLIP H86R 5627   4.597   2.522   5.610
    1ECLIP H86S 5628   4.439   2.500   5.693
    1ECLIP  C87 5629   4.440   2.434   5.487
    1ECLIP H87R 5630   4.420   2.534   5.441
    1ECLIP H87S 5631   4.342   2.386   5.507
    1ECLIP  C88 5632   4.517   2.345   5.389
    1ECLIP H88R 5633   4.526   2.244   5.434
    1ECLIP H88S 5634   4.620   2.384   5.374
    1ECLIP  C89 5635   4.449   2.327   5.252
    1ECLIP H89R 5636   4.340   2.310   5.266
    1ECLIP H89S 5637   4.490   2.233   5.208
    1ECLIP C810 5638   4.473   2.443   5.155
    1ECLIPH810R 5639   4.574   2.485   5.171
    1ECLIPH810S 5640   4.400   2.524   5.179
    1ECLIP C811 5641   4.458   2.401   5.007
    1ECLIPH811R 5642   4.454   2.493   4.944
    1ECLIPH811S 5643   4.361   2.349   4.997
    1ECLIP C812 5644   4.571   2.310   4.954
    1ECLIPH812R 5645   4.542   2.274   4.853
    1ECLIPH812S 5646   4.580   2.221   5.019
    1ECLIP C813 5647   4.707   2.380   4.944
    1ECLIPH813R 5648   4.698   2.467   4.875
    1ECLIPH813S 5649   4.736   2.419   5.044
    1ECLIP C814 5650   4.818   2.287   4.894
    1ECLIPH814R 5651   4.791   2.242   4.796
    1ECLIPH814S 5652   4.835   2.205   4.967
    1ECLIPH814T 5653   4.914   2.343   4.882
    1ECLIP  C74 5654   4.882   1.836   5.929
    1ECLIP H74R 5655   4.941   1.742   5.933
    1ECLIP H74S 5656   4.953   1.920   5.943
    1ECLIP  C75 5657   4.819   1.850   5.789
    1ECLIP H75R 5658   4.895   1.895   5.722
    1ECLIP H75S 5659   4.733   1.920   5.792
    1ECLIP  C76 5660   4.774   1.718   5.723
    1ECLIP H76R 5661   4.686   1.675   5.776
    1ECLIP H76S 5662   4.856   1.644   5.729
    1ECLIP  C77 5663   4.737   1.740   5.575
    1ECLIP H77R 5664   4.824   1.791   5.528
    1ECLIP H77S 5665   4.650   1.809   5.570
    1ECLIP  C78 5666   4.706   1.611   5.498
    1ECLIP H78R 5667   4.797   1.548   5.497
    1ECLIP H78S 5668   4.626   1.555   5.551
    1ECLIP  C79 5669   4.661   1.636   5.352
    1ECLIP H79R 5670   4.555   1.671   5.353
    1ECLIP H79S 5671   4.662   1.539   5.297
    1ECLIP C710 5672   4.746   1.740   5.278
    1ECLIPH710R 5673   4.741   1.836   5.332
    1ECLIPH710S 5674   4.852   1.706   5.278
    1ECLIP C711 5675   4.699   1.767   5.135
    1ECLIPH711R 5676   4.704   1.673   5.076
    1ECLIPH711S 5677   4.593   1.800   5.138
    1ECLIP C712 5678   4.783   1.877   5.069
    1ECLIPH712R 5679   4.887   1.839   5.056
    1ECLIPH712S 5680   4.788   1.964   5.137
    1ECLIP C713 5681   4.729   1.924   4.933
    1ECLIPH713R 5682   4.633   1.976   4.950
    1ECLIPH713S 5683   4.800   1.997   4.891
    1ECLIP C714 5684   4.708   1.811   4.833
    1ECLIPH714R 5685   4.803   1.756   4.815
    1ECLIPH714S 5686   4.632   1.739   4.870
    1ECLIPH714T 5687   4.672   1.852   4.736
    1ECLIP  C51 5688   4.311   1.906   6.042
    1ECLIP  O51 5689   4.398   1.990   6.025
    1ECLIP  C52 5690   4.239   1.839   5.926
    1ECLIP H52R 5691   4.276   1.735   5.917
    1ECLIP H52S 5692   4.131   1.835   5.953
    1ECLIP  C53 5693   4.252   1.910   5.790
    1ECLIP H53R 5694   4.223   2.017   5.801
    1ECLIP  O53 5695   4.161   1.836   5.709
    1ECLIP  C61 5696   4.082   1.905   5.628
    1ECLIP  O61 5697   4.104   2.016   5.585
    1ECLIP  C62 5698   3.998   1.800   5.554
    1ECLIP H62R 5699   3.937   1.745   5.628
    1ECLIP H62S 5700   4.070   1.730   5.507
    1ECLIP  C63 5701   3.906   1.862   5.446
    1ECLIP H63R 5702   3.967   1.920   5.374
    1ECLIP H63S 5703   3.835   1.933   5.495
    1ECLIP  C64 5704   3.825   1.756   5.368
    1ECLIP H64R 5705   3.767   1.810   5.290
    1ECLIP H64S 5706   3.752   1.707   5.436
    1ECLIP  C65 5707   3.915   1.648   5.304
    1ECLIP H65R 5708   3.946   1.576   5.382
    1ECLIP H65S 5709   4.007   1.697   5.266
    1ECLIP  C66 5710   3.850   1.571   5.188
    1ECLIP H66R 5711   3.764   1.512   5.227
    1ECLIP H66S 5712   3.925   1.499   5.149
    1ECLIP  C67 5713   3.800   1.658   5.071
    1ECLIP H67R 5714   3.707   1.710   5.102
    1ECLIP H67S 5715   3.774   1.593   4.985
    1ECLIP  C68 5716   3.903   1.764   5.026
    1ECLIP H68R 5717   3.997   1.714   4.997
    1ECLIP H68S 5718   3.926   1.829   5.113
    1ECLIP  C69 5719   3.853   1.855   4.914
    1ECLIP H69R 5720   3.748   1.885   4.936
    1ECLIP H69S 5721   3.853   1.799   4.818
    1ECLIP C610 5722   3.938   1.982   4.905
    1ECLIPH610R 5723   4.044   1.955   4.887
    1ECLIPH610S 5724   3.934   2.033   5.004
    1ECLIP C611 5725   3.892   2.081   4.797
    1ECLIPH611R 5726   3.793   2.122   4.828
    1ECLIPH611S 5727   3.964   2.166   4.796
    1ECLIP C612 5728   3.879   2.023   4.657
    1ECLIPH612R 5729   3.867   2.103   4.582
    1ECLIPH612S 5730   3.970   1.963   4.632
    1ECLIPH612T 5731   3.791   1.955   4.651
    1ECLIP  C54 5732   4.395   1.900   5.731
    1ECLIP H54R 5733   4.421   1.793   5.714
    1ECLIP H54S 5734   4.467   1.939   5.806
    1ECLIP  C55 5735   4.418   1.980   5.602
    1ECLIP H55R 5736   4.524   2.014   5.597
    1ECLIP H55S 5737   4.354   2.071   5.606
    1ECLIP  C56 5738   4.386   1.899   5.477
    1ECLIP H56R 5739   4.287   1.849   5.490
    1ECLIP H56S 5740   4.460   1.817   5.466
    1ECLIP  C57 5741   4.379   1.982   5.349
    1ECLIP H57R 5742   4.482   2.016   5.323
    1ECLIP H57S 5743   4.316   2.072   5.366
    1ECLIP  C58 5744   4.320   1.897   5.237
    1ECLIP H58R 5745   4.369   1.797   5.241
    1ECLIP H58S 5746   4.211   1.881   5.257
    1ECLIP  C59 5747   4.339   1.955   5.097
    1ECLIP H59R 5748   4.445   1.989   5.087
    1ECLIP H59S 5749   4.273   2.043   5.082
    1ECLIP C510 5750   4.311   1.846   4.995
    1ECLIPH510R 5751   4.205   1.813   5.006
    1ECLIPH510S 5752   4.376   1.758   5.016
    1ECLIP C511 5753   4.336   1.891   4.851
    1ECLIPH511R 5754   4.266   1.974   4.827
    1ECLIPH511S 5755   4.439   1.930   4.842
    1ECLIP C512 5756   4.317   1.776   4.752
    1ECLIPH512R 5757   4.344   1.813   4.650
    1ECLIPH512S 5758   4.386   1.693   4.775
    1ECLIP C513 5759   4.173   1.723   4.745
    1ECLIPH513R 5760   4.101   1.808   4.749
    1ECLIPH513S 5761   4.155   1.659   4.833
    1ECLIP C514 5762   4.147   1.644   4.617
    1ECLIPH514R 5763   4.236   1.580   4.597
    1ECLIPH514S 5764   4.057   1.580   4.627
    1ECLIPH514T 5765   4.133   1.713   4.531
    1ECLIP  C33 5766   3.824   1.767   6.039
    1ECLIP H33R 5767   3.755   1.699   6.094
    1ECLIP  O33 5768   3.932   1.800   6.127
    1ECLIP HO33 5769   3.906   1.857   6.200
    1ECLIP  C34 5770   3.878   1.692   5.917
    1ECLIP H34R 5771   3.943   1.761   5.859
    1ECLIP H34S 5772   3.792   1.666   5.851
    1ECLIP  C35 5773   3.960   1.565   5.943
    1ECLIP H35R 5774   3.894   1.483   5.980
    1ECLIP H35S 5775   4.035   1.587   6.023
    1ECLIP  C36 5776   4.033   1.523   5.815
    1ECLIP H36R 5777   4.080   1.615   5.774
    1ECLIP H36S 5778   3.961   1.487   5.740
    1ECLIP  C37 5779   4.147   1.422   5.835
    1ECLIP H37R 5780   4.104   1.319   5.839
    1ECLIP H37S 5781   4.196   1.440   5.932
    1ECLIP  C38 5782   4.253   1.432   5.723
    1ECLIP H38R 5783   4.307   1.529   5.736
    1ECLIP H38S 5784   4.327   1.350   5.735
    1ECLIP  C39 5785   4.194   1.429   5.582
    1ECLIP H39R 5786   4.124   1.515   5.569
    1ECLIP H39S 5787   4.135   1.336   5.568
    1ECLIP C310 5788   4.300   1.439   5.471
    1ECLIPH310R 5789   4.360   1.346   5.471
    1ECLIPH310S 5790   4.368   1.524   5.495
    1ECLIP C311 5791   4.237   1.462   5.333
    1ECLIPH311R 5792   4.156   1.387   5.318
    1ECLIPH311S 5793   4.189   1.563   5.332
    1ECLIP C312 5794   4.337   1.452   5.219
    1ECLIPH312R 5795   4.419   1.525   5.235
    1ECLIPH312S 5796   4.383   1.350   5.219
    1ECLIP C313 5797   4.273   1.478   5.082
    1ECLIPH313R 5798   4.189   1.406   5.068
    1ECLIPH313S 5799   4.230   1.580   5.082
    1ECLIP C314 5800   4.372   1.463   4.965
    1ECLIPH314R 5801   4.414   1.361   4.962
    1ECLIPH314S 5802   4.321   1.484   4.868
    1ECLIPH314T 5803   4.456   1.535   4.977
    1ECLIP  C11 5804   4.053   2.337   5.759
    1ECLIP  O11 5805   4.163   2.283   5.745
    1ECLIP  C12 5806   4.003   2.434   5.653
    1ECLIP H12R 5807   4.063   2.526   5.665
    1ECLIP H12S 5808   3.896   2.458   5.671
    1ECLIP  C13 5809   4.022   2.380   5.510
    1ECLIP H13R 5810   4.124   2.338   5.498
    1ECLIP  O13 5811   4.010   2.491   5.424
    1ECLIP HO13 5812   4.018   2.466   5.332
    1ECLIP  C14 5813   3.918   2.275   5.466
    1ECLIP H14R 5814   3.819   2.306   5.506
    1ECLIP H14S 5815   3.944   2.178   5.513
    1ECLIP  C15 5816   3.901   2.256   5.312
    1ECLIP H15R 5817   3.855   2.349   5.273
    1ECLIP H15S 5818   3.827   2.175   5.295
    1ECLIP  C16 5819   4.029   2.224   5.233
    1ECLIP H16R 5820   4.037   2.113   5.226
    1ECLIP H16S 5821   4.120   2.258   5.289
    1ECLIP  C17 5822   4.032   2.286   5.094
    1ECLIP H17R 5823   3.934   2.265   5.043
    1ECLIP H17S 5824   4.111   2.237   5.032
    1ECLIP  C18 5825   4.057   2.438   5.094
    1ECLIP H18R 5826   3.985   2.485   5.163
    1ECLIP H18S 5827   4.160   2.460   5.130
    1ECLIP  C19 5828   4.033   2.505   4.957
    1ECLIP H19R 5829   4.019   2.614   4.972
    1ECLIP H19S 5830   3.936   2.466   4.917
    1ECLIP C110 5831   4.143   2.485   4.851
    1ECLIPH110R 5832   4.226   2.555   4.872
    1ECLIPH110S 5833   4.182   2.381   4.858
    1ECLIP C111 5834   4.083   2.508   4.712
    1ECLIPH111R 5835   4.014   2.423   4.695
    1ECLIPH111S 5836   4.023   2.601   4.714
    1ECLIP C112 5837   4.179   2.511   4.594
    1ECLIPH112R 5838   4.247   2.599   4.598
    1ECLIPH112S 5839   4.242   2.420   4.594
    1ECLIP C113 5840   4.095   2.513   4.465
    1ECLIPH113R 5841   4.009   2.444   4.483
    1ECLIPH113S 5842   4.053   2.615   4.452
    1ECLIP C114 5843   4.161   2.466   4.337
    1ECLIPH114R 5844   4.210   2.368   4.351
    1ECLIPH114S 5845   4.085   2.454   4.256
    1ECLIPH114T 5846   4.237   2.540   4.301
    2AKDO    C1 5847   4.406   1.689   6.884
    2AKDO   O11 5848   4.518   1.630   6.884
    2AKDO   O12 5849   4.293   1.634   6.882
    2AKDO    C2 5850   4.407   1.842   6.917
    2AKDO    C6 5851   4.554   2.015   6.991
    2AKDO    H6 5852   4.510   2.065   6.903
    2AKDO    O6 5853   4.539   1.876   6.964
    2AKDO    C3 5854   4.307   1.890   7.024
    2AKDO   H31 5855   4.321   1.832   7.117
    2AKDO   H32 5856   4.204   1.872   6.986
    2AKDO    C4 5857   4.324   2.038   7.052
    2AKDO    H4 5858   4.311   2.091   6.955
    2AKDO    O4 5859   4.235   2.091   7.149
    2AKDO    C5 5860   4.464   2.064   7.105
    2AKDO    H5 5861   4.474   2.174   7.115
    2AKDO    O5 5862   4.480   1.999   7.234
    2AKDO    C7 5863   4.702   2.052   6.985
    2AKDO    H7 5864   4.743   2.070   7.087
    2AKDO    O7 5865   4.718   2.171   6.905
    2AKDO   HO7 5866   4.686   2.242   6.960
    2AKDO    C8 5867   4.779   1.936   6.919
    2AKDO   H81 5868   4.789   1.855   6.995
    2AKDO   H82 5869   4.721   1.891   6.835
    2AKDO    O8 5870   4.908   1.970   6.868
    2AKDO   HO8 5871   4.954   1.886   6.860
    3AKDO    C1 5872   4.136   2.262   6.991
    3AKDO   O11 5873   4.038   2.279   6.914
    3AKDO   O12 5874   4.243   2.329   6.993
    3AKDO    C2 5875   4.117   2.158   7.109
    3AKDO    C6 5876   3.992   1.968   7.190
    3AKDO    H6 5877   4.089   1.916   7.207
    3AKDO    O6 5878   4.010   2.064   7.083
    3AKDO    C3 5879   4.084   2.232   7.240
    3AKDO   H31 5880   3.992   2.292   7.224
    3AKDO   H32 5881   4.166   2.304   7.260
    3AKDO    C4 5882   4.067   2.139   7.355
    3AKDO    H4 5883   4.160   2.080   7.372
    3AKDO    O4 5884   4.046   2.215   7.473
    3AKDO   HO4 5885   4.128   2.221   7.523
    3AKDO    C5 5886   3.955   2.040   7.321
    3AKDO    H5 5887   3.950   1.965   7.403
    3AKDO    O5 5888   3.827   2.102   7.313
    3AKDO   HO5 5889   3.828   2.163   7.240
    3AKDO    C7 5890   3.893   1.860   7.149
    3AKDO    H7 5891   3.790   1.902   7.150
    3AKDO    O7 5892   3.899   1.748   7.240
    3AKDO   HO7 5893   3.851   1.684   7.188
    3AKDO    C8 5894   3.921   1.806   7.010
    3AKDO   H81 5895   3.920   1.887   6.936
    3AKDO   H82 5896   4.022   1.759   7.009
    3AKDO    O8 5897   3.825   1.705   6.974
    3AKDO   HO8 5898   3.750   1.749   6.933
    4AHEP    C1 5899   4.579   2.048   7.323
    4AHEP    H1 5900   4.676   2.012   7.285
    4AHEP    C5 5901   4.469   2.249   7.389
    4AHEP    H5 5902   4.379   2.210   7.337
    4AHEP    O5 5903   4.586   2.190   7.327
    4AHEP    C2 5904   4.570   1.994   7.467
    4AHEP    H2 5905   4.555   1.885   7.460
    4AHEP    O2 5906   4.689   2.017   7.543
    4AHEP   HO2 5907   4.657   2.069   7.617
    4AHEP    C3 5908   4.451   2.053   7.543
    4AHEP    H3 5909   4.357   2.018   7.495
    4AHEP    O3 5910   4.459   2.015   7.683
    4AHEP    C4 5911   4.463   2.204   7.536
    4AHEP    H4 5912   4.556   2.237   7.587
    4AHEP    O4 5913   4.346   2.261   7.596
    4AHEP    P4 5914   4.358   2.371   7.719
    4AHEP  OP42 5915   4.214   2.408   7.749
    4AHEP  OP43 5916   4.439   2.488   7.664
    4AHEP  OP44 5917   4.432   2.306   7.833
    4AHEP    C6 5918   4.468   2.401   7.366
    4AHEP    H6 5919   4.371   2.441   7.400
    4AHEP    O6 5920   4.571   2.464   7.444
    4AHEP   HO6 5921   4.524   2.479   7.526
    4AHEP    C7 5922   4.484   2.442   7.219
    4AHEP   H71 5923   4.477   2.553   7.212
    4AHEP   H72 5924   4.401   2.398   7.160
    4AHEP    O7 5925   4.610   2.400   7.164
    4AHEP   HO7 5926   4.654   2.369   7.243
    5AHEP    C1 5927   4.343   1.957   7.741
    5AHEP    H1 5928   4.253   1.995   7.688
    5AHEP    C5 5929   4.456   1.755   7.807
    5AHEP    H5 5930   4.551   1.800   7.773
    5AHEP    O5 5931   4.347   1.814   7.733
    5AHEP    C2 5932   4.326   1.992   7.891
    5AHEP    H2 5933   4.333   2.102   7.900
    5AHEP    O2 5934   4.195   1.956   7.938
    5AHEP   HO2 5935   4.138   2.033   7.926
    5AHEP    C3 5936   4.436   1.932   7.976
    5AHEP    H3 5937   4.533   1.976   7.943
    5AHEP    O3 5938   4.416   1.954   8.117
    5AHEP    C4 5939   4.440   1.782   7.957
    5AHEP    H4 5940   4.345   1.738   7.995
    5AHEP    O4 5941   4.554   1.727   8.024
    5AHEP    P4 5942   4.546   1.627   8.155
    5AHEP  OP42 5943   4.691   1.606   8.196
    5AHEP  OP43 5944   4.485   1.495   8.112
    5AHEP  OP44 5945   4.468   1.695   8.266
    5AHEP    C6 5946   4.459   1.607   7.770
    5AHEP    H6 5947   4.549   1.562   7.818
    5AHEP    O6 5948   4.342   1.541   7.821
    5AHEP   HO6 5949   4.287   1.615   7.844
    5AHEP    C7 5950   4.472   1.592   7.620
    5AHEP   H71 5951   4.558   1.525   7.598
    5AHEP   H72 5952   4.496   1.689   7.570
    5AHEP    O7 5953   4.356   1.532   7.561
    6AHEP    C1 5954   4.273   1.621   7.488
    6AHEP    H1 5955   4.296   1.728   7.509
    6AHEP    C5 5956   4.266   1.454   7.316
    6AHEP    H5 5957   4.339   1.394   7.375
    6AHEP    O5 5958   4.285   1.594   7.348
    6AHEP    C2 5959   4.131   1.589   7.532
    6AHEP    H2 5960   4.131   1.601   7.643
    6AHEP    O2 5961   4.031   1.679   7.485
    6AHEP   HO2 5962   4.031   1.691   7.391
    6AHEP    C3 5963   4.103   1.443   7.503
    6AHEP    H3 5964   4.176   1.384   7.562
    6AHEP    O3 5965   3.972   1.406   7.547
    6AHEP   HO3 5966   3.917   1.483   7.533
    6AHEP    C4 5967   4.124   1.413   7.355
    6AHEP    H4 5968   4.052   1.473   7.296
    6AHEP    O4 5969   4.104   1.273   7.325
    6AHEP   HO4 5970   4.071   1.275   7.234
    6AHEP    C6 5971   4.298   1.424   7.170
    6AHEP    H6 5972   4.283   1.315   7.151
    6AHEP    O6 5973   4.204   1.494   7.087
    6AHEP   HO6 5974   4.252   1.555   7.030
    6AHEP    C7 5975   4.443   1.452   7.132
    6AHEP   H71 5976   4.458   1.429   7.024
    6AHEP   H72 5977   4.509   1.383   7.189
    6AHEP    O7 5978   4.489   1.585   7.158
    6AHEP   HO7 5979   4.492   1.627   7.072
    7AGLC    C1 5980   4.479   2.066   8.172
    7AGLC    H1 5981   4.579   2.081   8.125
    7AGLC    C5 5982   4.271   2.176   8.216
    7AGLC    H5 5983   4.220   2.086   8.175
    7AGLC    O5 5984   4.402   2.185   8.156
    7AGLC    C2 5985   4.498   2.043   8.322
    7AGLC    H2 5986   4.551   2.133   8.362
    7AGLC    O2 5987   4.584   1.932   8.347
    7AGLC   HO2 5988   4.541   1.852   8.314
    7AGLC    C3 5989   4.366   2.031   8.396
    7AGLC    H3 5990   4.311   1.944   8.355
    7AGLC    O3 5991   4.384   2.017   8.540
    7AGLC    C4 5992   4.287   2.158   8.366
    7AGLC    H4 5993   4.344   2.245   8.405
    7AGLC    O4 5994   4.159   2.157   8.431
    7AGLC   HO4 5995   4.132   2.248   8.443
    7AGLC    C6 5996   4.190   2.296   8.172
    7AGLC   H61 5997   4.198   2.306   8.062
    7AGLC   H62 5998   4.083   2.280   8.196
    7AGLC    O6 5999   4.233   2.419   8.234
    7AGLC   HO6 6000   4.211   2.489   8.172
    8AGLC    C1 6001   4.340   1.895   8.595
    8AGLC    H1 6002   4.245   1.863   8.546
    8AGLC    C5 6003   4.565   1.821   8.637
    8AGLC    H5 6004   4.597   1.920   8.598
    8AGLC    O5 6005   4.437   1.791   8.578
    8AGLC    C2 6006   4.319   1.908   8.747
    8AGLC    H2 6007   4.280   1.810   8.782
    8AGLC    O2 6008   4.226   2.011   8.783
    8AGLC    C3 6009   4.448   1.939   8.818
    8AGLC    H3 6010   4.485   2.036   8.778
    8AGLC    O3 6011   4.419   1.962   8.958
    8AGLC    C4 6012   4.551   1.832   8.789
    8AGLC    H4 6013   4.515   1.734   8.827
    8AGLC    O4 6014   4.676   1.863   8.851
    8AGLC   HO4 6015   4.724   1.921   8.792
    8AGLC    C6 6016   4.666   1.720   8.583
    8AGLC   H61 6017   4.636   1.690   8.481
    8AGLC   H62 6018   4.764   1.770   8.575
    8AGLC    O6 6019   4.683   1.604   8.665
    8AGLC   HO6 6020   4.754   1.554   8.627
    9AGAL    C1 6021   4.096   2.006   8.730
    9AGAL    H1 6022   4.098   2.007   8.620
    9AGAL    C5 6023   4.019   1.885   8.919
    9AGAL    H5 6024   4.123   1.893   8.958
    9AGAL    O5 6025   4.024   1.890   8.776
    9AGAL    C2 6026   4.027   2.133   8.780
    9AGAL    H2 6027   3.925   2.139   8.734
    9AGAL    O2 6028   4.108   2.237   8.723
    9AGAL    C3 6029   4.016   2.130   8.931
    9AGAL    H3 6030   4.119   2.126   8.973
    9AGAL    O3 6031   3.954   2.245   8.987
    9AGAL   HO3 6032   4.011   2.320   8.969
    9AGAL    C4 6033   3.943   2.004   8.976
    9AGAL    H4 6034   3.947   1.999   9.087
    9AGAL    O4 6035   3.805   2.003   8.939
    9AGAL   HO4 6036   3.795   2.045   8.852
    9AGAL    C6 6037   3.972   1.748   8.962
    9AGAL   H61 6038   4.046   1.674   8.927
    9AGAL   H62 6039   3.967   1.745   9.073
    9AGAL    O6 6040   3.844   1.710   8.910
    9AGAL   HO6 6041   3.844   1.736   8.818
   10AGAL    C1 6042   4.100   2.370   8.766
   10AGAL    H1 6043   3.993   2.402   8.769
   10AGAL    C5 6044   4.299   2.343   8.895
   10AGAL    H5 6045   4.305   2.240   8.853
   10AGAL    O5 6046   4.161   2.385   8.896
   10AGAL    C2 6047   4.174   2.457   8.665
   10AGAL    H2 6048   4.163   2.563   8.695
   10AGAL    O2 6049   4.117   2.441   8.535
   10AGAL   HO2 6050   4.101   2.525   8.492
   10AGAL    C3 6051   4.322   2.420   8.662
   10AGAL    H3 6052   4.330   2.313   8.631
   10AGAL    O3 6053   4.395   2.497   8.568
   10AGAL   HO3 6054   4.353   2.489   8.483
   10AGAL    C4 6055   4.380   2.433   8.802
   10AGAL    H4 6056   4.485   2.396   8.800
   10AGAL    O4 6057   4.383   2.567   8.852
   10AGAL   HO4 6058   4.300   2.610   8.830
   10AGAL    C6 6059   4.355   2.329   9.037
   10AGAL   H61 6060   4.294   2.254   9.092
   10AGAL   H62 6061   4.459   2.290   9.031
   10AGAL    O6 6062   4.354   2.452   9.109
   10AGAL   HO6 6063   4.374   2.520   9.045
   11BGLC    C1 6064   4.432   1.859   9.054
   11BGLC    H1 6065   4.539   1.834   9.069
   11BGLC    C5 6066   4.367   1.634   9.113
   11BGLC    H5 6067   4.473   1.610   9.134
   11BGLC    O5 6068   4.358   1.741   9.016
   11BGLC    C2 6069   4.370   1.913   9.183
   11BGLC    H2 6070   4.264   1.938   9.161
   11BGLC    O2 6071   4.431   2.034   9.231
   11BGLC   HO2 6072   4.517   2.048   9.191
   11BGLC    C3 6073   4.373   1.807   9.292
   11BGLC    H3 6074   4.478   1.783   9.318
   11BGLC    O3 6075   4.298   1.848   9.406
   11BGLC    C4 6076   4.302   1.685   9.241
   11BGLC    H4 6077   4.197   1.711   9.219
   11BGLC    O4 6078   4.302   1.584   9.342
   11BGLC   HO4 6079   4.327   1.626   9.425
   11BGLC    C6 6080   4.297   1.510   9.059
   11BGLC   H61 6081   4.268   1.442   9.142
   11BGLC   H62 6082   4.205   1.540   9.006
   11BGLC    O6 6083   4.379   1.434   8.970
   11BGLC   HO6 6084   4.452   1.395   9.018
   12BGLCN   C1 6085   4.370   1.869   9.524
   12BGLCN   H1 6086   4.438   1.956   9.510
   12BGLCN   C5 6087   4.516   1.770   9.684
   12BGLCN   H5 6088   4.587   1.855   9.670
   12BGLCN   O5 6089   4.443   1.752   9.561
   12BGLCN   C2 6090   4.266   1.897   9.631
   12BGLCN   H2 6091   4.209   1.802   9.643
   12BGLCN    N 6092   4.173   2.002   9.589
   12BGLCN   HN 6093   4.214   2.085   9.552
   12BGLCN    C 6094   4.040   1.987   9.589
   12BGLCN    O 6095   3.984   1.886   9.629
   12BGLCN   CT 6096   3.960   2.102   9.533
   12BGLCN  HT1 6097   3.880   2.130   9.604
   12BGLCN  HT2 6098   3.914   2.073   9.436
   12BGLCN  HT3 6099   4.025   2.191   9.516
   12BGLCN   C3 6100   4.334   1.924   9.764
   12BGLCN   H3 6101   4.398   2.015   9.754
   12BGLCN   O3 6102   4.235   1.944   9.867
   12BGLCN   C4 6103   4.419   1.802   9.796
   12BGLCN   H4 6104   4.350   1.715   9.808
   12BGLCN   O4 6105   4.489   1.815   9.919
   12BGLCN  HO4 6106   4.546   1.892   9.919
   12BGLCN   C6 6107   4.598   1.645   9.710
   12BGLCN  H61 6108   4.664   1.659   9.799
   12BGLCN  H62 6109   4.528   1.562   9.734
   12BGLCN   O6 6110   4.677   1.604   9.598
   12BGLCN  HO6 6111   4.753   1.662   9.584
   13AGAL    C1 6112   4.267   2.037   9.969
   13AGAL    H1 6113   4.375   2.032   9.992
   13AGAL    C5 6114   4.095   2.188   9.895
   13AGAL    H5 6115   4.067   2.110   9.821
   13AGAL    O5 6116   4.235   2.172   9.926
   13AGAL    C2 6117   4.187   2.009  10.094
   13AGAL    H2 6118   4.212   2.090  10.167
   13AGAL    O2 6119   4.225   1.883  10.153
   13AGAL    C3 6120   4.038   2.021  10.064
   13AGAL    H3 6121   4.016   1.952   9.979
   13AGAL    O3 6122   3.954   1.978  10.171
   13AGAL   HO3 6123   3.914   1.895  10.145
   13AGAL    C4 6124   4.008   2.163  10.018
   13AGAL    H4 6125   3.901   2.169   9.990
   13AGAL    O4 6126   4.033   2.260  10.120
   13AGAL   HO4 6127   4.122   2.294  10.106
   13AGAL    C6 6128   4.070   2.321   9.825
   13AGAL   H61 6129   4.138   2.327   9.736
   13AGAL   H62 6130   3.966   2.324   9.786
   13AGAL    O6 6131   4.092   2.437   9.906
   13AGAL   HO6 6132   4.024   2.438   9.973
   14ARHM    C1 6133   4.285   1.886  10.281
   14ARHM    H1 6134   4.346   1.978  10.292
   14ARHM    C5 6135   4.309   1.650  10.282
   14ARHM    H5 6136   4.269   1.643  10.179
   14ARHM    O5 6137   4.376   1.776  10.299
   14ARHM    C2 6138   4.176   1.882  10.386
   14ARHM    H2 6139   4.107   1.967  10.368
   14ARHM    O2 6140   4.220   1.891  10.523
   14ARHM    C3 6141   4.100   1.752  10.370
   14ARHM    H3 6142   4.058   1.748  10.266
   14ARHM    O3 6143   3.990   1.745  10.460
   14ARHM   HO3 6144   4.025   1.741  10.549
   14ARHM    C4 6145   4.196   1.635  10.384
   14ARHM    H4 6146   4.240   1.636  10.485
   14ARHM    O4 6147   4.129   1.510  10.365
   14ARHM   HO4 6148   4.188   1.436  10.375
   14ARHM    C6 6149   4.420   1.544  10.299
   14ARHM   H61 6150   4.500   1.561  10.223
   14ARHM   H62 6151   4.465   1.550  10.399
   14ARHM   H63 6152   4.380   1.442  10.283
   15ARHM    C1 6153   4.300   2.002  10.554
   15ARHM    H1 6154   4.278   2.087  10.485
   15ARHM    C5 6155   4.477   1.866  10.639
   15ARHM    H5 6156   4.423   1.773  10.611
   15ARHM    O5 6157   4.440   1.971  10.549
   15ARHM    C2 6158   4.267   2.046  10.696
   15ARHM    H2 6159   4.159   2.071  10.701
   15ARHM    O2 6160   4.345   2.164  10.721
   15ARHM    C3 6161   4.296   1.933  10.792
   15ARHM    H3 6162   4.240   1.843  10.757
   15ARHM    O3 6163   4.249   1.968  10.922
   15ARHM    C4 6164   4.444   1.903  10.785
   15ARHM    H4 6165   4.501   1.995  10.809
   15ARHM    O4 6166   4.483   1.801  10.875
   15ARHM   HO4 6167   4.575   1.781  10.859
   15ARHM    C6 6168   4.628   1.842  10.615
   15ARHM   H61 6169   4.666   1.757  10.675
   15ARHM   H62 6170   4.645   1.819  10.509
   15ARHM   H63 6171   4.685   1.934  10.639
   16BMANN   C1 6172   4.328   2.229  10.845
   16BMANN   H1 6173   4.371   2.166  10.927
   16BMANN   C5 6174   4.173   2.322  10.999
   16BMANN   H5 6175   4.216   2.257  11.079
   16BMANN   O5 6176   4.191   2.258  10.871
   16BMANN   C2 6177   4.408   2.358  10.839
   16BMANN   H2 6178   4.515   2.328  10.830
   16BMANN    N 6179   4.372   2.439  10.721
   16BMANN   HN 6180   4.279   2.474  10.719
   16BMANN    C 6181   4.457   2.469  10.622
   16BMANN    O 6182   4.572   2.428  10.618
   16BMANN   CT 6183   4.402   2.556  10.512
   16BMANN  HT1 6184   4.469   2.642  10.497
   16BMANN  HT2 6185   4.300   2.592  10.537
   16BMANN  HT3 6186   4.398   2.496  10.418
   16BMANN   C3 6187   4.393   2.431  10.970
   16BMANN   H3 6188   4.433   2.366  11.050
   16BMANN   O3 6189   4.469   2.551  10.970
   16BMANN  HO3 6190   4.522   2.557  11.050
   16BMANN   C4 6191   4.246   2.456  11.000
   16BMANN   H4 6192   4.202   2.520  10.920
   16BMANN   O4 6193   4.227   2.521  11.125
   16BMANN  HO4 6194   4.241   2.616  11.111
   16BMANN   C6 6195   4.023   2.331  11.023
   16BMANN  H61 6196   4.003   2.379  11.121
   16BMANN  H62 6197   3.976   2.393  10.944
   16BMANN   O6 6198   3.964   2.200  11.022
   16BMANN  HO6 6199   3.995   2.157  10.941
   17BGLCN   C1 6200   4.194   1.863  10.996
   17BGLCN   H1 6201   4.246   1.767  10.975
   17BGLCN   C5 6202   3.992   1.750  11.057
   17BGLCN   H5 6203   4.042   1.652  11.037
   17BGLCN   O5 6204   4.053   1.851  10.974
   17BGLCN   C2 6205   4.216   1.905  11.141
   17BGLCN   H2 6206   4.153   1.995  11.156
   17BGLCN    N 6207   4.354   1.945  11.163
   17BGLCN   HN 6208   4.422   1.904  11.103
   17BGLCN    C 6209   4.390   2.040  11.252
   17BGLCN    O 6210   4.309   2.103  11.318
   17BGLCN   CT 6211   4.538   2.068  11.263
   17BGLCN  HT1 6212   4.567   2.148  11.193
   17BGLCN  HT2 6213   4.597   1.976  11.241
   17BGLCN  HT3 6214   4.560   2.102  11.366
   17BGLCN   C3 6215   4.162   1.794  11.229
   17BGLCN   H3 6216   4.207   1.699  11.193
   17BGLCN   O3 6217   4.203   1.810  11.367
   17BGLCN   C4 6218   4.013   1.786  11.203
   17BGLCN   H4 6219   3.969   1.886  11.221
   17BGLCN   O4 6220   3.944   1.695  11.288
   17BGLCN  HO4 6221   3.874   1.744  11.332
   17BGLCN   C6 6222   3.847   1.735  11.016
   17BGLCN  H61 6223   3.795   1.665  11.083
   17BGLCN  H62 6224   3.795   1.833  11.023
   17BGLCN   O6 6225   3.835   1.684  10.883
   17BGLCN  HO6 6226   3.841   1.756  10.818
   18AGAL    C1 6227   4.222   1.689  11.440
   18AGAL    H1 6228   4.124   1.637  11.453
   18AGAL    C5 6229   4.444   1.657  11.359
   18AGAL    H5 6230   4.431   1.753  11.305
   18AGAL    O5 6231   4.313   1.599  11.374
   18AGAL    C2 6232   4.279   1.718  11.578
   18AGAL    H2 6233   4.296   1.618  11.623
   18AGAL    O2 6234   4.185   1.788  11.662
   18AGAL    C3 6235   4.414   1.788  11.564
   18AGAL    H3 6236   4.399   1.879  11.503
   18AGAL    O3 6237   4.469   1.829  11.689
   18AGAL   HO3 6238   4.526   1.906  11.677
   18AGAL    C4 6239   4.509   1.693  11.492
   18AGAL    H4 6240   4.603   1.747  11.470
   18AGAL    O4 6241   4.543   1.581  11.574
   18AGAL   HO4 6242   4.572   1.617  11.658
   18AGAL    C6 6243   4.528   1.573  11.262
   18AGAL   H61 6244   4.476   1.570  11.165
   18AGAL   H62 6245   4.626   1.622  11.245
   18AGAL    O6 6246   4.550   1.439  11.304
   18AGAL   HO6 6247   4.628   1.438  11.359
   19ARHM    C1 6248   4.190   1.745  11.797
   19ARHM    H1 6249   4.294   1.722  11.825
   19ARHM    C5 6250   3.973   1.644  11.795
   19ARHM    H5 6251   3.960   1.679  11.690
   19ARHM    O5 6252   4.113   1.626  11.821
   19ARHM    C2 6253   4.139   1.857  11.885
   19ARHM    H2 6254   4.187   1.950  11.849
   19ARHM    O2 6255   4.174   1.842  12.024
   19ARHM    C3 6256   3.991   1.880  11.866
   19ARHM    H3 6257   3.972   1.912  11.760
   19ARHM    O3 6258   3.947   1.984  11.953
   19ARHM   HO3 6259   3.980   1.965  12.040
   19ARHM    C4 6260   3.916   1.750  11.890
   19ARHM    H4 6261   3.937   1.717  11.993
   19ARHM    O4 6262   3.774   1.762  11.874
   19ARHM   HO4 6263   3.754   1.755  11.781
   19ARHM    C6 6264   3.907   1.506  11.808
   19ARHM   H61 6265   3.957   1.434  11.741
   19ARHM   H62 6266   3.916   1.469  11.912
   19ARHM   H63 6267   3.800   1.512  11.781
   20ARHM    C1 6268   4.313   1.857  12.048
   20ARHM    H1 6269   4.359   1.915  11.967
   20ARHM    C5 6270   4.338   1.649  12.163
   20ARHM    H5 6271   4.229   1.632  12.155
   20ARHM    O5 6272   4.382   1.732  12.054
   20ARHM    C2 6273   4.333   1.933  12.179
   20ARHM    H2 6274   4.271   2.025  12.176
   20ARHM    O2 6275   4.470   1.971  12.197
   20ARHM    C3 6276   4.289   1.850  12.297
   20ARHM    H3 6277   4.180   1.827  12.286
   20ARHM    O3 6278   4.310   1.924  12.418
   20ARHM    C4 6279   4.368   1.721  12.294
   20ARHM    H4 6280   4.476   1.746  12.295
   20ARHM    O4 6281   4.345   1.637  12.408
   20ARHM   HO4 6282   4.422   1.581  12.412
   20ARHM    C6 6283   4.409   1.514  12.148
   20ARHM   H61 6284   4.519   1.526  12.159
   20ARHM   H62 6285   4.373   1.442  12.224
   20ARHM   H63 6286   4.388   1.471  12.047
   21BMANN   C1 6287   4.519   2.071  12.111
   21BMANN   H1 6288   4.439   2.112  12.047
   21BMANN   C5 6289   4.684   2.116  11.943
   21BMANN   H5 6290   4.605   2.157  11.877
   21BMANN   O5 6291   4.626   2.017  12.031
   21BMANN   C2 6292   4.575   2.178  12.201
   21BMANN   H2 6293   4.489   2.221  12.256
   21BMANN    N 6294   4.666   2.123  12.300
   21BMANN   HN 6295   4.696   2.030  12.284
   21BMANN    C 6296   4.701   2.185  12.415
   21BMANN    O 6297   4.665   2.299  12.439
   21BMANN   CT 6298   4.785   2.106  12.510
   21BMANN  HT1 6299   4.891   2.138  12.502
   21BMANN  HT2 6300   4.777   1.997  12.491
   21BMANN  HT3 6301   4.750   2.125  12.614
   21BMANN   C3 6302   4.632   2.287  12.113
   21BMANN   H3 6303   4.552   2.320  12.043
   21BMANN   O3 6304   4.672   2.402  12.186
   21BMANN  HO3 6305   4.677   2.380  12.279
   21BMANN   C4 6306   4.743   2.230  12.026
   21BMANN   H4 6307   4.824   2.189  12.090
   21BMANN   O4 6308   4.801   2.328  11.941
   21BMANN  HO4 6309   4.856   2.386  11.995
   21BMANN   C6 6310   4.786   2.046  11.854
   21BMANN  H61 6311   4.828   2.118  11.781
   21BMANN  H62 6312   4.870   2.008  11.916
   21BMANN   O6 6313   4.727   1.938  11.783
   21BMANN  HO6 6314   4.690   1.876  11.845
   22BGLCN   C1 6315   4.209   1.914  12.515
   22BGLCN   H1 6316   4.158   1.816  12.510
   22BGLCN   C5 6317   4.022   2.032  12.609
   22BGLCN   H5 6318   3.965   1.937  12.616
   22BGLCN   O5 6319   4.117   2.023  12.500
   22BGLCN   C2 6320   4.286   1.930  12.644
   22BGLCN   H2 6321   4.336   2.029  12.641
   22BGLCN    N 6322   4.390   1.829  12.656
   22BGLCN   HN 6323   4.377   1.744  12.606
   22BGLCN    C 6324   4.508   1.850  12.718
   22BGLCN    O 6325   4.539   1.956  12.772
   22BGLCN   CT 6326   4.602   1.733  12.718
   22BGLCN  HT1 6327   4.660   1.731  12.623
   22BGLCN  HT2 6328   4.546   1.637  12.729
   22BGLCN  HT3 6329   4.673   1.743  12.804
   22BGLCN   C3 6330   4.188   1.932  12.762
   22BGLCN   H3 6331   4.127   1.839  12.758
   22BGLCN   O3 6332   4.264   1.931  12.884
   22BGLCN   C4 6333   4.098   2.052  12.739
   22BGLCN   H4 6334   4.162   2.142  12.728
   22BGLCN   O4 6335   4.009   2.079  12.849
   22BGLCN  HO4 6336   4.037   2.162  12.887
   22BGLCN   C6 6337   3.924   2.143  12.576
   22BGLCN  H61 6338   3.850   2.152  12.658
   22BGLCN  H62 6339   3.978   2.240  12.568
   22BGLCN   O6 6340   3.854   2.118  12.454
   22BGLCN  HO6 6341   3.917   2.127  12.383
   23AGAL    C1 6342   4.200   1.890  13.002
   23AGAL    H1 6343   4.121   1.963  13.030
   23AGAL    C5 6344   4.235   1.654  12.971
   23AGAL    H5 6345   4.289   1.678  12.878
   23AGAL    O5 6346   4.139   1.760  12.995
   23AGAL    C2 6347   4.303   1.891  13.113
   23AGAL    H2 6348   4.250   1.870  13.210
   23AGAL    O2 6349   4.367   2.020  13.121
   23AGAL    C3 6350   4.407   1.784  13.093
   23AGAL    H3 6351   4.461   1.804  12.998
   23AGAL    O3 6352   4.502   1.785  13.200
   23AGAL   HO3 6353   4.477   1.715  13.259
   23AGAL    C4 6354   4.338   1.650  13.085
   23AGAL    H4 6355   4.413   1.571  13.061
   23AGAL    O4 6356   4.277   1.615  13.210
   23AGAL   HO4 6357   4.203   1.558  13.186
   23AGAL    C6 6358   4.161   1.523  12.946
   23AGAL   H61 6359   4.079   1.542  12.873
   23AGAL   H62 6360   4.231   1.451  12.897
   23AGAL    O6 6361   4.106   1.460  13.062
   23AGAL   HO6 6362   4.160   1.384  13.085
   24ARHM    C1 6363   4.314   2.111  13.213
   24ARHM    H1 6364   4.205   2.093  13.224
   24ARHM    C5 6365   4.464   2.282  13.148
   24ARHM    H5 6366   4.510   2.214  13.072
   24ARHM    O5 6367   4.327   2.246  13.166
   24ARHM    C2 6368   4.384   2.092  13.345
   24ARHM    H2 6369   4.381   1.984  13.371
   24ARHM    O2 6370   4.322   2.168  13.450
   24ARHM    C3 6371   4.530   2.129  13.331
   24ARHM    H3 6372   4.577   2.062  13.256
   24ARHM    O3 6373   4.598   2.109  13.456
   24ARHM   HO3 6374   4.554   2.164  13.522
   24ARHM    C4 6375   4.539   2.272  13.280
   24ARHM    H4 6376   4.489   2.339  13.352
   24ARHM    O4 6377   4.675   2.315  13.266
   24ARHM   HO4 6378   4.682   2.405  13.300
   24ARHM    C6 6379   4.462   2.424  13.086
   24ARHM   H61 6380   4.565   2.457  13.062
   24ARHM   H62 6381   4.402   2.423  12.992
   24ARHM   H63 6382   4.415   2.496  13.158
   25ARHM    C1 6383   4.209   2.105  13.505
   25ARHM    H1 6384   4.174   2.025  13.436
   25ARHM    C5 6385   4.122   2.297  13.616
   25ARHM    H5 6386   4.209   2.358  13.582
   25ARHM    O5 6387   4.097   2.193  13.520
   25ARHM    C2 6388   4.249   2.042  13.635
   25ARHM    H2 6389   4.342   1.983  13.621
   25ARHM    O2 6390   4.146   1.957  13.686
   25ARHM    C3 6391   4.278   2.148  13.738
   25ARHM    H3 6392   4.363   2.210  13.703
   25ARHM    O3 6393   4.314   2.080  13.857
   25ARHM    C4 6394   4.155   2.236  13.753
   25ARHM    H4 6395   4.069   2.172  13.784
   25ARHM    O4 6396   4.172   2.336  13.853
   25ARHM   HO4 6397   4.101   2.401  13.846
   25ARHM    C6 6398   3.997   2.387  13.616
   25ARHM   H61 6399   3.978   2.423  13.512
   25ARHM   H62 6400   3.908   2.330  13.651
   25ARHM   H63 6401   4.012   2.475  13.682
   26BMANN   C1 6402   4.138   1.831  13.623
   26BMANN   H1 6403   4.237   1.799  13.585
   26BMANN   C5 6404   4.024   1.706  13.456
   26BMANN   H5 6405   4.123   1.674  13.415
   26BMANN   O5 6406   4.040   1.834  13.519
   26BMANN   C2 6407   4.089   1.737  13.731
   26BMANN   H2 6408   4.169   1.736  13.807
   26BMANN    N 6409   3.966   1.783  13.794
   26BMANN   HN 6410   3.907   1.843  13.741
   26BMANN    C 6411   3.929   1.748  13.918
   26BMANN    O 6412   3.999   1.675  13.986
   26BMANN   CT 6413   3.797   1.800  13.967
   26BMANN  HT1 6414   3.731   1.824  13.883
   26BMANN  HT2 6415   3.814   1.892  14.029
   26BMANN  HT3 6416   3.749   1.722  14.030
   26BMANN   C3 6417   4.079   1.598  13.670
   26BMANN   H3 6418   4.179   1.570  13.628
   26BMANN   O3 6419   4.048   1.500  13.770
   26BMANN  HO3 6420   4.029   1.546  13.852
   26BMANN   C4 6421   3.979   1.601  13.557
   26BMANN   H4 6422   3.879   1.628  13.595
   26BMANN   O4 6423   3.969   1.474  13.492
   26BMANN  HO4 6424   3.919   1.414  13.550
   26BMANN   C6 6425   3.929   1.723  13.339
   26BMANN  H61 6426   3.970   1.797  13.267
   26BMANN  H62 6427   3.919   1.627  13.283
   26BMANN   O6 6428   3.799   1.767  13.381
   26BMANN  HO6 6429   3.734   1.704  13.352
   27BGLCN   C1 6430   4.415   2.139  13.933
   27BGLCN   H1 6431   4.413   2.250  13.923
   27BGLCN   C5 6432   4.649   2.136  13.981
   27BGLCN   H5 6433   4.653   2.247  13.974
   27BGLCN   O5 6434   4.543   2.085  13.898
   27BGLCN   C2 6435   4.380   2.097  14.075
   27BGLCN   H2 6436   4.386   1.986  14.076
   27BGLCN    N 6437   4.243   2.134  14.103
   27BGLCN   HN 6438   4.204   2.205  14.044
   27BGLCN    C 6439   4.161   2.065  14.184
   27BGLCN    O 6440   4.198   1.971  14.252
   27BGLCN   CT 6441   4.018   2.109  14.186
   27BGLCN  HT1 6442   3.999   2.188  14.110
   27BGLCN  HT2 6443   3.994   2.149  14.287
   27BGLCN  HT3 6444   3.953   2.021  14.165
   27BGLCN   C3 6445   4.484   2.151  14.170
   27BGLCN   H3 6446   4.485   2.261  14.161
   27BGLCN   O3 6447   4.445   2.114  14.304
   27BGLCN   C4 6448   4.619   2.096  14.127
   27BGLCN   H4 6449   4.612   1.986  14.127
   27BGLCN   O4 6450   4.725   2.132  14.214
   27BGLCN  HO4 6451   4.734   2.228  14.217
   27BGLCN   C6 6452   4.782   2.079  13.932
   27BGLCN  H61 6453   4.863   2.109  14.002
   27BGLCN  H62 6454   4.777   1.968  13.932
   27BGLCN   O6 6455   4.819   2.126  13.801
   27BGLCN  HO6 6456   4.914   2.139  13.800
   28AGAL    C1 6457   4.498   2.188  14.413
   28AGAL    H1 6458   4.604   2.158  14.429
   28AGAL    C5 6459   4.360   2.382  14.381
   28AGAL    H5 6460   4.308   2.331  14.297
   28AGAL    O5 6461   4.495   2.330  14.389
   28AGAL    C2 6462   4.423   2.160  14.542
   28AGAL    H2 6463   4.474   2.225  14.616
   28AGAL    O2 6464   4.431   2.023  14.589
   28AGAL    C3 6465   4.279   2.205  14.530
   28AGAL    H3 6466   4.236   2.157  14.439
   28AGAL    O3 6467   4.197   2.164  14.639
   28AGAL   HO3 6468   4.162   2.077  14.619
   28AGAL    C4 6469   4.278   2.355  14.508
   28AGAL    H4 6470   4.174   2.389  14.491
   28AGAL    O4 6471   4.330   2.428  14.619
   28AGAL   HO4 6472   4.381   2.502  14.585
   28AGAL    C6 6473   4.367   2.530  14.345
   28AGAL   H61 6474   4.407   2.540  14.241
   28AGAL   H62 6475   4.264   2.572  14.345
   28AGAL    O6 6476   4.449   2.606  14.434
   28AGAL   HO6 6477   4.541   2.595  14.409
   29ARHM    C1 6478   4.464   2.016  14.726
   29ARHM    H1 6479   4.437   2.111  14.777
   29ARHM    C5 6480   4.644   1.865  14.685
   29ARHM    H5 6481   4.622   1.867  14.576
   29ARHM    O5 6482   4.604   1.990  14.744
   29ARHM    C2 6483   4.385   1.906  14.796
   29ARHM    H2 6484   4.277   1.925  14.779
   29ARHM    O2 6485   4.413   1.905  14.938
   29ARHM    C3 6486   4.420   1.773  14.735
   29ARHM    H3 6487   4.394   1.775  14.627
   29ARHM    O3 6488   4.343   1.669  14.795
   29ARHM   HO3 6489   4.391   1.639  14.873
   29ARHM    C4 6490   4.569   1.749  14.749
   29ARHM    H4 6491   4.596   1.748  14.857
   29ARHM    O4 6492   4.609   1.624  14.694
   29ARHM   HO4 6493   4.583   1.618  14.602
   29ARHM    C6 6494   4.797   1.857  14.703
   29ARHM   H61 6495   4.846   1.943  14.655
   29ARHM   H62 6496   4.822   1.857  14.812
   29ARHM   H63 6497   4.836   1.763  14.659
   30ARHM    C1 6498   4.315   1.967  15.018
   30ARHM    H1 6499   4.216   1.924  14.993
   30ARHM    C5 6500   4.434   2.176  15.032
   30ARHM    H5 6501   4.517   2.135  14.971
   30ARHM    O5 6502   4.311   2.109  14.998
   30ARHM    C2 6503   4.345   1.939  15.164
   30ARHM    H2 6504   4.356   1.829  15.178
   30ARHM    O2 6505   4.239   1.989  15.247
   30ARHM    C3 6506   4.476   2.005  15.205
   30ARHM    H3 6507   4.555   1.964  15.139
   30ARHM    O3 6508   4.513   1.967  15.339
   30ARHM    C4 6509   4.467   2.154  15.179
   30ARHM    H4 6510   4.386   2.199  15.239
   30ARHM    O4 6511   4.588   2.221  15.212
   30ARHM   HO4 6512   4.661   2.190  15.157
   30ARHM    C6 6513   4.414   2.324  14.994
   30ARHM   H61 6514   4.507   2.382  15.013
   30ARHM   H62 6515   4.389   2.333  14.886
   30ARHM   H63 6516   4.332   2.369  15.054
   31BMANN   C1 6517   4.130   1.905  15.271
   31BMANN   H1 6518   4.162   1.800  15.288
   31BMANN   C5 6519   3.914   1.835  15.192
   31BMANN   H5 6520   3.944   1.730  15.209
   31BMANN   O5 6521   4.033   1.914  15.166
   31BMANN   C2 6522   4.066   1.965  15.395
   31BMANN   H2 6523   4.139   1.956  15.478
   31BMANN    N 6524   4.039   2.107  15.377
   31BMANN   HN 6525   4.048   2.140  15.284
   31BMANN    C 6526   4.012   2.194  15.475
   31BMANN    O 6527   4.003   2.158  15.592
   31BMANN   CT 6528   3.992   2.338  15.435
   31BMANN  HT1 6529   3.905   2.347  15.368
   31BMANN  HT2 6530   4.083   2.376  15.384
   31BMANN  HT3 6531   3.974   2.399  15.526
   31BMANN   C3 6532   3.945   1.880  15.431
   31BMANN   H3 6533   3.978   1.775  15.440
   31BMANN   O3 6534   3.891   1.914  15.559
   31BMANN  HO3 6535   3.916   2.004  15.580
   31BMANN   C4 6536   3.844   1.886  15.318
   31BMANN   H4 6537   3.811   1.991  15.302
   31BMANN   O4 6538   3.730   1.807  15.348
   31BMANN  HO4 6539   3.696   1.838  15.432
   31BMANN   C6 6540   3.825   1.838  15.069
   31BMANN  H61 6541   3.729   1.786  15.091
   31BMANN  H62 6542   3.801   1.944  15.044
   31BMANN   O6 6543   3.887   1.775  14.956
   31BMANN  HO6 6544   3.899   1.682  14.976
   32BGLCN   C1 6545   4.460   2.042  15.447
   32BGLCN   H1 6546   4.358   2.079  15.422
   32BGLCN   C5 6547   4.484   2.233  15.587
   32BGLCN   H5 6548   4.385   2.270  15.552
   32BGLCN   O5 6549   4.543   2.154  15.483
   32BGLCN   C2 6550   4.451   1.950  15.568
   32BGLCN   H2 6551   4.555   1.932  15.601
   32BGLCN    N 6552   4.393   1.821  15.532
   32BGLCN   HN 6553   4.323   1.823  15.460
   32BGLCN    C 6554   4.441   1.703  15.573
   32BGLCN    O 6555   4.529   1.692  15.657
   32BGLCN   CT 6556   4.378   1.581  15.512
   32BGLCN  HT1 6557   4.325   1.607  15.418
   32BGLCN  HT2 6558   4.309   1.533  15.584
   32BGLCN  HT3 6559   4.459   1.509  15.488
   32BGLCN   C3 6560   4.380   2.026  15.679
   32BGLCN   H3 6561   4.282   2.061  15.639
   32BGLCN   O3 6562   4.357   1.948  15.797
   32BGLCN   C4 6563   4.465   2.147  15.710
   32BGLCN   H4 6564   4.565   2.110  15.742
   32BGLCN   O4 6565   4.412   2.225  15.816
   32BGLCN  HO4 6566   4.479   2.232  15.884
   32BGLCN   C6 6567   4.569   2.357  15.616
   32BGLCN  H61 6568   4.510   2.430  15.674
   32BGLCN  H62 6569   4.656   2.328  15.678
   32BGLCN   O6 6570   4.621   2.421  15.498
   32BGLCN  HO6 6571   4.555   2.423  15.427
   33AGAL    C1 6572   4.229   1.969  15.854
   33AGAL    H1 6573   4.197   2.075  15.841
   33AGAL    C5 6574   4.166   1.743  15.808
   33AGAL    H5 6575   4.269   1.727  15.772
   33AGAL    O5 6576   4.133   1.883  15.791
   33AGAL    C2 6577   4.229   1.938  16.003
   33AGAL    H2 6578   4.124   1.953  16.038
   33AGAL    O2 6579   4.313   2.032  16.074
   33AGAL    C3 6580   4.267   1.793  16.027
   33AGAL    H3 6581   4.368   1.777  15.984
   33AGAL    O3 6582   4.274   1.759  16.165
   33AGAL   HO3 6583   4.184   1.749  16.197
   33AGAL    C4 6584   4.167   1.704  15.955
   33AGAL    H4 6585   4.203   1.599  15.963
   33AGAL    O4 6586   4.037   1.710  16.013
   33AGAL   HO4 6587   3.973   1.717  15.941
   33AGAL    C6 6588   4.074   1.659  15.722
   33AGAL   H61 6589   4.096   1.680  15.615
   33AGAL   H62 6590   4.096   1.551  15.740
   33AGAL    O6 6591   3.935   1.682  15.746
   33AGAL   HO6 6592   3.911   1.768  15.710
   34ARHM    C1 6593   4.260   2.077  16.196
   34ARHM    H1 6594   4.222   1.990  16.254
   34ARHM    C5 6595   4.191   2.286  16.102
   34ARHM    H5 6596   4.226   2.256  16.002
   34ARHM    O5 6597   4.152   2.170  16.177
   34ARHM    C2 6598   4.371   2.146  16.274
   34ARHM    H2 6599   4.456   2.075  16.282
   34ARHM    O2 6600   4.332   2.185  16.407
   34ARHM    C3 6601   4.419   2.267  16.197
   34ARHM    H3 6602   4.455   2.233  16.097
   34ARHM    O3 6603   4.527   2.336  16.259
   34ARHM   HO3 6604   4.534   2.418  16.209
   34ARHM    C4 6605   4.302   2.361  16.175
   34ARHM    H4 6606   4.264   2.394  16.274
   34ARHM    O4 6607   4.343   2.476  16.101
   34ARHM   HO4 6608   4.291   2.553  16.123
   34ARHM    C6 6609   4.062   2.369  16.085
   34ARHM   H61 6610   4.023   2.400  16.185
   34ARHM   H62 6611   4.082   2.460  16.024
   34ARHM   H63 6612   3.985   2.309  16.034
   35ARHM    C1 6613   4.293   2.081  16.493
   35ARHM    H1 6614   4.354   1.990  16.474
   35ARHM    C5 6615   4.068   2.163  16.500
   35ARHM    H5 6616   4.094   2.243  16.428
   35ARHM    O5 6617   4.153   2.049  16.480
   35ARHM    C2 6618   4.317   2.131  16.635
   35ARHM    H2 6619   4.423   2.163  16.641
   35ARHM    O2 6620   4.292   2.035  16.739
   35ARHM    C3 6621   4.230   2.251  16.663
   35ARHM    H3 6622   4.256   2.333  16.593
   35ARHM    O3 6623   4.254   2.299  16.796
   35ARHM   HO3 6624   4.239   2.225  16.856
   35ARHM    C4 6625   4.085   2.213  16.642
   35ARHM    H4 6626   4.059   2.130  16.712
   35ARHM    O4 6627   3.997   2.323  16.670
   35ARHM   HO4 6628   4.048   2.386  16.720
   35ARHM    C6 6629   3.925   2.115  16.467
   35ARHM   H61 6630   3.921   2.078  16.362
   35ARHM   H62 6631   3.895   2.032  16.535
   35ARHM   H63 6632   3.852   2.198  16.477
   36BMANN   C1 6633   4.381   1.927  16.745
   36BMANN   H1 6634   4.482   1.957  16.709
   36BMANN   C5 6635   4.419   1.701  16.675
   36BMANN   H5 6636   4.518   1.731  16.635
   36BMANN   O5 6637   4.331   1.815  16.670
   36BMANN   C2 6638   4.387   1.885  16.891
   36BMANN   H2 6639   4.430   1.971  16.947
   36BMANN    N 6640   4.255   1.855  16.946
   36BMANN   HN 6641   4.191   1.812  16.882
   36BMANN    C 6642   4.215   1.883  17.071
   36BMANN    O 6643   4.281   1.952  17.149
   36BMANN   CT 6644   4.082   1.827  17.113
   36BMANN  HT1 6645   4.051   1.746  17.044
   36BMANN  HT2 6646   4.005   1.908  17.112
   36BMANN  HT3 6647   4.090   1.786  17.216
   36BMANN   C3 6648   4.486   1.769  16.902
   36BMANN   H3 6649   4.583   1.803  16.861
   36BMANN   O3 6650   4.510   1.731  17.037
   36BMANN  HO3 6651   4.571   1.657  17.033
   36BMANN   C4 6652   4.436   1.653  16.819
   36BMANN   H4 6653   4.338   1.618  16.858
   36BMANN   O4 6654   4.529   1.545  16.823
   36BMANN  HO4 6655   4.487   1.462  16.846
   36BMANN   C6 6656   4.362   1.595  16.582
   36BMANN  H61 6657   4.359   1.636  16.479
   36BMANN  H62 6658   4.428   1.506  16.580
   36BMANN   O6 6659   4.229   1.554  16.616
   36BMANN  HO6 6660   4.225   1.516  16.704
    1ECLIP HB6S 6661   4.552   5.915   6.676
    1ECLIP  OB6 6662   4.500   5.751   6.793
    1ECLIP  CB6 6663   4.588   5.813   6.698
    1ECLIP HB6R 6664   4.690   5.820   6.740
    1ECLIP  CB5 6665   4.600   5.736   6.570
    1ECLIP  OB5 6666   4.469   5.715   6.517
    1ECLIP  HB5 6667   4.646   5.638   6.594
    1ECLIP  CB1 6668   4.473   5.628   6.403
    1ECLIP  HB1 6669   4.515   5.529   6.432
    1ECLIP  OA6 6670   4.349   5.609   6.341
    1ECLIP  CA6 6671   4.245   5.694   6.387
    1ECLIP HA6R 6672   4.284   5.796   6.410
    1ECLIP HA6S 6673   4.200   5.649   6.478
    1ECLIP  CB4 6674   4.686   5.809   6.465
    1ECLIP  HB4 6675   4.633   5.902   6.436
    1ECLIP  OB4 6676   4.813   5.838   6.524
    1ECLIP   PB 6677   4.888   5.983   6.524
    1ECLIP OPB4 6678   4.974   6.004   6.648
    1ECLIP OPB3 6679   4.800   6.105   6.523
    1ECLIP OPB2 6680   4.980   6.005   6.406
    1ECLIP  CB3 6681   4.696   5.718   6.344
    1ECLIP  OB3 6682   4.764   5.785   6.238
    1ECLIP  HB3 6683   4.741   5.621   6.373
    1ECLIP  C71 6684   4.885   5.743   6.207
    1ECLIP  O71 6685   4.945   5.650   6.259
    1ECLIP  C72 6686   4.914   5.784   6.063
    1ECLIP H72R 6687   4.843   5.732   5.997
    1ECLIP H72S 6688   5.017   5.750   6.040
    1ECLIP  CB2 6689   4.555   5.692   6.294
    1ECLIP  HB2 6690   4.508   5.790   6.273
    1ECLIP  NB2 6691   4.550   5.612   6.172
    1ECLIP HNB2 6692   4.542   5.513   6.186
    1ECLIP  CA4 6693   4.105   5.578   6.212
    1ECLIP  HA4 6694   4.199   5.535   6.169
    1ECLIP  OA4 6695   4.051   5.489   6.309
    1ECLIP HOA4 6696   4.112   5.416   6.323
    1ECLIP  CA5 6697   4.141   5.708   6.280
    1ECLIP  HA5 6698   4.049   5.751   6.325
    1ECLIP  OA5 6699   4.195   5.799   6.183
    1ECLIP  CA1 6700   4.101   5.835   6.080
    1ECLIP  HA1 6701   4.155   5.902   6.010
    1ECLIP  OA1 6702   3.987   5.903   6.131
    1ECLIP OPA2 6703   4.068   6.007   6.356
    1ECLIP OPA3 6704   4.071   6.147   6.143
    1ECLIP OPA4 6705   3.864   6.095   6.241
    1ECLIP   PA 6706   4.003   6.038   6.222
    1ECLIP  CA3 6707   4.007   5.605   6.101
    1ECLIP  HA3 6708   3.918   5.652   6.146
    1ECLIP  OA3 6709   3.961   5.482   6.042
    1ECLIP  C31 6710   4.057   5.405   5.987
    1ECLIP  O31 6711   4.084   5.413   5.868
    1ECLIP  C32 6712   4.064   5.271   6.062
    1ECLIP H32R 6713   4.012   5.197   5.998
    1ECLIP H32S 6714   4.008   5.278   6.158
    1ECLIP  CA2 6715   4.066   5.706   6.002
    1ECLIP  HA2 6716   4.161   5.665   5.964
    1ECLIP  NA2 6717   3.981   5.725   5.885
    1ECLIP HNA2 6718   3.896   5.672   5.885
    1ECLIP  C73 6719   4.903   5.936   6.046
    1ECLIP H73R 6720   4.951   5.985   6.134
    1ECLIP  O73 6721   4.764   5.966   6.040
    1ECLIP  C81 6722   4.723   6.086   6.066
    1ECLIP  O81 6723   4.794   6.187   6.066
    1ECLIP  C82 6724   4.575   6.099   6.031
    1ECLIP H82R 6725   4.538   6.195   6.071
    1ECLIP H82S 6726   4.519   6.017   6.082
    1ECLIP  C83 6727   4.554   6.093   5.879
    1ECLIP H83R 6728   4.566   5.987   5.847
    1ECLIP H83S 6729   4.630   6.152   5.823
    1ECLIP  C84 6730   4.415   6.140   5.834
    1ECLIP H84R 6731   4.405   6.250   5.847
    1ECLIP H84S 6732   4.337   6.090   5.896
    1ECLIP  C85 6733   4.392   6.101   5.688
    1ECLIP H85R 6734   4.385   5.990   5.684
    1ECLIP H85S 6735   4.480   6.132   5.627
    1ECLIP  C86 6736   4.264   6.157   5.625
    1ECLIP H86R 6737   4.275   6.267   5.609
    1ECLIP H86S 6738   4.179   6.140   5.695
    1ECLIP  C87 6739   4.229   6.089   5.491
    1ECLIP H87R 6740   4.143   6.141   5.444
    1ECLIP H87S 6741   4.198   5.985   5.513
    1ECLIP  C88 6742   4.347   6.082   5.392
    1ECLIP H88R 6743   4.426   6.019   5.439
    1ECLIP H88S 6744   4.390   6.184   5.377
    1ECLIP  C89 6745   4.313   6.018   5.257
    1ECLIP H89R 6746   4.232   5.942   5.270
    1ECLIP H89S 6747   4.403   5.961   5.226
    1ECLIP C810 6748   4.277   6.118   5.146
    1ECLIPH810R 6749   4.328   6.214   5.165
    1ECLIPH810S 6750   4.168   6.137   5.151
    1ECLIP C811 6751   4.316   6.067   5.007
    1ECLIPH811R 6752   4.267   6.130   4.929
    1ECLIPH811S 6753   4.277   5.964   4.995
    1ECLIP C812 6754   4.468   6.067   4.981
    1ECLIPH812R 6755   4.490   6.008   4.889
    1ECLIPH812S 6756   4.522   6.018   5.064
    1ECLIP C813 6757   4.528   6.207   4.958
    1ECLIPH813R 6758   4.470   6.258   4.879
    1ECLIPH813S 6759   4.518   6.266   5.051
    1ECLIP C814 6760   4.675   6.201   4.917
    1ECLIPH814R 6761   4.687   6.138   4.826
    1ECLIPH814S 6762   4.736   6.156   4.998
    1ECLIPH814T 6763   4.714   6.302   4.895
    1ECLIP  C74 6764   4.974   5.984   5.917
    1ECLIP H74R 6765   5.079   5.946   5.917
    1ECLIP H74S 6766   4.980   6.095   5.921
    1ECLIP  C75 6767   4.907   5.946   5.783
    1ECLIP H75R 6768   4.925   6.029   5.712
    1ECLIP H75S 6769   4.797   5.936   5.796
    1ECLIP  C76 6770   4.962   5.819   5.716
    1ECLIP H76R 6771   4.932   5.729   5.774
    1ECLIP H76S 6772   5.073   5.823   5.715
    1ECLIP  C77 6773   4.911   5.806   5.571
    1ECLIP H77R 6774   4.934   5.900   5.517
    1ECLIP H77S 6775   4.801   5.793   5.572
    1ECLIP  C78 6776   4.976   5.689   5.495
    1ECLIP H78R 6777   5.085   5.705   5.490
    1ECLIP H78S 6778   4.958   5.595   5.552
    1ECLIP  C79 6779   4.921   5.670   5.352
    1ECLIP H79R 6780   4.814   5.642   5.358
    1ECLIP H79S 6781   4.976   5.586   5.306
    1ECLIP C710 6782   4.936   5.793   5.260
    1ECLIPH710R 6783   4.870   5.875   5.296
    1ECLIPH710S 6784   5.041   5.828   5.266
    1ECLIP C711 6785   4.901   5.760   5.115
    1ECLIPH711R 6786   4.964   5.674   5.083
    1ECLIPH711S 6787   4.795   5.728   5.108
    1ECLIP C712 6788   4.925   5.878   5.019
    1ECLIPH712R 6789   5.030   5.912   5.031
    1ECLIPH712S 6790   4.859   5.962   5.051
    1ECLIP C713 6791   4.899   5.846   4.872
    1ECLIPH713R 6792   4.792   5.818   4.859
    1ECLIPH713S 6793   4.916   5.939   4.813
    1ECLIP C714 6794   4.988   5.734   4.815
    1ECLIPH714R 6795   5.095   5.754   4.839
    1ECLIPH714S 6796   4.960   5.637   4.860
    1ECLIPH714T 6797   4.976   5.725   4.705
    1ECLIP  C51 6798   4.530   5.663   6.050
    1ECLIP  O51 6799   4.534   5.783   6.028
    1ECLIP  C52 6800   4.498   5.563   5.943
    1ECLIP H52R 6801   4.588   5.503   5.922
    1ECLIP H52S 6802   4.420   5.496   5.986
    1ECLIP  C53 6803   4.444   5.625   5.813
    1ECLIP H53R 6804   4.359   5.692   5.834
    1ECLIP  O53 6805   4.405   5.510   5.740
    1ECLIP  C61 6806   4.289   5.511   5.674
    1ECLIP  O61 6807   4.229   5.612   5.641
    1ECLIP  C62 6808   4.284   5.377   5.598
    1ECLIP H62R 6809   4.277   5.295   5.672
    1ECLIP H62S 6810   4.382   5.372   5.547
    1ECLIP  C63 6811   4.168   5.363   5.497
    1ECLIP H63R 6812   4.151   5.460   5.447
    1ECLIP H63S 6813   4.075   5.335   5.551
    1ECLIP  C64 6814   4.196   5.262   5.384
    1ECLIP H64R 6815   4.107   5.258   5.318
    1ECLIP H64S 6816   4.212   5.160   5.426
    1ECLIP  C65 6817   4.318   5.306   5.304
    1ECLIP H65R 6818   4.407   5.294   5.370
    1ECLIP H65S 6819   4.307   5.414   5.278
    1ECLIP  C66 6820   4.349   5.228   5.175
    1ECLIP H66R 6821   4.385   5.127   5.203
    1ECLIP H66S 6822   4.433   5.279   5.123
    1ECLIP  C67 6823   4.232   5.216   5.078
    1ECLIP H67R 6824   4.154   5.151   5.123
    1ECLIP H67S 6825   4.273   5.164   4.990
    1ECLIP  C68 6826   4.169   5.348   5.035
    1ECLIP H68R 6827   4.251   5.418   5.007
    1ECLIP H68S 6828   4.112   5.393   5.117
    1ECLIP  C69 6829   4.080   5.326   4.911
    1ECLIP H69R 6830   3.980   5.288   4.941
    1ECLIP H69S 6831   4.127   5.247   4.851
    1ECLIP C610 6832   4.067   5.449   4.821
    1ECLIPH610R 6833   4.161   5.509   4.825
    1ECLIPH610S 6834   3.985   5.513   4.860
    1ECLIP C611 6835   4.038   5.413   4.674
    1ECLIPH611R 6836   3.954   5.341   4.674
    1ECLIPH611S 6837   4.005   5.507   4.624
    1ECLIP C612 6838   4.156   5.357   4.594
    1ECLIPH612R 6839   4.240   5.429   4.594
    1ECLIPH612S 6840   4.191   5.261   4.638
    1ECLIPH612T 6841   4.126   5.337   4.490
    1ECLIP  C54 6842   4.555   5.701   5.736
    1ECLIP H54R 6843   4.641   5.633   5.719
    1ECLIP H54S 6844   4.592   5.783   5.800
    1ECLIP  C55 6845   4.511   5.764   5.603
    1ECLIP H55R 6846   4.566   5.859   5.589
    1ECLIP H55S 6847   4.403   5.789   5.608
    1ECLIP  C56 6848   4.539   5.673   5.483
    1ECLIP H56R 6849   4.485   5.577   5.497
    1ECLIP H56S 6850   4.648   5.650   5.483
    1ECLIP  C57 6851   4.500   5.736   5.351
    1ECLIP H57R 6852   4.556   5.831   5.335
    1ECLIP H57S 6853   4.391   5.760   5.352
    1ECLIP  C58 6854   4.529   5.640   5.235
    1ECLIP H58R 6855   4.637   5.616   5.233
    1ECLIP H58S 6856   4.475   5.545   5.256
    1ECLIP  C59 6857   4.486   5.690   5.097
    1ECLIP H59R 6858   4.543   5.782   5.071
    1ECLIP H59S 6859   4.378   5.715   5.099
    1ECLIP C510 6860   4.513   5.580   4.995
    1ECLIPH510R 6861   4.465   5.488   5.032
    1ECLIPH510S 6862   4.622   5.562   4.987
    1ECLIP C511 6863   4.457   5.611   4.855
    1ECLIPH511R 6864   4.347   5.626   4.863
    1ECLIPH511S 6865   4.502   5.707   4.820
    1ECLIP C512 6866   4.488   5.503   4.752
    1ECLIPH512R 6867   4.435   5.532   4.658
    1ECLIPH512S 6868   4.597   5.502   4.731
    1ECLIP C513 6869   4.443   5.361   4.789
    1ECLIPH513R 6870   4.333   5.362   4.804
    1ECLIPH513S 6871   4.487   5.331   4.887
    1ECLIP C514 6872   4.479   5.253   4.686
    1ECLIPH514R 6873   4.588   5.232   4.689
    1ECLIPH514S 6874   4.426   5.158   4.709
    1ECLIPH514T 6875   4.451   5.285   4.583
    1ECLIP  C33 6876   4.209   5.222   6.089
    1ECLIP H33R 6877   4.206   5.116   6.122
    1ECLIP  O33 6878   4.263   5.296   6.197
    1ECLIP HO33 6879   4.260   5.246   6.280
    1ECLIP  C34 6880   4.299   5.236   5.964
    1ECLIP H34R 6881   4.298   5.341   5.929
    1ECLIP H34S 6882   4.254   5.174   5.884
    1ECLIP  C35 6883   4.449   5.199   5.972
    1ECLIP H35R 6884   4.467   5.100   6.018
    1ECLIP H35S 6885   4.500   5.274   6.036
    1ECLIP  C36 6886   4.506   5.203   5.829
    1ECLIP H36R 6887   4.457   5.289   5.780
    1ECLIP H36S 6888   4.477   5.112   5.773
    1ECLIP  C37 6889   4.656   5.229   5.816
    1ECLIP H37R 6890   4.707   5.131   5.806
    1ECLIP H37S 6891   4.693   5.278   5.910
    1ECLIP  C38 6892   4.692   5.319   5.696
    1ECLIP H38R 6893   4.637   5.415   5.705
    1ECLIP H38S 6894   4.801   5.344   5.701
    1ECLIP  C39 6895   4.664   5.258   5.558
    1ECLIP H39R 6896   4.554   5.252   5.543
    1ECLIP H39S 6897   4.702   5.154   5.556
    1ECLIP C310 6898   4.729   5.340   5.446
    1ECLIPH310R 6899   4.839   5.327   5.452
    1ECLIPH310S 6900   4.708   5.448   5.462
    1ECLIP C311 6901   4.680   5.300   5.306
    1ECLIPH311R 6902   4.666   5.190   5.304
    1ECLIPH311S 6903   4.582   5.348   5.288
    1ECLIP C312 6904   4.774   5.343   5.194
    1ECLIPH312R 6905   4.782   5.453   5.191
    1ECLIPH312S 6906   4.874   5.301   5.219
    1ECLIP C313 6907   4.727   5.291   5.057
    1ECLIPH313R 6908   4.717   5.181   5.061
    1ECLIPH313S 6909   4.625   5.332   5.040
    1ECLIP C314 6910   4.816   5.331   4.939
    1ECLIPH314R 6911   4.914   5.280   4.946
    1ECLIPH314S 6912   4.768   5.302   4.844
    1ECLIPH314T 6913   4.833   5.441   4.939
    1ECLIP  C11 6914   4.011   5.803   5.780
    1ECLIP  O11 6915   4.117   5.864   5.770
    1ECLIP  C12 6916   3.904   5.818   5.672
    1ECLIP H12R 6917   3.872   5.925   5.677
    1ECLIP H12S 6918   3.816   5.755   5.696
    1ECLIP  C13 6919   3.953   5.787   5.530
    1ECLIP H13R 6920   4.060   5.816   5.518
    1ECLIP  O13 6921   3.877   5.865   5.439
    1ECLIP HO13 6922   3.899   5.848   5.347
    1ECLIP  C14 6923   3.935   5.640   5.486
    1ECLIP H14R 6924   3.834   5.607   5.520
    1ECLIP H14S 6925   4.009   5.579   5.543
    1ECLIP  C15 6926   3.943   5.611   5.334
    1ECLIP H15R 6927   3.852   5.654   5.287
    1ECLIP H15S 6928   3.936   5.501   5.319
    1ECLIP  C16 6929   4.067   5.663   5.259
    1ECLIP H16R 6930   4.151   5.592   5.278
    1ECLIP H16S 6931   4.099   5.762   5.297
    1ECLIP  C17 6932   4.044   5.674   5.106
    1ECLIP H17R 6933   3.987   5.584   5.075
    1ECLIP H17S 6934   4.141   5.674   5.054
    1ECLIP  C18 6935   3.966   5.801   5.068
    1ECLIP H18R 6936   3.881   5.812   5.138
    1ECLIP H18S 6937   4.031   5.890   5.078
    1ECLIP  C19 6938   3.905   5.797   4.925
    1ECLIP H19R 6939   3.832   5.881   4.917
    1ECLIP H19S 6940   3.848   5.703   4.913
    1ECLIP C110 6941   4.006   5.812   4.811
    1ECLIPH110R 6942   4.065   5.905   4.825
    1ECLIPH110S 6943   4.077   5.727   4.814
    1ECLIP C111 6944   3.937   5.815   4.672
    1ECLIPH111R 6945   3.865   5.730   4.668
    1ECLIPH111S 6946   3.878   5.909   4.662
    1ECLIP C112 6947   4.036   5.802   4.556
    1ECLIPH112R 6948   4.101   5.892   4.554
    1ECLIPH112S 6949   4.100   5.713   4.576
    1ECLIP C113 6950   3.973   5.786   4.417
    1ECLIPH113R 6951   3.895   5.707   4.422
    1ECLIPH113S 6952   3.922   5.880   4.389
    1ECLIP C114 6953   4.077   5.747   4.311
    1ECLIPH114R 6954   4.146   5.832   4.292
    1ECLIPH114S 6955   4.137   5.661   4.346
    1ECLIPH114T 6956   4.027   5.718   4.216
    2AKDO    C1 6957   4.661   5.577   6.854
    2AKDO   O11 6958   4.785   5.604   6.856
    2AKDO   O12 6959   4.606   5.466   6.834
    2AKDO    C2 6960   4.566   5.690   6.903
    2AKDO    C6 6961   4.583   5.901   7.017
    2AKDO    H6 6962   4.531   5.946   6.931
    2AKDO    O6 6963   4.648   5.782   6.976
    2AKDO    C3 6964   4.454   5.650   6.999
    2AKDO   H31 6965   4.497   5.602   7.089
    2AKDO   H32 6966   4.387   5.578   6.950
    2AKDO    C4 6967   4.379   5.769   7.047
    2AKDO    H4 6968   4.339   5.823   6.958
    2AKDO    O4 6969   4.271   5.727   7.130
    2AKDO    C5 6970   4.472   5.868   7.120
    2AKDO    H5 6971   4.410   5.960   7.134
    2AKDO    O5 6972   4.513   5.819   7.250
    2AKDO    C7 6973   4.707   5.987   7.043
    2AKDO    H7 6974   4.763   5.939   7.127
    2AKDO    O7 6975   4.676   6.122   7.079
    2AKDO   HO7 6976   4.583   6.124   7.101
    2AKDO    C8 6977   4.791   5.985   6.912
    2AKDO   H81 6978   4.815   5.881   6.884
    2AKDO   H82 6979   4.731   6.029   6.830
    2AKDO    O8 6980   4.921   6.046   6.910
    2AKDO   HO8 6981   4.945   6.030   6.818
    3AKDO    C1 6982   4.095   5.776   6.959
    3AKDO   O11 6983   4.052   5.722   6.854
    3AKDO   O12 6984   4.108   5.901   6.978
    3AKDO    C2 6985   4.149   5.682   7.072
    3AKDO    C6 6986   4.189   5.447   7.131
    3AKDO    H6 6987   4.294   5.471   7.160
    3AKDO    O6 6988   4.146   5.542   7.030
    3AKDO    C3 6989   4.062   5.693   7.197
    3AKDO   H31 6990   3.957   5.669   7.168
    3AKDO   H32 6991   4.062   5.799   7.233
    3AKDO    C4 6992   4.107   5.603   7.307
    3AKDO    H4 6993   4.213   5.624   7.334
    3AKDO    O4 6994   4.029   5.628   7.424
    3AKDO   HO4 6995   4.087   5.670   7.488
    3AKDO    C5 6996   4.101   5.459   7.257
    3AKDO    H5 6997   4.144   5.394   7.337
    3AKDO    O5 6998   3.967   5.415   7.236
    3AKDO   HO5 6999   3.934   5.453   7.155
    3AKDO    C7 7000   4.189   5.301   7.079
    3AKDO    H7 7001   4.084   5.268   7.061
    3AKDO    O7 7002   4.248   5.216   7.177
    3AKDO   HO7 7003   4.276   5.143   7.122
    3AKDO    C8 7004   4.268   5.282   6.950
    3AKDO   H81 7005   4.219   5.339   6.867
    3AKDO   H82 7006   4.371   5.322   6.962
    3AKDO    O8 7007   4.275   5.143   6.911
    3AKDO   HO8 7008   4.232   5.125   6.827
    4AHEP    C1 7009   4.555   5.917   7.344
    4AHEP    H1 7010   4.655   5.951   7.308
    4AHEP    C5 7011   4.345   6.012   7.405
    4AHEP    H5 7012   4.299   5.923   7.356
    4AHEP    O5 7013   4.474   6.035   7.344
    4AHEP    C2 7014   4.578   5.872   7.488
    4AHEP    H2 7015   4.629   5.774   7.481
    4AHEP    O2 7016   4.664   5.959   7.561
    4AHEP   HO2 7017   4.619   5.967   7.646
    4AHEP    C3 7018   4.449   5.849   7.565
    4AHEP    H3 7019   4.394   5.761   7.526
    4AHEP    O3 7020   4.485   5.833   7.707
    4AHEP    C4 7021   4.365   5.976   7.556
    4AHEP    H4 7022   4.421   6.059   7.604
    4AHEP    O4 7023   4.241   5.952   7.624
    4AHEP    P4 7024   4.148   6.069   7.696
    4AHEP  OP42 7025   4.093   6.013   7.825
    4AHEP  OP43 7026   4.037   6.101   7.598
    4AHEP  OP44 7027   4.238   6.190   7.720
    4AHEP    C6 7028   4.255   6.131   7.372
    4AHEP    H6 7029   4.150   6.102   7.393
    4AHEP    O6 7030   4.291   6.244   7.453
    4AHEP   HO6 7031   4.253   6.224   7.539
    4AHEP    C7 7032   4.256   6.172   7.224
    4AHEP   H71 7033   4.180   6.251   7.207
    4AHEP   H72 7034   4.227   6.085   7.161
    4AHEP    O7 7035   4.384   6.222   7.181
    4AHEP   HO7 7036   4.437   6.201   7.259
    5AHEP    C1 7037   4.476   5.705   7.767
    5AHEP    H1 7038   4.388   5.650   7.728
    5AHEP    C5 7039   4.716   5.684   7.800
    5AHEP    H5 7040   4.732   5.781   7.748
    5AHEP    O5 7041   4.595   5.625   7.750
    5AHEP    C2 7042   4.462   5.718   7.919
    5AHEP    H2 7043   4.373   5.782   7.938
    5AHEP    O2 7044   4.436   5.591   7.978
    5AHEP   HO2 7045   4.513   5.535   7.965
    5AHEP    C3 7046   4.584   5.786   7.983
    5AHEP    H3 7047   4.593   5.889   7.940
    5AHEP    O3 7048   4.571   5.792   8.125
    5AHEP    C4 7049   4.709   5.705   7.952
    5AHEP    H4 7050   4.709   5.609   8.007
    5AHEP    O4 7051   4.822   5.786   7.984
    5AHEP    P4 7052   4.922   5.791   8.115
    5AHEP  OP42 7053   4.999   5.922   8.096
    5AHEP  OP43 7054   5.018   5.674   8.109
    5AHEP  OP44 7055   4.843   5.798   8.243
    5AHEP    C6 7056   4.825   5.585   7.753
    5AHEP    H6 7057   4.924   5.632   7.770
    5AHEP    O6 7058   4.819   5.464   7.828
    5AHEP   HO6 7059   4.756   5.410   7.780
    5AHEP    C7 7060   4.807   5.549   7.605
    5AHEP   H71 7061   4.908   5.523   7.566
    5AHEP   H72 7062   4.773   5.637   7.546
    5AHEP    O7 7063   4.724   5.434   7.582
    6AHEP    C1 7064   4.606   5.463   7.507
    6AHEP    H1 7065   4.565   5.562   7.535
    6AHEP    C5 7066   4.674   5.341   7.313
    6AHEP    H5 7067   4.767   5.318   7.368
    6AHEP    O5 7068   4.630   5.468   7.366
    6AHEP    C2 7069   4.501   5.359   7.542
    6AHEP    H2 7070   4.493   5.353   7.651
    6AHEP    O2 7071   4.371   5.396   7.492
    6AHEP   HO2 7072   4.331   5.315   7.459
    6AHEP    C3 7073   4.545   5.224   7.490
    6AHEP    H3 7074   4.639   5.195   7.542
    6AHEP    O3 7075   4.447   5.123   7.519
    6AHEP   HO3 7076   4.465   5.049   7.460
    6AHEP    C4 7077   4.571   5.232   7.341
    6AHEP    H4 7078   4.477   5.257   7.288
    6AHEP    O4 7079   4.619   5.105   7.293
    6AHEP   HO4 7080   4.561   5.072   7.224
    6AHEP    C6 7081   4.708   5.350   7.164
    6AHEP    H6 7082   4.738   5.250   7.127
    6AHEP    O6 7083   4.591   5.385   7.091
    6AHEP   HO6 7084   4.612   5.394   6.998
    6AHEP    C7 7085   4.824   5.445   7.134
    6AHEP   H71 7086   4.849   5.437   7.026
    6AHEP   H72 7087   4.913   5.411   7.190
    6AHEP    O7 7088   4.800   5.583   7.167
    6AHEP   HO7 7089   4.724   5.602   7.110
    7AGLC    C1 7090   4.511   5.906   8.182
    7AGLC    H1 7091   4.557   5.998   8.141
    7AGLC    C5 7092   4.302   5.793   8.214
    7AGLC    H5 7093   4.349   5.702   8.171
    7AGLC    O5 7094   4.369   5.909   8.161
    7AGLC    C2 7095   4.531   5.904   8.334
    7AGLC    H2 7096   4.475   5.992   8.374
    7AGLC    O2 7097   4.666   5.927   8.372
    7AGLC   HO2 7098   4.722   5.868   8.320
    7AGLC    C3 7099   4.471   5.779   8.398
    7AGLC    H3 7100   4.516   5.691   8.348
    7AGLC    O3 7101   4.493   5.770   8.542
    7AGLC    C4 7102   4.322   5.785   8.365
    7AGLC    H4 7103   4.282   5.879   8.410
    7AGLC    O4 7104   4.248   5.678   8.421
    7AGLC   HO4 7105   4.252   5.602   8.362
    7AGLC    C6 7106   4.157   5.793   8.167
    7AGLC   H61 7107   4.154   5.829   8.062
    7AGLC   H62 7108   4.119   5.689   8.167
    7AGLC    O6 7109   4.071   5.873   8.249
    7AGLC   HO6 7110   4.002   5.910   8.194
    8AGLC    C1 7111   4.545   5.646   8.587
    8AGLC    H1 7112   4.498   5.561   8.531
    8AGLC    C5 7113   4.763   5.736   8.625
    8AGLC    H5 7114   4.723   5.835   8.592
    8AGLC    O5 7115   4.686   5.634   8.561
    8AGLC    C2 7116   4.528   5.630   8.737
    8AGLC    H2 7117   4.574   5.532   8.763
    8AGLC    O2 7118   4.393   5.626   8.785
    8AGLC    C3 7119   4.602   5.741   8.813
    8AGLC    H3 7120   4.565   5.836   8.769
    8AGLC    O3 7121   4.569   5.748   8.955
    8AGLC    C4 7122   4.748   5.727   8.776
    8AGLC    H4 7123   4.782   5.626   8.806
    8AGLC    O4 7124   4.835   5.822   8.839
    8AGLC   HO4 7125   4.919   5.790   8.802
    8AGLC    C6 7126   4.906   5.728   8.572
    8AGLC   H61 7127   4.907   5.684   8.470
    8AGLC   H62 7128   4.946   5.831   8.562
    8AGLC    O6 7129   4.992   5.653   8.660
    8AGLC   HO6 7130   4.994   5.563   8.627
    9AGAL    C1 7131   4.304   5.540   8.720
    9AGAL    H1 7132   4.312   5.547   8.609
    9AGAL    C5 7133   4.307   5.378   8.894
    9AGAL    H5 7134   4.378   5.444   8.948
    9AGAL    O5 7135   4.324   5.402   8.754
    9AGAL    C2 7136   4.165   5.585   8.759
    9AGAL    H2 7137   4.091   5.527   8.697
    9AGAL    O2 7138   4.166   5.722   8.712
    9AGAL    C3 7139   4.141   5.561   8.906
    9AGAL    H3 7140   4.211   5.624   8.965
    9AGAL    O3 7141   4.007   5.591   8.945
    9AGAL   HO3 7142   3.962   5.507   8.936
    9AGAL    C4 7143   4.166   5.414   8.938
    9AGAL    H4 7144   4.157   5.399   9.046
    9AGAL    O4 7145   4.067   5.332   8.875
    9AGAL   HO4 7146   4.113   5.266   8.822
    9AGAL    C6 7147   4.352   5.235   8.924
    9AGAL   H61 7148   4.453   5.219   8.881
    9AGAL   H62 7149   4.357   5.222   9.035
    9AGAL    O6 7150   4.265   5.135   8.872
    9AGAL   HO6 7151   4.298   5.105   8.786
   10AGAL    C1 7152   4.077   5.819   8.761
   10AGAL    H1 7153   3.974   5.779   8.749
   10AGAL    C5 7154   4.242   5.908   8.910
   10AGAL    H5 7155   4.312   5.830   8.872
   10AGAL    O5 7156   4.107   5.859   8.896
   10AGAL    C2 7157   4.090   5.944   8.675
   10AGAL    H2 7158   4.023   6.020   8.719
   10AGAL    O2 7159   4.043   5.923   8.543
   10AGAL   HO2 7160   4.091   5.854   8.497
   10AGAL    C3 7161   4.233   5.997   8.681
   10AGAL    H3 7162   4.302   5.918   8.645
   10AGAL    O3 7163   4.249   6.111   8.595
   10AGAL   HO3 7164   4.200   6.093   8.514
   10AGAL    C4 7165   4.265   6.032   8.825
   10AGAL    H4 7166   4.373   6.057   8.829
   10AGAL    O4 7167   4.193   6.147   8.872
   10AGAL   HO4 7168   4.175   6.199   8.793
   10AGAL    C6 7169   4.275   5.926   9.057
   10AGAL   H61 7170   4.268   5.828   9.108
   10AGAL   H62 7171   4.380   5.962   9.066
   10AGAL    O6 7172   4.188   6.019   9.122
   10AGAL   HO6 7173   4.168   6.084   9.054
   11BGLC    C1 7174   4.640   5.664   9.044
   11BGLC    H1 7175   4.741   5.706   9.061
   11BGLC    C5 7176   4.726   5.445   9.070
   11BGLC    H5 7177   4.827   5.488   9.090
   11BGLC    O5 7178   4.650   5.534   8.990
   11BGLC    C2 7179   4.566   5.654   9.177
   11BGLC    H2 7180   4.466   5.610   9.156
   11BGLC    O2 7181   4.543   5.783   9.235
   11BGLC   HO2 7182   4.557   5.849   9.167
   11BGLC    C3 7183   4.639   5.561   9.273
   11BGLC    H3 7184   4.740   5.601   9.296
   11BGLC    O3 7185   4.567   5.539   9.396
   11BGLC    C4 7186   4.654   5.426   9.203
   11BGLC    H4 7187   4.552   5.388   9.181
   11BGLC    O4 7188   4.720   5.328   9.282
   11BGLC   HO4 7189   4.674   5.245   9.267
   11BGLC    C6 7190   4.743   5.322   8.984
   11BGLC   H61 7191   4.785   5.239   9.045
   11BGLC   H62 7192   4.646   5.289   8.943
   11BGLC    O6 7193   4.833   5.348   8.877
   11BGLC   HO6 7194   4.832   5.277   8.812
   12BGLCN   C1 7195   4.605   5.609   9.513
   12BGLCN   H1 7196   4.594   5.718   9.498
   12BGLCN   C5 7197   4.776   5.638   9.679
   12BGLCN   H5 7198   4.767   5.749   9.669
   12BGLCN   O5 7199   4.739   5.576   9.554
   12BGLCN   C2 7200   4.508   5.558   9.620
   12BGLCN   H2 7201   4.525   5.449   9.629
   12BGLCN    N 7202   4.371   5.580   9.575
   12BGLCN   HN 7203   4.354   5.665   9.525
   12BGLCN    C 7204   4.272   5.490   9.584
   12BGLCN    O 7205   4.282   5.385   9.645
   12BGLCN   CT 7206   4.143   5.527   9.514
   12BGLCN  HT1 7207   4.059   5.474   9.564
   12BGLCN  HT2 7208   4.147   5.494   9.408
   12BGLCN  HT3 7209   4.126   5.636   9.519
   12BGLCN   C3 7210   4.539   5.621   9.756
   12BGLCN   H3 7211   4.523   5.731   9.749
   12BGLCN   O3 7212   4.455   5.566   9.861
   12BGLCN   C4 7213   4.684   5.589   9.789
   12BGLCN   H4 7214   4.694   5.479   9.796
   12BGLCN   O4 7215   4.724   5.644   9.915
   12BGLCN  HO4 7216   4.703   5.737   9.920
   12BGLCN   C6 7217   4.922   5.603   9.703
   12BGLCN  H61 7218   4.950   5.625   9.808
   12BGLCN  H62 7219   4.938   5.494   9.688
   12BGLCN   O6 7220   5.011   5.677   9.620
   12BGLCN  HO6 7221   4.988   5.661   9.528
   13AGAL    C1 7222   4.416   5.654   9.966
   13AGAL    H1 7223   4.498   5.725   9.990
   13AGAL    C5 7224   4.187   5.643   9.898
   13AGAL    H5 7225   4.222   5.570   9.821
   13AGAL    O5 7226   4.299   5.729   9.929
   13AGAL    C2 7227   4.379   5.577  10.094
   13AGAL    H2 7228   4.341   5.653  10.165
   13AGAL    O2 7229   4.492   5.511  10.153
   13AGAL    C3 7230   4.265   5.480  10.064
   13AGAL    H3 7231   4.297   5.410   9.984
   13AGAL    O3 7232   4.230   5.403  10.179
   13AGAL   HO3 7233   4.259   5.312  10.167
   13AGAL    C4 7234   4.145   5.559  10.018
   13AGAL    H4 7235   4.069   5.486   9.984
   13AGAL    O4 7236   4.089   5.636  10.125
   13AGAL   HO4 7237   4.104   5.585  10.204
   13AGAL    C6 7238   4.076   5.722   9.830
   13AGAL   H61 7239   4.120   5.793   9.757
   13AGAL   H62 7240   4.010   5.653   9.774
   13AGAL    O6 7241   3.996   5.794   9.924
   13AGAL   HO6 7242   4.026   5.769  10.011
   14ARHM    C1 7243   4.536   5.554  10.280
   14ARHM    H1 7244   4.527   5.665  10.286
   14ARHM    C5 7245   4.696   5.382  10.292
   14ARHM    H5 7246   4.661   5.345  10.193
   14ARHM    O5 7247   4.674   5.523  10.300
   14ARHM    C2 7248   4.453   5.491  10.391
   14ARHM    H2 7249   4.346   5.515  10.374
   14ARHM    O2 7250   4.489   5.531  10.524
   14ARHM    C3 7251   4.472   5.341  10.385
   14ARHM    H3 7252   4.442   5.305  10.285
   14ARHM    O3 7253   4.388   5.274  10.480
   14ARHM   HO3 7254   4.379   5.184  10.450
   14ARHM    C4 7255   4.620   5.308  10.401
   14ARHM    H4 7256   4.654   5.345  10.500
   14ARHM    O4 7257   4.645   5.167  10.396
   14ARHM   HO4 7258   4.739   5.153  10.410
   14ARHM    C6 7259   4.849   5.364  10.294
   14ARHM   H61 7260   4.896   5.429  10.216
   14ARHM   H62 7261   4.890   5.392  10.393
   14ARHM   H63 7262   4.876   5.259  10.271
   15ARHM    C1 7263   4.466   5.665  10.559
   15ARHM    H1 7264   4.398   5.714  10.486
   15ARHM    C5 7265   4.683   5.679  10.658
   15ARHM    H5 7266   4.703   5.575  10.625
   15ARHM    O5 7267   4.589   5.740  10.568
   15ARHM    C2 7268   4.401   5.662  10.696
   15ARHM    H2 7269   4.309   5.601  10.691
   15ARHM    O2 7270   4.365   5.799  10.726
   15ARHM    C3 7271   4.495   5.598  10.796
   15ARHM    H3 7272   4.516   5.495  10.761
   15ARHM    O3 7273   4.428   5.589  10.923
   15ARHM    C4 7274   4.625   5.676  10.799
   15ARHM    H4 7275   4.602   5.781  10.829
   15ARHM    O4 7276   4.717   5.625  10.895
   15ARHM   HO4 7277   4.782   5.570  10.852
   15ARHM    C6 7278   4.815   5.756  10.645
   15ARHM   H61 7279   4.895   5.710  10.707
   15ARHM   H62 7280   4.849   5.756  10.539
   15ARHM   H63 7281   4.802   5.862  10.677
   16BMANN   C1 7282   4.304   5.831  10.847
   16BMANN   H1 7283   4.378   5.824  10.930
   16BMANN   C5 7284   4.128   5.784  11.002
   16BMANN   H5 7285   4.203   5.778  11.082
   16BMANN   O5 7286   4.190   5.748  10.877
   16BMANN   C2 7287   4.259   5.975  10.832
   16BMANN   H2 7288   4.351   6.036  10.822
   16BMANN    N 7289   4.176   5.995  10.712
   16BMANN   HN 7290   4.082   5.965  10.716
   16BMANN    C 7291   4.220   6.055  10.601
   16BMANN    O 7292   4.334   6.097  10.589
   16BMANN   CT 7293   4.121   6.067  10.488
   16BMANN  HT1 7294   4.111   6.173  10.458
   16BMANN  HT2 7295   4.021   6.030  10.519
   16BMANN  HT3 7296   4.156   6.007  10.403
   16BMANN   C3 7297   4.192   6.019  10.960
   16BMANN   H3 7298   4.265   6.015  11.043
   16BMANN   O3 7299   4.147   6.154  10.950
   16BMANN  HO3 7300   4.219   6.214  10.929
   16BMANN   C4 7301   4.076   5.927  10.992
   16BMANN   H4 7302   4.000   5.932  10.911
   16BMANN   O4 7303   4.011   5.963  11.116
   16BMANN  HO4 7304   3.979   6.053  11.104
   16BMANN   C6 7305   4.020   5.682  11.031
   16BMANN  H61 7306   3.964   5.712  11.123
   16BMANN  H62 7307   3.947   5.679  10.946
   16BMANN   O6 7308   4.074   5.551  11.054
   16BMANN  HO6 7309   4.131   5.531  10.978
   17BGLCN   C1 7310   4.463   5.479  11.002
   17BGLCN   H1 7311   4.568   5.447  10.984
   17BGLCN   C5 7312   4.403   5.257  11.065
   17BGLCN   H5 7313   4.508   5.223  11.048
   17BGLCN   O5 7314   4.373   5.369  10.981
   17BGLCN   C2 7315   4.445   5.528  11.144
   17BGLCN   H2 7316   4.336   5.544  11.158
   17BGLCN    N 7317   4.510   5.656  11.165
   17BGLCN   HN 7318   4.588   5.675  11.106
   17BGLCN    C 7319   4.465   5.749  11.250
   17BGLCN    O 7320   4.363   5.734  11.316
   17BGLCN   CT 7321   4.547   5.874  11.262
   17BGLCN  HT1 7322   4.494   5.959  11.214
   17BGLCN  HT2 7323   4.647   5.861  11.215
   17BGLCN  HT3 7324   4.561   5.898  11.370
   17BGLCN   C3 7325   4.486   5.415  11.238
   17BGLCN   H3 7326   4.587   5.381  11.204
   17BGLCN   O3 7327   4.496   5.457  11.375
   17BGLCN   C4 7328   4.389   5.301  11.211
   17BGLCN   H4 7329   4.285   5.337  11.227
   17BGLCN   O4 7330   4.409   5.191  11.300
   17BGLCN  HO4 7331   4.396   5.221  11.390
   17BGLCN   C6 7332   4.310   5.144  11.026
   17BGLCN  H61 7333   4.321   5.060  11.097
   17BGLCN  H62 7334   4.205   5.180  11.029
   17BGLCN   O6 7335   4.339   5.093  10.895
   17BGLCN  HO6 7336   4.342   5.166  10.832
   18AGAL    C1 7337   4.602   5.398  11.449
   18AGAL    H1 7338   4.587   5.288  11.454
   18AGAL    C5 7339   4.767   5.559  11.381
   18AGAL    H5 7340   4.682   5.613  11.333
   18AGAL    O5 7341   4.731   5.420  11.387
   18AGAL    C2 7342   4.612   5.452  11.590
   18AGAL    H2 7343   4.700   5.398  11.633
   18AGAL    O2 7344   4.497   5.418  11.673
   18AGAL    C3 7345   4.645   5.601  11.589
   18AGAL    H3 7346   4.566   5.653  11.531
   18AGAL    O3 7347   4.646   5.659  11.720
   18AGAL   HO3 7348   4.651   5.754  11.714
   18AGAL    C4 7349   4.779   5.621  11.520
   18AGAL    H4 7350   4.797   5.730  11.508
   18AGAL    O4 7351   4.888   5.568  11.596
   18AGAL   HO4 7352   4.878   5.602  11.686
   18AGAL    C6 7353   4.883   5.581  11.286
   18AGAL   H61 7354   4.857   5.535  11.187
   18AGAL   H62 7355   4.896   5.690  11.267
   18AGAL    O6 7356   5.008   5.528  11.329
   18AGAL   HO6 7357   5.044   5.589  11.394
   19ARHM    C1 7358   4.533   5.388  11.807
   19ARHM    H1 7359   4.633   5.430  11.831
   19ARHM    C5 7360   4.414   5.180  11.818
   19ARHM    H5 7361   4.376   5.197  11.714
   19ARHM    O5 7362   4.540   5.246  11.832
   19ARHM    C2 7363   4.436   5.448  11.905
   19ARHM    H2 7364   4.421   5.554  11.877
   19ARHM    O2 7365   4.489   5.442  12.040
   19ARHM    C3 7366   4.299   5.384  11.898
   19ARHM    H3 7367   4.256   5.403  11.797
   19ARHM    O3 7368   4.214   5.442  11.998
   19ARHM   HO3 7369   4.245   5.409  12.082
   19ARHM    C4 7370   4.315   5.235  11.919
   19ARHM    H4 7371   4.359   5.218  12.020
   19ARHM    O4 7372   4.191   5.164  11.915
   19ARHM   HO4 7373   4.159   5.163  11.824
   19ARHM    C6 7374   4.441   5.030  11.835
   19ARHM   H61 7375   4.533   5.002  11.780
   19ARHM   H62 7376   4.458   5.005  11.943
   19ARHM   H63 7377   4.356   4.969  11.797
   20ARHM    C1 7378   4.584   5.542  12.066
   20ARHM    H1 7379   4.591   5.612  11.979
   20ARHM    C5 7380   4.734   5.416  12.204
   20ARHM    H5 7381   4.668   5.326  12.197
   20ARHM    O5 7382   4.718   5.495  12.085
   20ARHM    C2 7383   4.536   5.622  12.184
   20ARHM    H2 7384   4.428   5.644  12.172
   20ARHM    O2 7385   4.607   5.746  12.196
   20ARHM    C3 7386   4.550   5.540  12.311
   20ARHM    H3 7387   4.486   5.449  12.300
   20ARHM    O3 7388   4.505   5.619  12.420
   20ARHM    C4 7389   4.694   5.498  12.325
   20ARHM    H4 7390   4.757   5.590  12.328
   20ARHM    O4 7391   4.718   5.427  12.447
   20ARHM   HO4 7392   4.813   5.417  12.456
   20ARHM    C6 7393   4.880   5.368  12.210
   20ARHM   H61 7394   4.949   5.455  12.210
   20ARHM   H62 7395   4.899   5.307  12.300
   20ARHM   H63 7396   4.904   5.305  12.121
   21BMANN   C1 7397   4.556   5.847  12.110
   21BMANN   H1 7398   4.479   5.806  12.043
   21BMANN   C5 7399   4.611   6.003  11.940
   21BMANN   H5 7400   4.528   5.961  11.880
   21BMANN   O5 7401   4.661   5.902  12.030
   21BMANN   C2 7402   4.496   5.953  12.200
   21BMANN   H2 7403   4.410   5.906  12.252
   21BMANN    N 7404   4.590   5.998  12.301
   21BMANN   HN 7405   4.686   5.984  12.280
   21BMANN    C 7406   4.556   6.044  12.422
   21BMANN    O 7407   4.439   6.060  12.457
   21BMANN   CT 7408   4.670   6.077  12.516
   21BMANN  HT1 7409   4.710   6.178  12.491
   21BMANN  HT2 7410   4.751   6.002  12.505
   21BMANN  HT3 7411   4.633   6.078  12.620
   21BMANN   C3 7412   4.442   6.062  12.109
   21BMANN   H3 7413   4.370   6.015  12.038
   21BMANN   O3 7414   4.368   6.160  12.180
   21BMANN  HO3 7415   4.418   6.188  12.258
   21BMANN   C4 7416   4.555   6.119  12.023
   21BMANN   H4 7417   4.635   6.158  12.089
   21BMANN   O4 7418   4.511   6.225  11.940
   21BMANN  HO4 7419   4.504   6.305  11.993
   21BMANN   C6 7420   4.720   6.040  11.842
   21BMANN  H61 7421   4.681   6.115  11.770
   21BMANN  H62 7422   4.806   6.086  11.897
   21BMANN   O6 7423   4.765   5.925  11.769
   21BMANN  HO6 7424   4.822   5.874  11.828
   22BGLCN   C1 7425   4.433   5.547  12.517
   22BGLCN   H1 7426   4.463   5.440  12.519
   22BGLCN   C5 7427   4.214   5.498  12.596
   22BGLCN   H5 7428   4.242   5.391  12.602
   22BGLCN   O5 7429   4.293   5.563  12.495
   22BGLCN   C2 7430   4.470   5.614  12.648
   22BGLCN   H2 7431   4.439   5.720  12.642
   22BGLCN    N 7432   4.615   5.612  12.665
   22BGLCN   HN 7433   4.662   5.540  12.613
   22BGLCN    C 7434   4.689   5.704  12.727
   22BGLCN    O 7435   4.644   5.805  12.780
   22BGLCN   CT 7436   4.837   5.679  12.727
   22BGLCN  HT1 7437   4.881   5.712  12.630
   22BGLCN  HT2 7438   4.857   5.571  12.741
   22BGLCN  HT3 7439   4.885   5.735  12.811
   22BGLCN   C3 7440   4.393   5.547  12.759
   22BGLCN   H3 7441   4.416   5.438  12.758
   22BGLCN   O3 7442   4.440   5.601  12.884
   22BGLCN   C4 7443   4.244   5.563  12.731
   22BGLCN   H4 7444   4.221   5.671  12.725
   22BGLCN   O4 7445   4.161   5.506  12.832
   22BGLCN  HO4 7446   4.095   5.568  12.861
   22BGLCN   C6 7447   4.069   5.506  12.554
   22BGLCN  H61 7448   4.008   5.432  12.609
   22BGLCN  H62 7449   4.029   5.607  12.576
   22BGLCN   O6 7450   4.057   5.482  12.413
   22BGLCN  HO6 7451   4.141   5.512  12.377
   23AGAL    C1 7452   4.415   5.529  13.002
   23AGAL    H1 7453   4.307   5.535  13.027
   23AGAL    C5 7454   4.592   5.374  12.967
   23AGAL    H5 7455   4.618   5.431  12.874
   23AGAL    O5 7456   4.452   5.391  12.992
   23AGAL    C2 7457   4.494   5.594  13.113
   23AGAL    H2 7458   4.469   5.541  13.207
   23AGAL    O2 7459   4.458   5.732  13.123
   23AGAL    C3 7460   4.643   5.580  13.089
   23AGAL    H3 7461   4.667   5.629  12.992
   23AGAL    O3 7462   4.721   5.648  13.189
   23AGAL   HO3 7463   4.718   5.595  13.269
   23AGAL    C4 7464   4.678   5.433  13.079
   23AGAL    H4 7465   4.785   5.422  13.052
   23AGAL    O4 7466   4.656   5.367  13.203
   23AGAL   HO4 7467   4.667   5.272  13.189
   23AGAL    C6 7468   4.614   5.228  12.932
   23AGAL   H61 7469   4.541   5.199  12.853
   23AGAL   H62 7470   4.716   5.216  12.887
   23AGAL    O6 7471   4.600   5.139  13.043
   23AGAL   HO6 7472   4.506   5.122  13.055
   24ARHM    C1 7473   4.361   5.763  13.218
   24ARHM    H1 7474   4.287   5.681  13.224
   24ARHM    C5 7475   4.379   5.993  13.166
   24ARHM    H5 7476   4.452   5.970  13.085
   24ARHM    O5 7477   4.289   5.883  13.183
   24ARHM    C2 7478   4.431   5.780  13.350
   24ARHM    H2 7479   4.491   5.689  13.371
   24ARHM    O2 7480   4.337   5.799  13.457
   24ARHM    C3 7481   4.528   5.894  13.339
   24ARHM    H3 7482   4.601   5.870  13.258
   24ARHM    O3 7483   4.605   5.909  13.458
   24ARHM   HO3 7484   4.561   5.972  13.516
   24ARHM    C4 7485   4.454   6.020  13.297
   24ARHM    H4 7486   4.381   6.048  13.375
   24ARHM    O4 7487   4.546   6.128  13.279
   24ARHM   HO4 7488   4.498   6.211  13.269
   24ARHM    C6 7489   4.292   6.111  13.117
   24ARHM   H61 7490   4.355   6.198  13.092
   24ARHM   H62 7491   4.236   6.080  13.026
   24ARHM   H63 7492   4.219   6.141  13.196
   25ARHM    C1 7493   4.287   5.677  13.508
   25ARHM    H1 7494   4.308   5.595  13.436
   25ARHM    C5 7495   4.100   5.767  13.623
   25ARHM    H5 7496   4.130   5.870  13.597
   25ARHM    O5 7497   4.145   5.676  13.522
   25ARHM    C2 7498   4.359   5.644  13.635
   25ARHM    H2 7499   4.468   5.659  13.623
   25ARHM    O2 7500   4.332   5.510  13.679
   25ARHM    C3 7501   4.315   5.740  13.743
   25ARHM    H3 7502   4.341   5.843  13.713
   25ARHM    O3 7503   4.385   5.705  13.863
   25ARHM    C4 7504   4.165   5.728  13.756
   25ARHM    H4 7505   4.141   5.621  13.776
   25ARHM    O4 7506   4.111   5.801  13.866
   25ARHM   HO4 7507   4.036   5.750  13.898
   25ARHM    C6 7508   3.946   5.760  13.624
   25ARHM   H61 7509   3.906   5.784  13.523
   25ARHM   H62 7510   3.913   5.658  13.652
   25ARHM   H63 7511   3.904   5.832  13.696
   26BMANN   C1 7512   4.416   5.413  13.623
   26BMANN   H1 7513   4.511   5.457  13.588
   26BMANN   C5 7514   4.433   5.244  13.457
   26BMANN   H5 7515   4.525   5.294  13.420
   26BMANN   O5 7516   4.349   5.345  13.516
   26BMANN   C2 7517   4.446   5.313  13.734
   26BMANN   H2 7518   4.500   5.369  13.814
   26BMANN    N 7519   4.324   5.260  13.795
   26BMANN   HN 7520   4.239   5.274  13.745
   26BMANN    C 7521   4.318   5.203  13.916
   26BMANN    O 7522   4.415   5.190  13.991
   26BMANN   CT 7523   4.183   5.154  13.960
   26BMANN  HT1 7524   4.106   5.178  13.884
   26BMANN  HT2 7525   4.156   5.202  14.057
   26BMANN  HT3 7526   4.187   5.044  13.975
   26BMANN   C3 7527   4.541   5.211  13.675
   26BMANN   H3 7528   4.628   5.266  13.634
   26BMANN   O3 7529   4.591   5.120  13.770
   26BMANN  HO3 7530   4.686   5.133  13.780
   26BMANN   C4 7531   4.473   5.140  13.559
   26BMANN   H4 7532   4.382   5.089  13.597
   26BMANN   O4 7533   4.558   5.041  13.502
   26BMANN  HO4 7534   4.573   4.975  13.568
   26BMANN   C6 7535   4.364   5.187  13.333
   26BMANN  H61 7536   4.313   5.268  13.277
   26BMANN  H62 7537   4.441   5.143  13.266
   26BMANN   O6 7538   4.269   5.084  13.364
   26BMANN  HO6 7539   4.318   5.005  13.388
   27BGLCN   C1 7540   4.426   5.815  13.937
   27BGLCN   H1 7541   4.347   5.894  13.936
   27BGLCN   C5 7542   4.596   5.978  13.970
   27BGLCN   H5 7543   4.519   6.057  13.967
   27BGLCN   O5 7544   4.551   5.866  13.891
   27BGLCN   C2 7545   4.445   5.761  14.078
   27BGLCN   H2 7546   4.530   5.690  14.074
   27BGLCN    N 7547   4.327   5.687  14.121
   27BGLCN   HN 7548   4.243   5.703  14.071
   27BGLCN    C 7549   4.332   5.586  14.210
   27BGLCN    O 7550   4.435   5.555  14.269
   27BGLCN   CT 7551   4.204   5.510  14.232
   27BGLCN  HT1 7552   4.118   5.565  14.189
   27BGLCN  HT2 7553   4.188   5.496  14.341
   27BGLCN  HT3 7554   4.211   5.411  14.183
   27BGLCN   C3 7555   4.484   5.877  14.168
   27BGLCN   H3 7556   4.406   5.955  14.155
   27BGLCN   O3 7557   4.485   5.831  14.304
   27BGLCN   C4 7558   4.615   5.934  14.116
   27BGLCN   H4 7559   4.693   5.856  14.120
   27BGLCN   O4 7560   4.660   6.044  14.194
   27BGLCN  HO4 7561   4.584   6.093  14.227
   27BGLCN   C6 7562   4.723   6.033  13.906
   27BGLCN  H61 7563   4.767   6.111  13.972
   27BGLCN  H62 7564   4.798   5.951  13.895
   27BGLCN   O6 7565   4.698   6.092  13.779
   27BGLCN  HO6 7566   4.768   6.154  13.758
   28AGAL    C1 7567   4.478   5.927  14.408
   28AGAL    H1 7568   4.579   5.970  14.423
   28AGAL    C5 7569   4.249   5.991  14.369
   28AGAL    H5 7570   4.240   5.913  14.290
   28AGAL    O5 7571   4.387   6.034  14.376
   28AGAL    C2 7572   4.436   5.863  14.540
   28AGAL    H2 7573   4.438   5.948  14.612
   28AGAL    O2 7574   4.526   5.761  14.586
   28AGAL    C3 7575   4.294   5.811  14.532
   28AGAL    H3 7576   4.289   5.736  14.450
   28AGAL    O3 7577   4.254   5.746  14.653
   28AGAL   HO3 7578   4.212   5.662  14.633
   28AGAL    C4 7579   4.201   5.926  14.499
   28AGAL    H4 7580   4.099   5.886  14.482
   28AGAL    O4 7581   4.193   6.018  14.608
   28AGAL   HO4 7582   4.183   5.964  14.687
   28AGAL    C6 7583   4.164   6.108  14.323
   28AGAL   H61 7584   4.201   6.146  14.225
   28AGAL   H62 7585   4.059   6.074  14.308
   28AGAL    O6 7586   4.165   6.215  14.418
   28AGAL   HO6 7587   4.170   6.173  14.504
   29ARHM    C1 7588   4.558   5.776  14.723
   29ARHM    H1 7589   4.475   5.828  14.775
   29ARHM    C5 7590   4.791   5.788  14.675
   29ARHM    H5 7591   4.771   5.777  14.567
   29ARHM    O5 7592   4.679   5.851  14.739
   29ARHM    C2 7593   4.574   5.641  14.790
   29ARHM    H2 7594   4.481   5.583  14.773
   29ARHM    O2 7595   4.598   5.656  14.932
   29ARHM    C3 7596   4.688   5.567  14.723
   29ARHM    H3 7597   4.664   5.554  14.615
   29ARHM    O3 7598   4.707   5.437  14.778
   29ARHM   HO3 7599   4.803   5.428  14.784
   29ARHM    C4 7600   4.814   5.650  14.736
   29ARHM    H4 7601   4.836   5.664  14.844
   29ARHM    O4 7602   4.926   5.585  14.677
   29ARHM   HO4 7603   4.923   5.596  14.582
   29ARHM    C6 7604   4.911   5.882  14.692
   29ARHM   H61 7605   4.891   5.977  14.638
   29ARHM   H62 7606   4.927   5.904  14.800
   29ARHM   H63 7607   5.003   5.836  14.651
   30ARHM    C1 7608   4.484   5.632  15.012
   30ARHM    H1 7609   4.442   5.532  14.985
   30ARHM    C5 7610   4.422   5.863  15.030
   30ARHM    H5 7611   4.513   5.894  14.973
   30ARHM    O5 7612   4.382   5.731  14.991
   30ARHM    C2 7613   4.521   5.630  15.160
   30ARHM    H2 7614   4.604   5.559  15.175
   30ARHM    O2 7615   4.407   5.592  15.239
   30ARHM    C3 7616   4.566   5.768  15.206
   30ARHM    H3 7617   4.653   5.796  15.142
   30ARHM    O3 7618   4.614   5.767  15.342
   30ARHM    C4 7619   4.456   5.869  15.178
   30ARHM    H4 7620   4.364   5.842  15.234
   30ARHM    O4 7621   4.493   6.001  15.214
   30ARHM   HO4 7622   4.581   6.020  15.183
   30ARHM    C6 7623   4.306   5.955  14.989
   30ARHM   H61 7624   4.330   6.061  15.011
   30ARHM   H62 7625   4.286   5.945  14.880
   30ARHM   H63 7626   4.214   5.927  15.044
   31BMANN   C1 7627   4.383   5.455  15.258
   31BMANN   H1 7628   4.477   5.398  15.267
   31BMANN   C5 7629   4.262   5.265  15.176
   31BMANN   H5 7630   4.355   5.204  15.182
   31BMANN   O5 7631   4.298   5.403  15.155
   31BMANN   C2 7632   4.302   5.452  15.386
   31BMANN   H2 7633   4.366   5.491  15.468
   31BMANN    N 7634   4.187   5.543  15.374
   31BMANN   HN 7635   4.169   5.573  15.281
   31BMANN    C 7636   4.111   5.591  15.473
   31BMANN    O 7637   4.122   5.553  15.589
   31BMANN   CT 7638   4.011   5.696  15.433
   31BMANN  HT1 7639   3.967   5.672  15.334
   31BMANN  HT2 7640   4.061   5.795  15.427
   31BMANN  HT3 7641   3.930   5.701  15.509
   31BMANN   C3 7642   4.268   5.308  15.419
   31BMANN   H3 7643   4.364   5.251  15.422
   31BMANN   O3 7644   4.211   5.294  15.549
   31BMANN  HO3 7645   4.162   5.374  15.568
   31BMANN   C4 7646   4.184   5.251  15.307
   31BMANN   H4 7647   4.089   5.308  15.299
   31BMANN   O4 7648   4.149   5.114  15.330
   31BMANN  HO4 7649   4.206   5.077  15.398
   31BMANN   C6 7650   4.180   5.214  15.058
   31BMANN  H61 7651   4.168   5.104  15.063
   31BMANN  H62 7652   4.078   5.256  15.066
   31BMANN   O6 7653   4.231   5.251  14.930
   31BMANN  HO6 7654   4.322   5.221  14.917
   32BGLCN   C1 7655   4.519   5.776  15.447
   32BGLCN   H1 7656   4.426   5.720  15.422
   32BGLCN   C5 7657   4.387   5.921  15.582
   32BGLCN   H5 7658   4.296   5.863  15.554
   32BGLCN   O5 7659   4.485   5.911  15.478
   32BGLCN   C2 7660   4.583   5.716  15.571
   32BGLCN   H2 7661   4.663   5.787  15.601
   32BGLCN    N 7662   4.643   5.587  15.543
   32BGLCN   HN 7663   4.598   5.528  15.477
   32BGLCN    C 7664   4.764   5.549  15.589
   32BGLCN    O 7665   4.829   5.618  15.667
   32BGLCN   CT 7666   4.815   5.417  15.540
   32BGLCN  HT1 7667   4.758   5.383  15.451
   32BGLCN  HT2 7668   4.805   5.341  15.621
   32BGLCN  HT3 7669   4.922   5.427  15.513
   32BGLCN   C3 7670   4.479   5.717  15.682
   32BGLCN   H3 7671   4.389   5.665  15.642
   32BGLCN   O3 7672   4.520   5.651  15.803
   32BGLCN   C4 7673   4.444   5.862  15.709
   32BGLCN   H4 7674   4.536   5.918  15.736
   32BGLCN   O4 7675   4.353   5.875  15.817
   32BGLCN  HO4 7676   4.403   5.861  15.898
   32BGLCN   C6 7677   4.347   6.067  15.591
   32BGLCN  H61 7678   4.282   6.084  15.679
   32BGLCN  H62 7679   4.438   6.130  15.602
   32BGLCN   O6 7680   4.276   6.107  15.473
   32BGLCN  HO6 7681   4.336   6.100  15.399
   33AGAL    C1 7682   4.416   5.572  15.858
   33AGAL    H1 7683   4.317   5.621  15.845
   33AGAL    C5 7684   4.534   5.369  15.814
   33AGAL    H5 7685   4.619   5.430  15.777
   33AGAL    O5 7686   4.412   5.444  15.794
   33AGAL    C2 7687   4.437   5.550  16.007
   33AGAL    H2 7688   4.353   5.487  16.041
   33AGAL    O2 7689   4.429   5.677  16.076
   33AGAL    C3 7690   4.567   5.476  16.032
   33AGAL    H3 7691   4.650   5.536  15.988
   33AGAL    O3 7692   4.596   5.460  16.170
   33AGAL   HO3 7693   4.537   5.391  16.203
   33AGAL    C4 7694   4.561   5.342  15.961
   33AGAL    H4 7695   4.660   5.292  15.971
   33AGAL    O4 7696   4.464   5.254  16.019
   33AGAL   HO4 7697   4.411   5.220  15.946
   33AGAL    C6 7698   4.527   5.245  15.726
   33AGAL   H61 7699   4.532   5.276  15.620
   33AGAL   H62 7700   4.615   5.180  15.747
   33AGAL    O6 7701   4.408   5.170  15.746
   33AGAL   HO6 7702   4.334   5.217  15.706
   34ARHM    C1 7703   4.363   5.669  16.200
   34ARHM    H1 7704   4.398   5.580  16.257
   34ARHM    C5 7705   4.162   5.772  16.119
   34ARHM    H5 7706   4.203   5.780  16.016
   34ARHM    O5 7707   4.221   5.659  16.185
   34ARHM    C2 7708   4.401   5.795  16.277
   34ARHM    H2 7709   4.511   5.803  16.277
   34ARHM    O2 7710   4.356   5.798  16.414
   34ARHM    C3 7711   4.344   5.915  16.205
   34ARHM    H3 7712   4.384   5.917  16.101
   34ARHM    O3 7713   4.384   6.038  16.266
   34ARHM   HO3 7714   4.428   6.091  16.199
   34ARHM    C4 7715   4.193   5.900  16.196
   34ARHM    H4 7716   4.153   5.890  16.299
   34ARHM    O4 7717   4.130   6.012  16.135
   34ARHM   HO4 7718   4.181   6.090  16.156
   34ARHM    C6 7719   4.012   5.741  16.108
   34ARHM   H61 7720   3.969   5.725  16.209
   34ARHM   H62 7721   3.958   5.825  16.059
   34ARHM   H63 7722   3.995   5.649  16.048
   35ARHM    C1 7723   4.396   5.693  16.499
   35ARHM    H1 7724   4.502   5.666  16.478
   35ARHM    C5 7725   4.173   5.609  16.505
   35ARHM    H5 7726   4.140   5.685  16.431
   35ARHM    O5 7727   4.312   5.578  16.486
   35ARHM    C2 7728   4.383   5.747  16.641
   35ARHM    H2 7729   4.442   5.841  16.647
   35ARHM    O2 7730   4.428   5.659  16.745
   35ARHM    C3 7731   4.238   5.785  16.666
   35ARHM    H3 7732   4.207   5.862  16.593
   35ARHM    O3 7733   4.223   5.843  16.796
   35ARHM   HO3 7734   4.207   5.772  16.859
   35ARHM    C4 7735   4.150   5.663  16.646
   35ARHM    H4 7736   4.179   5.584  16.719
   35ARHM    O4 7737   4.012   5.694  16.663
   35ARHM   HO4 7738   4.002   5.739  16.747
   35ARHM    C6 7739   4.097   5.478  16.475
   35ARHM   H61 7740   4.118   5.445  16.371
   35ARHM   H62 7741   4.128   5.398  16.546
   35ARHM   H63 7742   3.987   5.494  16.486
   36BMANN   C1 7743   4.566   5.631  16.750
   36BMANN   H1 7744   4.624   5.722  16.724
   36BMANN   C5 7745   4.736   5.489  16.660
   36BMANN   H5 7746   4.794   5.580  16.632
   36BMANN   O5 7747   4.597   5.523  16.660
   36BMANN   C2 7748   4.599   5.586  16.892
   36BMANN   H2 7749   4.581   5.674  16.958
   36BMANN    N 7750   4.514   5.477  16.938
   36BMANN   HN 7751   4.482   5.415  16.867
   36BMANN    C 7752   4.477   5.458  17.066
   36BMANN    O 7753   4.504   5.535  17.157
   36BMANN   CT 7754   4.396   5.333  17.092
   36BMANN  HT1 7755   4.440   5.247  17.038
   36BMANN  HT2 7756   4.291   5.348  17.059
   36BMANN  HT3 7757   4.396   5.311  17.201
   36BMANN   C3 7758   4.749   5.555  16.898
   36BMANN   H3 7759   4.804   5.646  16.869
   36BMANN   O3 7760   4.791   5.520  17.030
   36BMANN  HO3 7761   4.879   5.554  17.049
   36BMANN   C4 7762   4.780   5.445  16.798
   36BMANN   H4 7763   4.724   5.353  16.825
   36BMANN   O4 7764   4.920   5.412  16.797
   36BMANN  HO4 7765   4.933   5.355  16.872
   36BMANN   C6 7766   4.760   5.385  16.550
   36BMANN  H61 7767   4.716   5.423  16.455
   36BMANN  H62 7768   4.869   5.372  16.534
   36BMANN   O6 7769   4.702   5.258  16.579
   36BMANN  HO6 7770   4.768   5.197  16.613
    1ECLIP HB6S 7771   3.045   5.656   6.681
    1ECLIP  OB6 7772   2.874   5.670   6.799
    1ECLIP  CB6 7773   2.956   5.594   6.707
    1ECLIP HB6R 7774   2.992   5.501   6.755
    1ECLIP  CB5 7775   2.889   5.553   6.577
    1ECLIP  OB5 7776   2.816   5.665   6.525
    1ECLIP  HB5 7777   2.818   5.471   6.601
    1ECLIP  CB1 7778   2.743   5.632   6.406
    1ECLIP  HB1 7779   2.674   5.548   6.427
    1ECLIP  OA6 7780   2.668   5.741   6.356
    1ECLIP  CA6 7781   2.725   5.868   6.391
    1ECLIP HA6R 7782   2.833   5.860   6.411
    1ECLIP HA6S 7783   2.674   5.906   6.481
    1ECLIP  CB4 7784   2.993   5.507   6.473
    1ECLIP  HB4 7785   3.056   5.595   6.451
    1ECLIP  OB4 7786   3.068   5.399   6.533
    1ECLIP   PB 7787   3.233   5.394   6.521
    1ECLIP OPB4 7788   3.306   5.321   6.634
    1ECLIP OPB3 7789   3.286   5.537   6.516
    1ECLIP OPB2 7790   3.274   5.337   6.387
    1ECLIP  CB3 7791   2.920   5.470   6.344
    1ECLIP  OB3 7792   3.013   5.432   6.242
    1ECLIP  HB3 7793   2.850   5.387   6.372
    1ECLIP  C71 7794   2.969   5.343   6.153
    1ECLIP  O71 7795   2.857   5.294   6.153
    1ECLIP  C72 7796   3.048   5.352   6.024
    1ECLIP H72R 7797   2.992   5.417   5.954
    1ECLIP H72S 7798   3.049   5.250   5.979
    1ECLIP  CB2 7799   2.840   5.592   6.296
    1ECLIP  HB2 7800   2.912   5.676   6.285
    1ECLIP  NB2 7801   2.772   5.574   6.168
    1ECLIP HNB2 7802   2.689   5.519   6.171
    1ECLIP  CA4 7803   2.580   5.968   6.202
    1ECLIP  HA4 7804   2.565   5.867   6.158
    1ECLIP  OA4 7805   2.476   5.994   6.296
    1ECLIP HOA4 7806   2.466   5.916   6.351
    1ECLIP  CA5 7807   2.711   5.966   6.276
    1ECLIP  HA5 7808   2.730   6.067   6.318
    1ECLIP  OA5 7809   2.816   5.933   6.184
    1ECLIP  CA1 7810   2.835   6.032   6.082
    1ECLIP  HA1 7811   2.916   5.996   6.016
    1ECLIP  OA1 7812   2.875   6.157   6.138
    1ECLIP OPA2 7813   2.992   6.283   6.325
    1ECLIP OPA3 7814   3.018   6.050   6.325
    1ECLIP OPA4 7815   3.134   6.183   6.141
    1ECLIP   PA 7816   3.013   6.168   6.228
    1ECLIP  CA3 7817   2.588   6.072   6.090
    1ECLIP  HA3 7818   2.612   6.169   6.139
    1ECLIP  OA3 7819   2.467   6.094   6.017
    1ECLIP  C31 7820   2.404   5.993   5.952
    1ECLIP  O31 7821   2.369   6.007   5.835
    1ECLIP  C32 7822   2.289   5.949   6.045
    1ECLIP H32R 7823   2.198   5.979   5.990
    1ECLIP H32S 7824   2.291   6.011   6.137
    1ECLIP  CA2 7825   2.707   6.040   5.999
    1ECLIP  HA2 7826   2.690   5.939   5.957
    1ECLIP  NA2 7827   2.722   6.136   5.891
    1ECLIP HNA2 7828   2.721   6.231   5.919
    1ECLIP  C73 7829   3.190   5.404   6.043
    1ECLIP H73R 7830   3.230   5.367   6.141
    1ECLIP  O73 7831   3.180   5.545   6.038
    1ECLIP  C81 7832   3.257   5.620   6.113
    1ECLIP  O81 7833   3.350   5.577   6.183
    1ECLIP  C82 7834   3.252   5.763   6.058
    1ECLIP H82R 7835   3.344   5.816   6.091
    1ECLIP H82S 7836   3.164   5.813   6.102
    1ECLIP  C83 7837   3.241   5.766   5.905
    1ECLIP H83R 7838   3.143   5.722   5.877
    1ECLIP H83S 7839   3.320   5.704   5.858
    1ECLIP  C84 7840   3.245   5.906   5.842
    1ECLIP H84R 7841   3.347   5.949   5.851
    1ECLIP H84S 7842   3.175   5.973   5.898
    1ECLIP  C85 7843   3.200   5.900   5.695
    1ECLIP H85R 7844   3.094   5.869   5.694
    1ECLIP H85S 7845   3.259   5.821   5.644
    1ECLIP  C86 7846   3.212   6.032   5.618
    1ECLIP H86R 7847   3.320   6.056   5.605
    1ECLIP H86S 7848   3.166   6.113   5.679
    1ECLIP  C87 7849   3.144   6.028   5.480
    1ECLIP H87R 7850   3.167   6.122   5.426
    1ECLIP H87S 7851   3.034   6.024   5.497
    1ECLIP  C88 7852   3.184   5.907   5.394
    1ECLIP H88R 7853   3.146   5.815   5.444
    1ECLIP H88S 7854   3.295   5.898   5.391
    1ECLIP  C89 7855   3.129   5.908   5.252
    1ECLIP H89R 7856   3.022   5.941   5.253
    1ECLIP H89S 7857   3.131   5.804   5.214
    1ECLIP C810 7858   3.209   5.997   5.155
    1ECLIPH810R 7859   3.317   5.973   5.164
    1ECLIPH810S 7860   3.196   6.103   5.186
    1ECLIP C811 7861   3.165   5.983   5.009
    1ECLIPH811R 7862   3.211   6.065   4.948
    1ECLIPH811S 7863   3.055   5.998   5.005
    1ECLIP C812 7864   3.198   5.848   4.941
    1ECLIPH812R 7865   3.145   5.843   4.844
    1ECLIPH812S 7866   3.159   5.765   5.004
    1ECLIP C813 7867   3.348   5.828   4.917
    1ECLIPH813R 7868   3.385   5.913   4.854
    1ECLIPH813S 7869   3.402   5.832   5.013
    1ECLIP C814 7870   3.382   5.696   4.846
    1ECLIPH814R 7871   3.325   5.687   4.752
    1ECLIPH814S 7872   3.355   5.610   4.911
    1ECLIPH814T 7873   3.491   5.691   4.825
    1ECLIP  C74 7874   3.285   5.358   5.929
    1ECLIP H74R 7875   3.290   5.247   5.929
    1ECLIP H74S 7876   3.386   5.396   5.955
    1ECLIP  C75 7877   3.252   5.408   5.787
    1ECLIP H75R 7878   3.347   5.422   5.733
    1ECLIP H75S 7879   3.202   5.508   5.792
    1ECLIP  C76 7880   3.165   5.313   5.703
    1ECLIP H76R 7881   3.064   5.304   5.748
    1ECLIP H76S 7882   3.212   5.212   5.704
    1ECLIP  C77 7883   3.150   5.357   5.556
    1ECLIP H77R 7884   3.250   5.367   5.509
    1ECLIP H77S 7885   3.101   5.457   5.554
    1ECLIP  C78 7886   3.064   5.259   5.476
    1ECLIP H78R 7887   3.120   5.163   5.464
    1ECLIP H78S 7888   2.974   5.238   5.537
    1ECLIP  C79 7889   3.015   5.308   5.340
    1ECLIP H79R 7890   2.938   5.388   5.353
    1ECLIP H79S 7891   2.963   5.223   5.292
    1ECLIP C710 7892   3.123   5.359   5.245
    1ECLIPH710R 7893   3.156   5.461   5.275
    1ECLIPH710S 7894   3.211   5.292   5.249
    1ECLIP C711 7895   3.068   5.361   5.101
    1ECLIPH711R 7896   3.017   5.264   5.083
    1ECLIPH711S 7897   2.991   5.441   5.094
    1ECLIP C712 7898   3.176   5.380   4.995
    1ECLIPH712R 7899   3.241   5.290   4.995
    1ECLIPH712S 7900   3.239   5.468   5.023
    1ECLIP C713 7901   3.117   5.401   4.854
    1ECLIPH713R 7902   3.077   5.504   4.847
    1ECLIPH713S 7903   3.199   5.393   4.780
    1ECLIP C714 7904   3.005   5.302   4.818
    1ECLIPH714R 7905   3.038   5.198   4.837
    1ECLIPH714S 7906   2.915   5.321   4.881
    1ECLIPH714T 7907   2.976   5.311   4.712
    1ECLIP  C51 7908   2.818   5.615   6.049
    1ECLIP  O51 7909   2.921   5.677   6.033
    1ECLIP  C52 7910   2.733   5.574   5.931
    1ECLIP H52R 7911   2.738   5.464   5.915
    1ECLIP H52S 7912   2.629   5.602   5.959
    1ECLIP  C53 7913   2.766   5.648   5.799
    1ECLIP H53R 7914   2.782   5.756   5.820
    1ECLIP  O53 7915   2.659   5.624   5.707
    1ECLIP  C61 7916   2.570   5.724   5.703
    1ECLIP  O61 7917   2.552   5.802   5.794
    1ECLIP  C62 7918   2.464   5.692   5.596
    1ECLIP H62R 7919   2.376   5.648   5.648
    1ECLIP H62S 7920   2.507   5.616   5.526
    1ECLIP  C63 7921   2.421   5.816   5.516
    1ECLIP H63R 7922   2.511   5.863   5.470
    1ECLIP H63S 7923   2.376   5.890   5.585
    1ECLIP  C64 7924   2.320   5.787   5.403
    1ECLIP H64R 7925   2.276   5.883   5.370
    1ECLIP H64S 7926   2.238   5.724   5.443
    1ECLIP  C65 7927   2.384   5.718   5.281
    1ECLIP H65R 7928   2.430   5.623   5.315
    1ECLIP H65S 7929   2.465   5.781   5.238
    1ECLIP  C66 7930   2.284   5.684   5.170
    1ECLIP H66R 7931   2.196   5.636   5.216
    1ECLIP H66S 7932   2.332   5.611   5.101
    1ECLIP  C67 7933   2.236   5.802   5.084
    1ECLIP H67R 7934   2.194   5.882   5.148
    1ECLIP H67S 7935   2.154   5.764   5.019
    1ECLIP  C68 7936   2.345   5.859   4.992
    1ECLIP H68R 7937   2.399   5.777   4.941
    1ECLIP H68S 7938   2.418   5.916   5.054
    1ECLIP  C69 7939   2.283   5.952   4.886
    1ECLIP H69R 7940   2.214   6.022   4.938
    1ECLIP H69S 7941   2.223   5.891   4.815
    1ECLIP C610 7942   2.387   6.033   4.809
    1ECLIPH610R 7943   2.463   5.966   4.762
    1ECLIPH610S 7944   2.440   6.098   4.881
    1ECLIP C611 7945   2.321   6.121   4.702
    1ECLIPH611R 7946   2.220   6.151   4.738
    1ECLIPH611S 7947   2.380   6.214   4.691
    1ECLIP C612 7948   2.310   6.053   4.565
    1ECLIPH612R 7949   2.407   6.007   4.536
    1ECLIPH612S 7950   2.232   5.974   4.568
    1ECLIPH612T 7951   2.283   6.127   4.487
    1ECLIP  C54 7952   2.893   5.597   5.728
    1ECLIP H54R 7953   2.883   5.488   5.708
    1ECLIP H54S 7954   2.979   5.611   5.799
    1ECLIP  C55 7955   2.924   5.672   5.597
    1ECLIP H55R 7956   3.031   5.654   5.571
    1ECLIP H55S 7957   2.911   5.781   5.613
    1ECLIP  C56 7958   2.836   5.628   5.479
    1ECLIP H56R 7959   2.733   5.665   5.493
    1ECLIP H56S 7960   2.831   5.517   5.477
    1ECLIP  C57 7961   2.882   5.680   5.344
    1ECLIP H57R 7962   2.983   5.640   5.319
    1ECLIP H57S 7963   2.889   5.791   5.349
    1ECLIP  C58 7964   2.782   5.641   5.234
    1ECLIP H58R 7965   2.772   5.531   5.235
    1ECLIP H58S 7966   2.683   5.685   5.259
    1ECLIP  C59 7967   2.824   5.686   5.094
    1ECLIP H59R 7968   2.926   5.645   5.073
    1ECLIP H59S 7969   2.833   5.796   5.089
    1ECLIP C510 7970   2.726   5.633   4.988
    1ECLIPH510R 7971   2.630   5.690   4.992
    1ECLIPH510S 7972   2.702   5.528   5.017
    1ECLIP C511 7973   2.783   5.630   4.846
    1ECLIPH511R 7974   2.763   5.726   4.793
    1ECLIPH511S 7975   2.893   5.619   4.854
    1ECLIP C512 7976   2.731   5.510   4.766
    1ECLIPH512R 7977   2.803   5.487   4.684
    1ECLIPH512S 7978   2.729   5.420   4.832
    1ECLIP C513 7979   2.592   5.530   4.707
    1ECLIPH513R 7980   2.594   5.618   4.638
    1ECLIPH513S 7981   2.521   5.554   4.788
    1ECLIP C514 7982   2.542   5.407   4.630
    1ECLIPH514R 7983   2.542   5.318   4.696
    1ECLIPH514S 7984   2.438   5.423   4.594
    1ECLIPH514T 7985   2.608   5.386   4.543
    1ECLIP  C33 7986   2.273   5.797   6.075
    1ECLIP H33R 7987   2.173   5.766   6.037
    1ECLIP  O33 7988   2.277   5.782   6.214
    1ECLIP HO33 7989   2.305   5.695   6.245
    1ECLIP  C34 7990   2.379   5.705   6.009
    1ECLIP H34R 7991   2.482   5.743   6.028
    1ECLIP H34S 7992   2.360   5.715   5.900
    1ECLIP  C35 7993   2.379   5.553   6.039
    1ECLIP H35R 7994   2.285   5.520   6.089
    1ECLIP H35S 7995   2.461   5.530   6.110
    1ECLIP  C36 7996   2.400   5.471   5.910
    1ECLIP H36R 7997   2.480   5.521   5.851
    1ECLIP H36S 7998   2.308   5.476   5.849
    1ECLIP  C37 7999   2.440   5.323   5.920
    1ECLIP H37R 8000   2.351   5.264   5.950
    1ECLIP H37S 8001   2.517   5.309   5.999
    1ECLIP  C38 8002   2.497   5.267   5.786
    1ECLIP H38R 8003   2.606   5.289   5.783
    1ECLIP H38S 8004   2.484   5.157   5.787
    1ECLIP  C39 8005   2.433   5.324   5.658
    1ECLIP H39R 8006   2.452   5.433   5.655
    1ECLIP H39S 8007   2.324   5.306   5.665
    1ECLIP C310 8008   2.486   5.265   5.526
    1ECLIPH310R 8009   2.440   5.165   5.509
    1ECLIPH310S 8010   2.596   5.251   5.535
    1ECLIP C311 8011   2.462   5.355   5.403
    1ECLIPH311R 8012   2.357   5.392   5.405
    1ECLIPH311S 8013   2.529   5.443   5.411
    1ECLIP C312 8014   2.489   5.286   5.268
    1ECLIPH312R 8015   2.596   5.256   5.264
    1ECLIPH312S 8016   2.426   5.195   5.260
    1ECLIP C313 8017   2.462   5.376   5.148
    1ECLIPH313R 8018   2.354   5.403   5.146
    1ECLIPH313S 8019   2.520   5.471   5.158
    1ECLIP C314 8020   2.496   5.313   5.012
    1ECLIPH314R 8021   2.438   5.219   4.998
    1ECLIPH314S 8022   2.472   5.382   4.929
    1ECLIPH314T 8023   2.605   5.288   5.007
    1ECLIP  C11 8024   2.741   6.107   5.760
    1ECLIP  O11 8025   2.751   5.993   5.717
    1ECLIP  C12 8026   2.753   6.226   5.667
    1ECLIP H12R 8027   2.854   6.270   5.684
    1ECLIP H12S 8028   2.676   6.301   5.693
    1ECLIP  C13 8029   2.740   6.182   5.520
    1ECLIP H13R 8030   2.808   6.097   5.500
    1ECLIP  O13 8031   2.781   6.291   5.439
    1ECLIP HO13 8032   2.776   6.272   5.345
    1ECLIP  C14 8033   2.596   6.146   5.479
    1ECLIP H14R 8034   2.529   6.227   5.516
    1ECLIP H14S 8035   2.567   6.054   5.535
    1ECLIP  C15 8036   2.571   6.128   5.327
    1ECLIP H15R 8037   2.590   6.225   5.278
    1ECLIP H15S 8038   2.464   6.103   5.311
    1ECLIP  C16 8039   2.656   6.019   5.259
    1ECLIP H16R 8040   2.608   5.921   5.276
    1ECLIP H16S 8041   2.758   6.013   5.304
    1ECLIP  C17 8042   2.673   6.044   5.108
    1ECLIP H17R 8043   2.583   6.096   5.068
    1ECLIP H17S 8044   2.682   5.947   5.056
    1ECLIP  C18 8045   2.800   6.126   5.082
    1ECLIP H18R 8046   2.794   6.220   5.141
    1ECLIP H18S 8047   2.887   6.070   5.120
    1ECLIP  C19 8048   2.825   6.165   4.936
    1ECLIP H19R 8049   2.920   6.223   4.933
    1ECLIP H19S 8050   2.745   6.235   4.903
    1ECLIP C110 8051   2.838   6.049   4.834
    1ECLIPH110R 8052   2.886   5.962   4.884
    1ECLIPH110S 8053   2.737   6.017   4.801
    1ECLIP C111 8054   2.922   6.093   4.714
    1ECLIPH111R 8055   2.874   6.183   4.669
    1ECLIPH111S 8056   3.023   6.125   4.749
    1ECLIP C112 8057   2.941   5.990   4.601
    1ECLIPH112R 8058   3.024   5.921   4.629
    1ECLIPH112S 8059   2.849   5.929   4.589
    1ECLIP C113 8060   2.973   6.062   4.469
    1ECLIPH113R 8061   2.879   6.106   4.431
    1ECLIPH113S 8062   3.041   6.148   4.492
    1ECLIP C114 8063   3.037   5.977   4.359
    1ECLIPH114R 8064   3.121   5.918   4.400
    1ECLIPH114S 8065   2.961   5.909   4.316
    1ECLIPH114T 8066   3.075   6.042   4.278
    2AKDO    C1 8067   2.751   5.484   6.898
    2AKDO   O11 8068   2.798   5.369   6.917
    2AKDO   O12 8069   2.629   5.517   6.905
    2AKDO    C2 8070   2.851   5.602   6.922
    2AKDO    C6 8071   3.068   5.655   7.010
    2AKDO    H6 8072   3.084   5.713   6.917
    2AKDO    O6 8073   2.971   5.553   6.983
    2AKDO    C3 8074   2.794   5.707   7.018
    2AKDO   H31 8075   2.765   5.654   7.111
    2AKDO   H32 8076   2.703   5.750   6.971
    2AKDO    C4 8077   2.891   5.816   7.050
    2AKDO    H4 8078   2.920   5.866   6.954
    2AKDO    O4 8079   2.833   5.911   7.141
    2AKDO    C5 8080   3.017   5.758   7.113
    2AKDO    H5 8081   3.091   5.840   7.118
    2AKDO    O5 8082   2.991   5.710   7.248
    2AKDO    C7 8083   3.197   5.578   7.031
    2AKDO    H7 8084   3.186   5.508   7.117
    2AKDO    O7 8085   3.309   5.665   7.050
    2AKDO   HO7 8086   3.377   5.609   7.012
    2AKDO    C8 8087   3.223   5.496   6.905
    2AKDO   H81 8088   3.144   5.419   6.893
    2AKDO   H82 8089   3.216   5.562   6.815
    2AKDO    O8 8090   3.349   5.429   6.898
    2AKDO   HO8 8091   3.340   5.378   6.818
    3AKDO    C1 8092   2.785   6.112   6.990
    3AKDO   O11 8093   2.707   6.211   6.976
    3AKDO   O12 8094   2.894   6.094   6.927
    3AKDO    C2 8095   2.742   6.012   7.102
    3AKDO    C6 8096   2.549   5.877   7.165
    3AKDO    H6 8097   2.610   5.785   7.176
    3AKDO    O6 8098   2.608   5.966   7.069
    3AKDO    C3 8099   2.732   6.081   7.240
    3AKDO   H31 8100   2.668   6.171   7.230
    3AKDO   H32 8101   2.833   6.116   7.268
    3AKDO    C4 8102   2.677   5.989   7.344
    3AKDO    H4 8103   2.741   5.898   7.355
    3AKDO    O4 8104   2.676   6.055   7.470
    3AKDO   HO4 8105   2.758   6.036   7.516
    3AKDO    C5 8106   2.539   5.943   7.301
    3AKDO    H5 8107   2.506   5.866   7.374
    3AKDO    O5 8108   2.443   6.049   7.300
    3AKDO   HO5 8109   2.467   6.100   7.222
    3AKDO    C7 8110   2.412   5.836   7.108
    3AKDO    H7 8111   2.347   5.926   7.104
    3AKDO    O7 8112   2.351   5.739   7.194
    3AKDO   HO7 8113   2.379   5.654   7.158
    3AKDO    C8 8114   2.424   5.782   6.967
    3AKDO   H81 8115   2.482   5.853   6.903
    3AKDO   H82 8116   2.479   5.685   6.965
    3AKDO    O8 8117   2.295   5.765   6.907
    3AKDO   HO8 8118   2.273   5.671   6.913
    4AHEP    C1 8119   3.101   5.717   7.337
    4AHEP    H1 8120   3.183   5.657   7.293
    4AHEP    C5 8121   3.059   5.940   7.421
    4AHEP    H5 8122   2.966   5.937   7.361
    4AHEP    O5 8123   3.152   5.850   7.358
    4AHEP    C2 8124   3.071   5.659   7.476
    4AHEP    H2 8125   3.021   5.562   7.457
    4AHEP    O2 8126   3.192   5.631   7.549
    4AHEP   HO2 8127   3.172   5.560   7.609
    4AHEP    C3 8128   2.973   5.747   7.552
    4AHEP    H3 8129   2.876   5.745   7.498
    4AHEP    O3 8130   2.957   5.691   7.686
    4AHEP    C4 8131   3.026   5.889   7.563
    4AHEP    H4 8132   3.117   5.890   7.628
    4AHEP    O4 8133   2.921   5.971   7.615
    4AHEP    P4 8134   2.926   6.088   7.730
    4AHEP  OP42 8135   2.794   6.077   7.806
    4AHEP  OP43 8136   2.937   6.218   7.655
    4AHEP  OP44 8137   3.047   6.066   7.818
    4AHEP    C6 8138   3.112   6.085   7.413
    4AHEP    H6 8139   3.024   6.153   7.419
    4AHEP    O6 8140   3.199   6.116   7.524
    4AHEP   HO6 8141   3.139   6.113   7.601
    4AHEP    C7 8142   3.187   6.114   7.283
    4AHEP   H71 8143   3.214   6.221   7.278
    4AHEP   H72 8144   3.120   6.092   7.197
    4AHEP    O7 8145   3.306   6.035   7.269
    4AHEP   HO7 8146   3.273   5.947   7.289
    5AHEP    C1 8147   2.833   5.713   7.749
    5AHEP    H1 8148   2.775   5.788   7.693
    5AHEP    C5 8149   2.810   5.487   7.829
    5AHEP    H5 8150   2.909   5.464   7.786
    5AHEP    O5 8151   2.751   5.595   7.753
    5AHEP    C2 8152   2.851   5.765   7.891
    5AHEP    H2 8153   2.933   5.841   7.886
    5AHEP    O2 8154   2.738   5.839   7.938
    5AHEP   HO2 8155   2.750   5.926   7.899
    5AHEP    C3 8156   2.911   5.657   7.981
    5AHEP    H3 8157   3.015   5.636   7.947
    5AHEP    O3 8158   2.908   5.685   8.122
    5AHEP    C4 8159   2.827   5.532   7.974
    5AHEP    H4 8160   2.728   5.547   8.023
    5AHEP    O4 8161   2.905   5.429   8.035
    5AHEP    P4 8162   2.873   5.359   8.179
    5AHEP  OP42 8163   2.999   5.277   8.207
    5AHEP  OP43 8164   2.747   5.279   8.158
    5AHEP  OP44 8165   2.854   5.469   8.281
    5AHEP    C6 8166   2.723   5.360   7.816
    5AHEP    H6 8167   2.771   5.280   7.877
    5AHEP    O6 8168   2.593   5.384   7.872
    5AHEP   HO6 8169   2.604   5.353   7.962
    5AHEP    C7 8170   2.714   5.310   7.671
    5AHEP   H71 8171   2.725   5.200   7.679
    5AHEP   H72 8172   2.799   5.346   7.611
    5AHEP    O7 8173   2.589   5.328   7.601
    6AHEP    C1 8174   2.581   5.453   7.537
    6AHEP    H1 8175   2.670   5.516   7.561
    6AHEP    C5 8176   2.468   5.367   7.342
    6AHEP    H5 8177   2.476   5.263   7.381
    6AHEP    O5 8178   2.578   5.445   7.394
    6AHEP    C2 8179   2.456   5.523   7.584
    6AHEP    H2 8180   2.457   5.529   7.695
    6AHEP    O2 8181   2.453   5.657   7.531
    6AHEP   HO2 8182   2.489   5.646   7.443
    6AHEP    C3 8183   2.335   5.441   7.540
    6AHEP    H3 8184   2.344   5.339   7.584
    6AHEP    O3 8185   2.211   5.497   7.584
    6AHEP   HO3 8186   2.147   5.451   7.530
    6AHEP    C4 8187   2.337   5.429   7.389
    6AHEP    H4 8188   2.327   5.530   7.344
    6AHEP    O4 8189   2.224   5.351   7.346
    6AHEP   HO4 8190   2.209   5.360   7.252
    6AHEP    C6 8191   2.475   5.362   7.189
    6AHEP    H6 8192   2.383   5.315   7.150
    6AHEP    O6 8193   2.483   5.495   7.134
    6AHEP   HO6 8194   2.544   5.487   7.061
    6AHEP    C7 8195   2.590   5.278   7.137
    6AHEP   H71 8196   2.583   5.269   7.026
    6AHEP   H72 8197   2.575   5.176   7.179
    6AHEP    O7 8198   2.721   5.323   7.172
    6AHEP   HO7 8199   2.758   5.351   7.089
    7AGLC    C1 8200   3.009   5.759   8.182
    7AGLC    H1 8201   3.107   5.735   8.136
    7AGLC    C5 8202   2.848   5.929   8.221
    7AGLC    H5 8203   2.771   5.861   8.179
    7AGLC    O5 8204   2.978   5.898   8.167
    7AGLC    C2 8205   3.014   5.730   8.333
    7AGLC    H2 8206   3.090   5.798   8.377
    7AGLC    O2 8207   3.062   5.599   8.363
    7AGLC   HO2 8208   2.993   5.540   8.332
    7AGLC    C3 8209   2.881   5.758   8.403
    7AGLC    H3 8210   2.803   5.695   8.355
    7AGLC    O3 8211   2.886   5.733   8.546
    7AGLC    C4 8212   2.851   5.904   8.372
    7AGLC    H4 8213   2.934   5.965   8.412
    7AGLC    O4 8214   2.730   5.954   8.429
    7AGLC   HO4 8215   2.730   6.048   8.408
    7AGLC    C6 8216   2.811   6.069   8.179
    7AGLC   H61 8217   2.831   6.080   8.069
    7AGLC   H62 8218   2.702   6.084   8.193
    7AGLC    O6 8219   2.883   6.169   8.252
    7AGLC   HO6 8220   2.965   6.183   8.203
    8AGLC    C1 8221   2.791   5.638   8.594
    8AGLC    H1 8222   2.694   5.651   8.539
    8AGLC    C5 8223   2.950   5.462   8.642
    8AGLC    H5 8224   3.032   5.530   8.612
    8AGLC    O5 8225   2.830   5.502   8.575
    8AGLC    C2 8226   2.768   5.651   8.745
    8AGLC    H2 8227   2.687   5.580   8.771
    8AGLC    O2 8228   2.732   5.782   8.788
    8AGLC    C3 8229   2.892   5.615   8.825
    8AGLC    H3 8230   2.974   5.680   8.787
    8AGLC    O3 8231   2.873   5.649   8.965
    8AGLC    C4 8232   2.929   5.473   8.793
    8AGLC    H4 8233   2.847   5.404   8.821
    8AGLC    O4 8234   3.048   5.435   8.862
    8AGLC   HO4 8235   3.082   5.365   8.806
    8AGLC    C6 8236   2.981   5.322   8.589
    8AGLC   H61 8237   2.896   5.284   8.530
    8AGLC   H62 8238   3.065   5.331   8.516
    8AGLC    O6 8239   3.016   5.225   8.689
    8AGLC   HO6 8240   3.033   5.143   8.643
    9AGAL    C1 8241   2.623   5.843   8.726
    9AGAL    H1 8242   2.631   5.841   8.615
    9AGAL    C5 8243   2.484   5.773   8.907
    9AGAL    H5 8244   2.570   5.717   8.950
    9AGAL    O5 8245   2.499   5.783   8.766
    9AGAL    C2 8246   2.630   5.985   8.778
    9AGAL    H2 8247   2.548   6.044   8.730
    9AGAL    O2 8248   2.756   6.032   8.726
    9AGAL    C3 8249   2.613   5.984   8.929
    9AGAL    H3 8250   2.698   5.929   8.973
    9AGAL    O3 8251   2.613   6.117   8.983
    9AGAL   HO3 8252   2.529   6.153   8.953
    9AGAL    C4 8253   2.483   5.914   8.967
    9AGAL    H4 8254   2.479   5.904   9.077
    9AGAL    O4 8255   2.366   5.984   8.925
    9AGAL   HO4 8256   2.323   5.923   8.865
    9AGAL    C6 8257   2.360   5.689   8.934
    9AGAL   H61 8258   2.382   5.584   8.905
    9AGAL   H62 8259   2.337   5.689   9.043
    9AGAL    O6 8260   2.245   5.733   8.861
    9AGAL   HO6 8261   2.250   5.690   8.776
   10AGAL    C1 8262   2.826   6.145   8.769
   10AGAL    H1 8263   2.755   6.231   8.774
   10AGAL    C5 8264   2.975   6.006   8.891
   10AGAL    H5 8265   2.915   5.919   8.858
   10AGAL    O5 8266   2.891   6.125   8.896
   10AGAL    C2 8267   2.935   6.172   8.665
   10AGAL    H2 8268   2.998   6.257   8.700
   10AGAL    O2 8269   2.875   6.214   8.542
   10AGAL   HO2 8270   2.933   6.198   8.467
   10AGAL    C3 8271   3.027   6.051   8.653
   10AGAL    H3 8272   2.970   5.961   8.620
   10AGAL    O3 8273   3.133   6.079   8.561
   10AGAL   HO3 8274   3.120   6.046   8.471
   10AGAL    C4 8275   3.088   6.021   8.788
   10AGAL    H4 8276   3.138   5.922   8.780
   10AGAL    O4 8277   3.189   6.114   8.825
   10AGAL   HO4 8278   3.239   6.126   8.745
   10AGAL    C6 8279   3.022   5.972   9.032
   10AGAL   H61 8280   2.937   5.928   9.089
   10AGAL   H62 8281   3.102   5.895   9.028
   10AGAL    O6 8282   3.068   6.087   9.105
   10AGAL   HO6 8283   3.164   6.087   9.109
   11BGLC    C1 8284   2.822   5.551   9.052
   11BGLC    H1 8285   2.891   5.464   9.057
   11BGLC    C5 8286   2.639   5.402   9.098
   11BGLC    H5 8287   2.712   5.319   9.098
   11BGLC    O5 8288   2.691   5.507   9.013
   11BGLC    C2 8289   2.809   5.613   9.191
   11BGLC    H2 8290   2.736   5.696   9.183
   11BGLC    O2 8291   2.932   5.670   9.238
   11BGLC   HO2 8292   3.004   5.629   9.189
   11BGLC    C3 8293   2.756   5.511   9.290
   11BGLC    H3 8294   2.829   5.429   9.306
   11BGLC    O3 8295   2.722   5.577   9.412
   11BGLC    C4 8296   2.625   5.459   9.238
   11BGLC    H4 8297   2.552   5.543   9.233
   11BGLC    O4 8298   2.569   5.361   9.326
   11BGLC   HO4 8299   2.636   5.297   9.351
   11BGLC    C6 8300   2.506   5.349   9.047
   11BGLC   H61 8301   2.485   5.250   9.094
   11BGLC   H62 8302   2.425   5.418   9.077
   11BGLC    O6 8303   2.500   5.336   8.905
   11BGLC   HO6 8304   2.549   5.259   8.875
   12BGLCN   C1 8305   2.799   5.550   9.525
   12BGLCN   H1 8306   2.904   5.584   9.507
   12BGLCN   C5 8307   2.875   5.385   9.677
   12BGLCN   H5 8308   2.979   5.418   9.655
   12BGLCN   O5 8309   2.796   5.412   9.561
   12BGLCN   C2 8310   2.735   5.631   9.636
   12BGLCN   H2 8311   2.633   5.589   9.651
   12BGLCN    N 8312   2.722   5.769   9.590
   12BGLCN   HN 8313   2.799   5.803   9.536
   12BGLCN    C 8314   2.609   5.841   9.592
   12BGLCN    O 8315   2.513   5.815   9.664
   12BGLCN   CT 8316   2.606   5.962   9.503
   12BGLCN  HT1 8317   2.534   6.035   9.545
   12BGLCN  HT2 8318   2.573   5.932   9.403
   12BGLCN  HT3 8319   2.707   6.008   9.497
   12BGLCN   C3 8320   2.813   5.613   9.766
   12BGLCN   H3 8321   2.914   5.658   9.756
   12BGLCN   O3 8322   2.737   5.677   9.872
   12BGLCN   C4 8323   2.818   5.464   9.794
   12BGLCN   H4 8324   2.715   5.428   9.815
   12BGLCN   O4 8325   2.899   5.438   9.910
   12BGLCN  HO4 8326   2.991   5.439   9.884
   12BGLCN   C6 8327   2.877   5.235   9.702
   12BGLCN  H61 8328   2.950   5.209   9.781
   12BGLCN  H62 8329   2.776   5.204   9.740
   12BGLCN   O6 8330   2.904   5.156   9.587
   12BGLCN  HO6 8331   2.998   5.154   9.563
   13AGAL    C1 8332   2.808   5.741   9.976
   13AGAL    H1 8333   2.894   5.678  10.006
   13AGAL    C5 8334   2.747   5.959   9.896
   13AGAL    H5 8335   2.682   5.901   9.826
   13AGAL    O5 8336   2.855   5.871   9.932
   13AGAL    C2 8337   2.716   5.764  10.097
   13AGAL    H2 8338   2.779   5.815  10.174
   13AGAL    O2 8339   2.667   5.642  10.155
   13AGAL    C3 8340   2.601   5.856  10.062
   13AGAL    H3 8341   2.545   5.810   9.978
   13AGAL    O3 8342   2.508   5.873  10.168
   13AGAL   HO3 8343   2.430   5.821  10.148
   13AGAL    C4 8344   2.658   5.989  10.016
   13AGAL    H4 8345   2.574   6.054   9.985
   13AGAL    O4 8346   2.733   6.057  10.118
   13AGAL   HO4 8347   2.816   6.010  10.130
   13AGAL    C6 8348   2.793   6.079   9.814
   13AGAL   H61 8349   2.887   6.054   9.760
   13AGAL   H62 8350   2.716   6.101   9.737
   13AGAL    O6 8351   2.812   6.198   9.891
   13AGAL   HO6 8352   2.797   6.176   9.983
   14ARHM    C1 8353   2.711   5.612  10.286
   14ARHM    H1 8354   2.816   5.646  10.296
   14ARHM    C5 8355   2.586   5.413  10.296
   14ARHM    H5 8356   2.543   5.433  10.195
   14ARHM    O5 8357   2.716   5.471  10.307
   14ARHM    C2 8358   2.626   5.676  10.394
   14ARHM    H2 8359   2.620   5.786  10.377
   14ARHM    O2 8360   2.677   5.655  10.526
   14ARHM    C3 8361   2.486   5.619  10.387
   14ARHM    H3 8362   2.443   5.640  10.287
   14ARHM    O3 8363   2.400   5.675  10.486
   14ARHM   HO3 8364   2.322   5.618  10.483
   14ARHM    C4 8365   2.494   5.468  10.405
   14ARHM    H4 8366   2.539   5.445  10.503
   14ARHM    O4 8367   2.364   5.410  10.398
   14ARHM   HO4 8368   2.367   5.315  10.410
   14ARHM    C6 8369   2.611   5.263  10.308
   14ARHM   H61 8370   2.687   5.231  10.233
   14ARHM   H62 8371   2.650   5.238  10.410
   14ARHM   H63 8372   2.518   5.207  10.290
   15ARHM    C1 8373   2.804   5.709  10.551
   15ARHM    H1 8374   2.824   5.794  10.483
   15ARHM    C5 8375   2.893   5.501  10.630
   15ARHM    H5 8376   2.799   5.447  10.608
   15ARHM    O5 8377   2.908   5.611  10.538
   15ARHM    C2 8378   2.802   5.762  10.693
   15ARHM    H2 8379   2.721   5.837  10.701
   15ARHM    O2 8380   2.929   5.827  10.710
   15ARHM    C3 8381   2.776   5.649  10.788
   15ARHM    H3 8382   2.682   5.598  10.757
   15ARHM    O3 8383   2.756   5.701  10.920
   15ARHM    C4 8384   2.890   5.550  10.775
   15ARHM    H4 8385   2.986   5.602  10.796
   15ARHM    O4 8386   2.879   5.443  10.868
   15ARHM   HO4 8387   2.938   5.373  10.840
   15ARHM    C6 8388   3.011   5.406  10.602
   15ARHM   H61 8389   3.004   5.313  10.663
   15ARHM   H62 8390   3.011   5.377  10.495
   15ARHM   H63 8391   3.107   5.456  10.624
   16BMANN   C1 8392   2.956   5.884  10.835
   16BMANN   H1 8393   2.976   5.803  10.909
   16BMANN   C5 8394   2.877   6.025  11.009
   16BMANN   H5 8395   2.895   5.943  11.082
   16BMANN   O5 8396   2.849   5.968  10.880
   16BMANN   C2 8397   3.080   5.968  10.815
   16BMANN   H2 8398   3.161   5.900  10.783
   16BMANN    N 8399   3.056   6.065  10.709
   16BMANN   HN 8400   2.962   6.096  10.700
   16BMANN    C 8401   3.146   6.106  10.620
   16BMANN    O 8402   3.263   6.069  10.618
   16BMANN   CT 8403   3.093   6.200  10.514
   16BMANN  HT1 8404   3.172   6.272  10.485
   16BMANN  HT2 8405   3.005   6.256  10.554
   16BMANN  HT3 8406   3.062   6.142  10.424
   16BMANN   C3 8407   3.118   6.028  10.950
   16BMANN   H3 8408   3.134   5.945  11.022
   16BMANN   O3 8409   3.240   6.100  10.941
   16BMANN  HO3 8410   3.288   6.091  11.023
   16BMANN   C4 8411   3.002   6.113  11.000
   16BMANN   H4 8412   2.983   6.195  10.929
   16BMANN   O4 8413   3.028   6.171  11.128
   16BMANN  HO4 8414   2.985   6.256  11.133
   16BMANN   C6 8415   2.754   6.101  11.051
   16BMANN  H61 8416   2.773   6.145  11.151
   16BMANN  H62 8417   2.732   6.182  10.979
   16BMANN   O6 8418   2.639   6.017  11.064
   16BMANN  HO6 8419   2.628   5.968  10.981
   17BGLCN   C1 8420   2.658   5.634  10.995
   17BGLCN   H1 8421   2.662   5.525  10.975
   17BGLCN   C5 8422   2.424   5.620  11.050
   17BGLCN   H5 8423   2.425   5.511  11.029
   17BGLCN   O5 8424   2.526   5.685  10.970
   17BGLCN   C2 8425   2.692   5.663  11.140
   17BGLCN   H2 8426   2.671   5.771  11.155
   17BGLCN    N 8427   2.833   5.647  11.168
   17BGLCN   HN 8428   2.884   5.591  11.102
   17BGLCN    C 8429   2.897   5.708  11.269
   17BGLCN    O 8430   2.840   5.782  11.347
   17BGLCN   CT 8431   3.044   5.680  11.280
   17BGLCN  HT1 8432   3.101   5.759  11.227
   17BGLCN  HT2 8433   3.069   5.581  11.238
   17BGLCN  HT3 8434   3.073   5.683  11.388
   17BGLCN   C3 8435   2.594   5.585  11.227
   17BGLCN   H3 8436   2.595   5.480  11.189
   17BGLCN   O3 8437   2.632   5.581  11.366
   17BGLCN   C4 8438   2.456   5.641  11.197
   17BGLCN   H4 8439   2.457   5.750  11.217
   17BGLCN   O4 8440   2.355   5.584  11.280
   17BGLCN  HO4 8441   2.351   5.636  11.360
   17BGLCN   C6 8442   2.290   5.676  11.005
   17BGLCN  H61 8443   2.209   5.635  11.071
   17BGLCN  H62 8444   2.290   5.787  11.016
   17BGLCN   O6 8445   2.262   5.641  10.870
   17BGLCN  HO6 8446   2.332   5.674  10.814
   18AGAL    C1 8447   2.601   5.461  11.436
   18AGAL    H1 8448   2.491   5.451  11.446
   18AGAL    C5 8449   2.794   5.344  11.352
   18AGAL    H5 8450   2.819   5.439  11.300
   18AGAL    O5 8451   2.650   5.342  11.370
   18AGAL    C2 8452   2.664   5.465  11.574
   18AGAL    H2 8453   2.637   5.368  11.621
   18AGAL    O2 8454   2.609   5.571  11.652
   18AGAL    C3 8455   2.815   5.473  11.561
   18AGAL    H3 8456   2.839   5.563  11.499
   18AGAL    O3 8457   2.883   5.490  11.686
   18AGAL   HO3 8458   2.927   5.575  11.682
   18AGAL    C4 8459   2.865   5.350  11.486
   18AGAL    H4 8460   2.974   5.362  11.468
   18AGAL    O4 8461   2.847   5.230  11.562
   18AGAL   HO4 8462   2.868   5.251  11.654
   18AGAL    C6 8463   2.847   5.235  11.259
   18AGAL   H61 8464   2.899   5.283  11.173
   18AGAL   H62 8465   2.921   5.173  11.312
   18AGAL    O6 8466   2.746   5.150  11.206
   18AGAL   HO6 8467   2.717   5.093  11.277
   19ARHM    C1 8468   2.598   5.539  11.788
   19ARHM    H1 8469   2.678   5.468  11.818
   19ARHM    C5 8470   2.360   5.562  11.786
   19ARHM    H5 8471   2.364   5.587  11.679
   19ARHM    O5 8472   2.472   5.479  11.821
   19ARHM    C2 8473   2.612   5.668  11.866
   19ARHM    H2 8474   2.703   5.720  11.828
   19ARHM    O2 8475   2.629   5.647  12.009
   19ARHM    C3 8476   2.497   5.762  11.836
   19ARHM    H3 8477   2.499   5.789  11.729
   19ARHM    O3 8478   2.512   5.882  11.912
   19ARHM   HO3 8479   2.503   5.858  12.005
   19ARHM    C4 8480   2.367   5.691  11.868
   19ARHM    H4 8481   2.366   5.663  11.975
   19ARHM    O4 8482   2.251   5.772  11.845
   19ARHM   HO4 8483   2.247   5.797  11.752
   19ARHM    C6 8484   2.235   5.477  11.812
   19ARHM   H61 8485   2.240   5.383  11.752
   19ARHM   H62 8486   2.227   5.450  11.919
   19ARHM   H63 8487   2.144   5.533  11.781
   20ARHM    C1 8488   2.756   5.593  12.040
   20ARHM    H1 8489   2.830   5.620  11.961
   20ARHM    C5 8490   2.666   5.403  12.152
   20ARHM    H5 8491   2.562   5.437  12.130
   20ARHM    O5 8492   2.754   5.450  12.050
   20ARHM    C2 8493   2.800   5.651  12.172
   20ARHM    H2 8494   2.792   5.762  12.166
   20ARHM    O2 8495   2.936   5.616  12.200
   20ARHM    C3 8496   2.710   5.606  12.283
   20ARHM    H3 8497   2.607   5.644  12.266
   20ARHM    O3 8498   2.762   5.660  12.405
   20ARHM    C4 8499   2.709   5.455  12.288
   20ARHM    H4 8500   2.813   5.420  12.307
   20ARHM    O4 8501   2.626   5.405  12.392
   20ARHM   HO4 8502   2.534   5.418  12.370
   20ARHM    C6 8503   2.669   5.250  12.142
   20ARHM   H61 8504   2.773   5.213  12.158
   20ARHM   H62 8505   2.604   5.205  12.220
   20ARHM   H63 8506   2.634   5.217  12.043
   21BMANN   C1 8507   3.031   5.683  12.123
   21BMANN   H1 8508   2.984   5.760  12.057
   21BMANN   C5 8509   3.207   5.658  11.963
   21BMANN   H5 8510   3.158   5.731  11.895
   21BMANN   O5 8511   3.107   5.591  12.043
   21BMANN   C2 8512   3.124   5.750  12.221
   21BMANN   H2 8513   3.062   5.823  12.279
   21BMANN    N 8514   3.178   5.655  12.318
   21BMANN   HN 8515   3.170   5.559  12.291
   21BMANN    C 8516   3.226   5.687  12.439
   21BMANN    O 8517   3.232   5.804  12.477
   21BMANN   CT 8518   3.274   5.574  12.526
   21BMANN  HT1 8519   3.384   5.561  12.512
   21BMANN  HT2 8520   3.222   5.480  12.499
   21BMANN  HT3 8521   3.253   5.599  12.633
   21BMANN   C3 8522   3.228   5.827  12.144
   21BMANN   H3 8523   3.175   5.898  12.076
   21BMANN   O3 8524   3.311   5.904  12.229
   21BMANN  HO3 8525   3.293   5.877  12.319
   21BMANN   C4 8526   3.305   5.731  12.054
   21BMANN   H4 8527   3.357   5.655  12.118
   21BMANN   O4 8528   3.405   5.798  11.978
   21BMANN  HO4 8529   3.400   5.892  11.996
   21BMANN   C6 8530   3.274   5.552  11.877
   21BMANN  H61 8531   3.355   5.598  11.816
   21BMANN  H62 8532   3.320   5.474  11.940
   21BMANN   O6 8533   3.182   5.491  11.786
   21BMANN  HO6 8534   3.104   5.463  11.833
   22BGLCN   C1 8535   2.668   5.693  12.505
   22BGLCN   H1 8536   2.576   5.631  12.495
   22BGLCN   C5 8537   2.548   5.872  12.602
   22BGLCN   H5 8538   2.456   5.810  12.599
   22BGLCN   O5 8539   2.637   5.832  12.498
   22BGLCN   C2 8540   2.741   5.664  12.634
   22BGLCN   H2 8541   2.831   5.728  12.637
   22BGLCN    N 8542   2.784   5.525  12.635
   22BGLCN   HN 8543   2.733   5.463  12.575
   22BGLCN    C 8544   2.896   5.480  12.693
   22BGLCN    O 8545   2.972   5.552  12.758
   22BGLCN   CT 8546   2.925   5.333  12.677
   22BGLCN  HT1 8547   2.975   5.317  12.579
   22BGLCN  HT2 8548   2.831   5.274  12.682
   22BGLCN  HT3 8549   2.994   5.301  12.759
   22BGLCN   C3 8550   2.652   5.703  12.752
   22BGLCN   H3 8551   2.560   5.642  12.746
   22BGLCN   O3 8552   2.725   5.670  12.870
   22BGLCN   C4 8553   2.615   5.850  12.738
   22BGLCN   H4 8554   2.709   5.910  12.741
   22BGLCN   O4 8555   2.529   5.896  12.842
   22BGLCN  HO4 8556   2.541   5.991  12.852
   22BGLCN   C6 8557   2.510   6.016  12.574
   22BGLCN  H61 8558   2.446   6.056  12.655
   22BGLCN  H62 8559   2.601   6.079  12.568
   22BGLCN   O6 8560   2.435   6.026  12.453
   22BGLCN  HO6 8561   2.490   5.997  12.380
   23AGAL    C1 8562   2.657   5.665  12.995
   23AGAL    H1 8563   2.628   5.767  13.026
   23AGAL    C5 8564   2.571   5.445  12.957
   23AGAL    H5 8565   2.628   5.445  12.861
   23AGAL    O5 8566   2.539   5.582  12.988
   23AGAL    C2 8567   2.753   5.611  13.100
   23AGAL    H2 8568   2.701   5.615  13.199
   23AGAL    O2 8569   2.874   5.688  13.107
   23AGAL    C3 8570   2.788   5.466  13.071
   23AGAL    H3 8571   2.840   5.463  12.972
   23AGAL    O3 8572   2.878   5.411  13.166
   23AGAL   HO3 8573   2.827   5.384  13.242
   23AGAL    C4 8574   2.661   5.384  13.064
   23AGAL    H4 8575   2.686   5.281  13.033
   23AGAL    O4 8576   2.595   5.377  13.189
   23AGAL   HO4 8577   2.502   5.364  13.170
   23AGAL    C6 8578   2.443   5.366  12.927
   23AGAL   H61 8579   2.385   5.418  12.849
   23AGAL   H62 8580   2.472   5.267  12.887
   23AGAL    O6 8581   2.360   5.346  13.043
   23AGAL   HO6 8582   2.299   5.420  13.048
   24ARHM    C1 8583   2.876   5.797  13.196
   24ARHM    H1 8584   2.772   5.835  13.210
   24ARHM    C5 8585   3.091   5.873  13.128
   24ARHM    H5 8586   3.100   5.790  13.054
   24ARHM    O5 8587   2.952   5.907  13.144
   24ARHM    C2 8588   2.929   5.750  13.332
   24ARHM    H2 8589   2.875   5.657  13.359
   24ARHM    O2 8590   2.909   5.847  13.436
   24ARHM    C3 8591   3.074   5.711  13.316
   24ARHM    H3 8592   3.081   5.627  13.243
   24ARHM    O3 8593   3.127   5.664  13.440
   24ARHM   HO3 8594   3.141   5.739  13.498
   24ARHM    C4 8595   3.153   5.828  13.260
   24ARHM    H4 8596   3.146   5.913  13.332
   24ARHM    O4 8597   3.290   5.795  13.241
   24ARHM   HO4 8598   3.347   5.866  13.269
   24ARHM    C6 8599   3.159   5.998  13.069
   24ARHM   H61 8600   3.269   5.982  13.061
   24ARHM   H62 8601   3.119   6.021  12.968
   24ARHM   H63 8602   3.142   6.085  13.137
   25ARHM    C1 8603   2.779   5.845  13.491
   25ARHM    H1 8604   2.710   5.794  13.420
   25ARHM    C5 8605   2.788   6.050  13.611
   25ARHM    H5 8606   2.896   6.061  13.586
   25ARHM    O5 8607   2.722   5.975  13.509
   25ARHM    C2 8608   2.778   5.764  13.620
   25ARHM    H2 8609   2.831   5.668  13.604
   25ARHM    O2 8610   2.644   5.739  13.663
   25ARHM    C3 8611   2.848   5.841  13.728
   25ARHM    H3 8612   2.953   5.859  13.697
   25ARHM    O3 8613   2.848   5.760  13.846
   25ARHM    C4 8614   2.776   5.974  13.745
   25ARHM    H4 8615   2.668   5.954  13.763
   25ARHM    O4 8616   2.823   6.051  13.856
   25ARHM   HO4 8617   2.761   6.122  13.871
   25ARHM    C6 8618   2.726   6.190  13.613
   25ARHM   H61 8619   2.735   6.237  13.512
   25ARHM   H62 8620   2.618   6.185  13.641
   25ARHM   H63 8621   2.778   6.255  13.686
   26BMANN   C1 8622   2.578   5.631  13.604
   26BMANN   H1 8623   2.649   5.556  13.564
   26BMANN   C5 8624   2.408   5.571  13.446
   26BMANN   H5 8625   2.479   5.497  13.404
   26BMANN   O5 8626   2.486   5.678  13.503
   26BMANN   C2 8627   2.496   5.572  13.717
   26BMANN   H2 8628   2.570   5.535  13.791
   26BMANN    N 8629   2.415   5.673  13.783
   26BMANN   HN 8630   2.397   5.755  13.728
   26BMANN    C 8631   2.371   5.665  13.908
   26BMANN    O 8632   2.397   5.570  13.981
   26BMANN   CT 8633   2.288   5.781  13.957
   26BMANN  HT1 8634   2.235   5.829  13.873
   26BMANN  HT2 8635   2.353   5.855  14.008
   26BMANN  HT3 8636   2.212   5.743  14.030
   26BMANN   C3 8637   2.418   5.454  13.663
   26BMANN   H3 8638   2.490   5.382  13.618
   26BMANN   O3 8639   2.348   5.384  13.766
   26BMANN  HO3 8640   2.354   5.434  13.847
   26BMANN   C4 8641   2.325   5.503  13.554
   26BMANN   H4 8642   2.254   5.576  13.599
   26BMANN   O4 8643   2.249   5.395  13.500
   26BMANN  HO4 8644   2.238   5.333  13.572
   26BMANN   C6 8645   2.326   5.626  13.331
   26BMANN  H61 8646   2.386   5.702  13.276
   26BMANN  H62 8647   2.304   5.544  13.259
   26BMANN   O6 8648   2.202   5.684  13.371
   26BMANN  HO6 8649   2.144   5.613  13.399
   27BGLCN   C1 8650   2.961   5.774  13.927
   27BGLCN   H1 8651   3.001   5.877  13.922
   27BGLCN   C5 8652   3.178   5.690  13.979
   27BGLCN   H5 8653   3.216   5.795  13.974
   27BGLCN   O5 8654   3.063   5.679  13.894
   27BGLCN   C2 8655   2.911   5.746  14.068
   27BGLCN   H2 8656   2.873   5.641  14.069
   27BGLCN    N 8657   2.801   5.836  14.097
   27BGLCN   HN 8658   2.799   5.919  14.043
   27BGLCN    C 8659   2.700   5.809  14.182
   27BGLCN    O 8660   2.688   5.704  14.242
   27BGLCN   CT 8661   2.598   5.918  14.196
   27BGLCN  HT1 8662   2.607   5.992  14.114
   27BGLCN  HT2 8663   2.614   5.969  14.294
   27BGLCN  HT3 8664   2.496   5.873  14.196
   27BGLCN   C3 8665   3.027   5.758  14.165
   27BGLCN   H3 8666   3.067   5.861  14.152
   27BGLCN   O3 8667   2.973   5.743  14.298
   27BGLCN   C4 8668   3.137   5.662  14.123
   27BGLCN   H4 8669   3.099   5.558  14.130
   27BGLCN   O4 8670   3.251   5.674  14.208
   27BGLCN  HO4 8671   3.266   5.767  14.227
   27BGLCN   C6 8672   3.287   5.598  13.925
   27BGLCN  H61 8673   3.361   5.576  14.005
   27BGLCN  H62 8674   3.243   5.501  13.894
   27BGLCN   O6 8675   3.359   5.658  13.815
   27BGLCN  HO6 8676   3.345   5.605  13.736
   28AGAL    C1 8677   3.056   5.776  14.408
   28AGAL    H1 8678   3.129   5.694  14.424
   28AGAL    C5 8679   3.041   6.013  14.374
   28AGAL    H5 8680   2.966   5.993  14.294
   28AGAL    O5 8681   3.128   5.898  14.384
   28AGAL    C2 8682   2.979   5.793  14.539
   28AGAL    H2 8683   3.059   5.821  14.611
   28AGAL    O2 8684   2.915   5.673  14.588
   28AGAL    C3 8685   2.881   5.909  14.529
   28AGAL    H3 8686   2.812   5.888  14.444
   28AGAL    O3 8687   2.802   5.923  14.647
   28AGAL   HO3 8688   2.709   5.912  14.626
   28AGAL    C4 8689   2.960   6.036  14.501
   28AGAL    H4 8690   2.887   6.117  14.482
   28AGAL    O4 8691   3.038   6.075  14.614
   28AGAL   HO4 8692   2.982   6.054  14.690
   28AGAL    C6 8693   3.121   6.133  14.325
   28AGAL   H61 8694   3.143   6.119  14.217
   28AGAL   H62 8695   3.060   6.225  14.334
   28AGAL    O6 8696   3.246   6.150  14.394
   28AGAL   HO6 8697   3.295   6.068  14.385
   29ARHM    C1 8698   2.941   5.652  14.726
   29ARHM    H1 8699   2.963   5.748  14.775
   29ARHM    C5 8700   3.027   5.432  14.693
   29ARHM    H5 8701   3.008   5.436  14.584
   29ARHM    O5 8702   3.052   5.563  14.744
   29ARHM    C2 8703   2.821   5.594  14.798
   29ARHM    H2 8704   2.734   5.661  14.779
   29ARHM    O2 8705   2.849   5.585  14.939
   29ARHM    C3 8706   2.788   5.457  14.744
   29ARHM    H3 8707   2.765   5.465  14.636
   29ARHM    O3 8708   2.672   5.403  14.809
   29ARHM   HO3 8709   2.663   5.314  14.774
   29ARHM    C4 8710   2.908   5.367  14.763
   29ARHM    H4 8711   2.931   5.358  14.871
   29ARHM    O4 8712   2.882   5.236  14.710
   29ARHM   HO4 8713   2.963   5.184  14.709
   29ARHM    C6 8714   3.158   5.357  14.719
   29ARHM   H61 8715   3.239   5.403  14.658
   29ARHM   H62 8716   3.184   5.361  14.827
   29ARHM   H63 8717   3.148   5.250  14.689
   30ARHM    C1 8718   2.795   5.690  15.015
   30ARHM    H1 8719   2.688   5.704  14.989
   30ARHM    C5 8720   3.003   5.809  15.037
   30ARHM    H5 8721   3.056   5.732  14.978
   30ARHM    O5 8722   2.864   5.814  14.997
   30ARHM    C2 8723   2.804   5.649  15.161
   30ARHM    H2 8724   2.758   5.549  15.173
   30ARHM    O2 8725   2.736   5.745  15.242
   30ARHM    C3 8726   2.948   5.639  15.206
   30ARHM    H3 8727   2.998   5.566  15.139
   30ARHM    O3 8728   2.959   5.584  15.339
   30ARHM    C4 8729   3.015   5.773  15.185
   30ARHM    H4 8730   2.964   5.852  15.244
   30ARHM    O4 8731   3.152   5.768  15.226
   30ARHM   HO4 8732   3.155   5.715  15.306
   30ARHM    C6 8733   3.061   5.946  15.002
   30ARHM   H61 8734   3.170   5.949  15.026
   30ARHM   H62 8735   3.049   5.966  14.894
   30ARHM   H63 8736   3.009   6.026  15.060
   31BMANN   C1 8737   2.599   5.723  15.267
   31BMANN   H1 8738   2.577   5.614  15.277
   31BMANN   C5 8739   2.375   5.776  15.201
   31BMANN   H5 8740   2.349   5.669  15.211
   31BMANN   O5 8741   2.516   5.786  15.169
   31BMANN   C2 8742   2.579   5.796  15.398
   31BMANN   H2 8743   2.642   5.747  15.475
   31BMANN    N 8744   2.624   5.935  15.385
   31BMANN   HN 8745   2.636   5.966  15.292
   31BMANN    C 8746   2.649   6.018  15.486
   31BMANN    O 8747   2.634   5.985  15.603
   31BMANN   CT 8748   2.697   6.155  15.448
   31BMANN  HT1 8749   2.633   6.198  15.368
   31BMANN  HT2 8750   2.802   6.150  15.411
   31BMANN  HT3 8751   2.694   6.222  15.537
   31BMANN   C3 8752   2.435   5.780  15.438
   31BMANN   H3 8753   2.412   5.671  15.439
   31BMANN   O3 8754   2.410   5.825  15.571
   31BMANN  HO3 8755   2.476   5.891  15.594
   31BMANN   C4 8756   2.348   5.844  15.334
   31BMANN   H4 8757   2.370   5.953  15.325
   31BMANN   O4 8758   2.211   5.832  15.372
   31BMANN  HO4 8759   2.212   5.836  15.468
   31BMANN   C6 8760   2.294   5.835  15.086
   31BMANN  H61 8761   2.190   5.854  15.120
   31BMANN  H62 8762   2.338   5.933  15.057
   31BMANN   O6 8763   2.289   5.749  14.972
   31BMANN  HO6 8764   2.250   5.665  14.998
   32BGLCN   C1 8765   2.944   5.671  15.449
   32BGLCN   H1 8766   2.868   5.749  15.427
   32BGLCN   C5 8767   3.050   5.829  15.592
   32BGLCN   H5 8768   2.975   5.905  15.564
   32BGLCN   O5 8769   3.067   5.736  15.483
   32BGLCN   C2 8770   2.898   5.588  15.567
   32BGLCN   H2 8771   2.983   5.523  15.597
   32BGLCN    N 8772   2.789   5.500  15.528
   32BGLCN   HN 8773   2.746   5.521  15.440
   32BGLCN    C 8774   2.760   5.382  15.585
   32BGLCN    O 8775   2.812   5.340  15.687
   32BGLCN   CT 8776   2.656   5.301  15.514
   32BGLCN  HT1 8777   2.584   5.368  15.461
   32BGLCN  HT2 8778   2.600   5.240  15.588
   32BGLCN  HT3 8779   2.705   5.234  15.440
   32BGLCN   C3 8780   2.870   5.686  15.681
   32BGLCN   H3 8781   2.799   5.762  15.642
   32BGLCN   O3 8782   2.811   5.628  15.799
   32BGLCN   C4 8783   3.001   5.754  15.715
   32BGLCN   H4 8784   3.076   5.677  15.742
   32BGLCN   O4 8785   2.987   5.842  15.825
   32BGLCN  HO4 8786   2.959   5.789  15.901
   32BGLCN   C6 8787   3.183   5.900  15.610
   32BGLCN  H61 8788   3.176   5.972  15.695
   32BGLCN  H62 8789   3.262   5.826  15.635
   32BGLCN   O6 8790   3.220   5.972  15.492
   32BGLCN  HO6 8791   3.223   5.910  15.419
   33AGAL    C1 8792   2.708   5.708  15.855
   33AGAL    H1 8793   2.729   5.816  15.841
   33AGAL    C5 8794   2.540   5.541  15.819
   33AGAL    H5 8795   2.618   5.473  15.779
   33AGAL    O5 8796   2.581   5.677  15.796
   33AGAL    C2 8797   2.699   5.682  16.005
   33AGAL    H2 8798   2.616   5.746  16.043
   33AGAL    O2 8799   2.820   5.724  16.070
   33AGAL    C3 8800   2.663   5.536  16.031
   33AGAL    H3 8801   2.740   5.473  15.981
   33AGAL    O3 8802   2.664   5.500  16.168
   33AGAL   HO3 8803   2.573   5.497  16.199
   33AGAL    C4 8804   2.528   5.508  15.967
   33AGAL    H4 8805   2.504   5.400  15.977
   33AGAL    O4 8806   2.423   5.582  16.027
   33AGAL   HO4 8807   2.366   5.610  15.955
   33AGAL    C6 8808   2.413   5.513  15.739
   33AGAL   H61 8809   2.435   5.521  15.631
   33AGAL   H62 8810   2.379   5.409  15.759
   33AGAL    O6 8811   2.307   5.604  15.771
   33AGAL   HO6 8812   2.326   5.687  15.727
   34ARHM    C1 8813   2.798   5.783  16.196
   34ARHM    H1 8814   2.726   5.723  16.255
   34ARHM    C5 8815   2.833   6.004  16.112
   34ARHM    H5 8816   2.845   5.967  16.008
   34ARHM    O5 8817   2.746   5.917  16.185
   34ARHM    C2 8818   2.931   5.788  16.270
   34ARHM    H2 8819   2.972   5.684  16.272
   34ARHM    O2 8820   2.923   5.835  16.406
   34ARHM    C3 8821   3.028   5.875  16.192
   34ARHM    H3 8822   3.041   5.832  16.090
   34ARHM    O3 8823   3.158   5.876  16.253
   34ARHM   HO3 8824   3.224   5.891  16.186
   34ARHM    C4 8825   2.969   6.014  16.179
   34ARHM    H4 8826   2.957   6.059  16.280
   34ARHM    O4 8827   3.051   6.101  16.100
   34ARHM   HO4 8828   3.142   6.103  16.132
   34ARHM    C6 8829   2.757   6.138  16.105
   34ARHM   H61 8830   2.739   6.178  16.207
   34ARHM   H62 8831   2.815   6.213  16.047
   34ARHM   H63 8832   2.658   6.124  16.055
   35ARHM    C1 8833   2.835   5.768  16.493
   35ARHM    H1 8834   2.839   5.658  16.474
   35ARHM    C5 8835   2.689   5.957  16.494
   35ARHM    H5 8836   2.752   6.009  16.418
   35ARHM    O5 8837   2.700   5.815  16.479
   35ARHM    C2 8838   2.882   5.799  16.634
   35ARHM    H2 8839   2.988   5.769  16.642
   35ARHM    O2 8840   2.808   5.734  16.739
   35ARHM    C3 8841   2.876   5.948  16.658
   35ARHM    H3 8842   2.945   5.998  16.586
   35ARHM    O3 8843   2.920   5.979  16.790
   35ARHM   HO3 8844   2.876   5.917  16.848
   35ARHM    C4 8845   2.734   5.997  16.634
   35ARHM    H4 8846   2.665   5.950  16.707
   35ARHM    O4 8847   2.725   6.139  16.648
   35ARHM   HO4 8848   2.807   6.176  16.614
   35ARHM    C6 8849   2.542   5.990  16.464
   35ARHM   H61 8850   2.516   5.958  16.361
   35ARHM   H62 8851   2.475   5.935  16.535
   35ARHM   H63 8852   2.523   6.099  16.474
   36BMANN   C1 8853   2.826   5.594  16.745
   36BMANN   H1 8854   2.927   5.566  16.708
   36BMANN   C5 8855   2.739   5.383  16.674
   36BMANN   H5 8856   2.840   5.359  16.634
   36BMANN   O5 8857   2.724   5.526  16.670
   36BMANN   C2 8858   2.810   5.554  16.890
   36BMANN   H2 8859   2.889   5.607  16.947
   36BMANN    N 8860   2.681   5.596  16.944
   36BMANN   HN 8861   2.609   5.610  16.876
   36BMANN    C 8862   2.654   5.613  17.074
   36BMANN    O 8863   2.741   5.602  17.161
   36BMANN   CT 8864   2.512   5.645  17.111
   36BMANN  HT1 8865   2.443   5.571  17.064
   36BMANN  HT2 8866   2.486   5.747  17.076
   36BMANN  HT3 8867   2.500   5.640  17.221
   36BMANN   C3 8868   2.834   5.405  16.900
   36BMANN   H3 8869   2.934   5.382  16.857
   36BMANN   O3 8870   2.839   5.363  17.036
   36BMANN  HO3 8871   2.804   5.432  17.092
   36BMANN   C4 8872   2.730   5.332  16.818
   36BMANN   H4 8873   2.629   5.352  16.859
   36BMANN   O4 8874   2.751   5.191  16.820
   36BMANN  HO4 8875   2.740   5.160  16.910
   36BMANN   C6 8876   2.638   5.323  16.578
   36BMANN  H61 8877   2.615   5.396  16.497
   36BMANN  H62 8878   2.682   5.235  16.527
   36BMANN   O6 8879   2.515   5.283  16.641
   36BMANN  HO6 8880   2.532   5.203  16.691
    1ECLIP HB6S 8881   2.282   2.776   6.698
    1ECLIP  OB6 8882   2.397   2.652   6.818
    1ECLIP  CB6 8883   2.389   2.763   6.726
    1ECLIP HB6R 8884   2.424   2.858   6.773
    1ECLIP  CB5 8885   2.465   2.752   6.595
    1ECLIP  OB5 8886   2.436   2.623   6.544
    1ECLIP  HB5 8887   2.574   2.761   6.616
    1ECLIP  CB1 8888   2.504   2.596   6.422
    1ECLIP  HB1 8889   2.614   2.589   6.440
    1ECLIP  OA6 8890   2.458   2.473   6.372
    1ECLIP  CA6 8891   2.318   2.451   6.401
    1ECLIP HA6R 8892   2.263   2.545   6.424
    1ECLIP HA6S 8893   2.310   2.386   6.490
    1ECLIP  CB4 8894   2.423   2.856   6.490
    1ECLIP  HB4 8895   2.318   2.836   6.462
    1ECLIP  OB4 8896   2.437   2.987   6.546
    1ECLIP   PB 8897   2.304   3.082   6.577
    1ECLIP OPB4 8898   2.348   3.189   6.677
    1ECLIP OPB3 8899   2.197   2.992   6.641
    1ECLIP OPB2 8900   2.257   3.139   6.445
    1ECLIP  CB3 8901   2.508   2.834   6.365
    1ECLIP  OB3 8902   2.474   2.926   6.260
    1ECLIP  HB3 8903   2.616   2.837   6.393
    1ECLIP  C71 8904   2.566   3.012   6.219
    1ECLIP  O71 8905   2.683   3.010   6.254
    1ECLIP  C72 8906   2.533   3.058   6.077
    1ECLIP H72R 8907   2.530   2.969   6.011
    1ECLIP H72S 8908   2.617   3.123   6.046
    1ECLIP  CB2 8909   2.476   2.695   6.312
    1ECLIP  HB2 8910   2.368   2.693   6.287
    1ECLIP  NB2 8911   2.552   2.658   6.193
    1ECLIP HNB2 8912   2.634   2.603   6.207
    1ECLIP  CA4 8913   2.339   2.310   6.194
    1ECLIP  HA4 8914   2.414   2.383   6.156
    1ECLIP  OA4 8915   2.404   2.207   6.270
    1ECLIP HOA4 8916   2.343   2.133   6.276
    1ECLIP  CA5 8917   2.247   2.387   6.285
    1ECLIP  HA5 8918   2.167   2.321   6.325
    1ECLIP  OA5 8919   2.185   2.492   6.208
    1ECLIP  CA1 8920   2.103   2.445   6.101
    1ECLIP  HA1 8921   2.063   2.532   6.045
    1ECLIP  OA1 8922   1.995   2.366   6.153
    1ECLIP OPA2 8923   1.770   2.316   6.256
    1ECLIP OPA3 8924   1.899   2.510   6.348
    1ECLIP OPA4 8925   1.800   2.528   6.118
    1ECLIP   PA 8926   1.860   2.434   6.221
    1ECLIP  CA3 8927   2.264   2.254   6.076
    1ECLIP  HA3 8928   2.184   2.187   6.113
    1ECLIP  OA3 8929   2.348   2.174   5.990
    1ECLIP  C31 8930   2.467   2.221   5.946
    1ECLIP  O31 8931   2.489   2.237   5.827
    1ECLIP  C32 8932   2.578   2.147   6.023
    1ECLIP H32R 8933   2.617   2.070   5.953
    1ECLIP H32S 8934   2.535   2.092   6.110
    1ECLIP  CA2 8935   2.194   2.369   6.003
    1ECLIP  HA2 8936   2.273   2.440   5.971
    1ECLIP  NA2 8937   2.123   2.321   5.887
    1ECLIP HNA2 8938   2.065   2.242   5.905
    1ECLIP  C73 8939   2.400   3.135   6.068
    1ECLIP H73R 8940   2.390   3.203   6.155
    1ECLIP  O73 8941   2.299   3.035   6.070
    1ECLIP  C81 8942   2.175   3.073   6.092
    1ECLIP  O81 8943   2.134   3.188   6.087
    1ECLIP  C82 8944   2.088   2.953   6.052
    1ECLIP H82R 8945   1.983   2.980   6.072
    1ECLIP H82S 8946   2.117   2.866   6.113
    1ECLIP  C83 8947   2.108   2.920   5.903
    1ECLIP H83R 8948   2.207   2.873   5.889
    1ECLIP H83S 8949   2.107   3.014   5.844
    1ECLIP  C84 8950   2.000   2.828   5.845
    1ECLIP H84R 8951   1.901   2.877   5.854
    1ECLIP H84S 8952   1.997   2.733   5.903
    1ECLIP  C85 8953   2.030   2.796   5.698
    1ECLIP H85R 8954   2.121   2.733   5.695
    1ECLIP H85S 8955   2.052   2.891   5.645
    1ECLIP  C86 8956   1.916   2.723   5.627
    1ECLIP H86R 8957   1.829   2.791   5.617
    1ECLIP H86S 8958   1.884   2.636   5.689
    1ECLIP  C87 8959   1.956   2.671   5.487
    1ECLIP H87R 8960   1.867   2.631   5.436
    1ECLIP H87S 8961   2.027   2.586   5.503
    1ECLIP  C88 8962   2.027   2.776   5.401
    1ECLIP H88R 8963   2.122   2.804   5.453
    1ECLIP H88S 8964   1.965   2.867   5.393
    1ECLIP  C89 8965   2.067   2.727   5.261
    1ECLIP H89R 8966   2.115   2.628   5.268
    1ECLIP H89S 8967   2.143   2.799   5.223
    1ECLIP C810 8968   1.950   2.723   5.161
    1ECLIPH810R 8969   1.887   2.813   5.175
    1ECLIPH810S 8970   1.887   2.635   5.186
    1ECLIP C811 8971   1.996   2.713   5.016
    1ECLIPH811R 8972   1.909   2.687   4.950
    1ECLIPH811S 8973   2.070   2.631   5.010
    1ECLIP C812 8974   2.062   2.841   4.960
    1ECLIPH812R 8975   2.109   2.818   4.862
    1ECLIPH812S 8976   2.144   2.872   5.028
    1ECLIP C813 8977   1.967   2.960   4.940
    1ECLIPH813R 8978   1.900   2.939   4.854
    1ECLIPH813S 8979   1.902   2.970   5.030
    1ECLIP C814 8980   2.040   3.093   4.919
    1ECLIPH814R 8981   2.114   3.085   4.837
    1ECLIPH814S 8982   2.095   3.120   5.012
    1ECLIPH814T 8983   1.968   3.174   4.896
    1ECLIP  C74 8984   2.393   3.219   5.938
    1ECLIP H74R 8985   2.484   3.282   5.931
    1ECLIP H74S 8986   2.308   3.290   5.948
    1ECLIP  C75 8987   2.374   3.143   5.804
    1ECLIP H75R 8988   2.275   3.172   5.762
    1ECLIP H75S 8989   2.371   3.034   5.822
    1ECLIP  C76 8990   2.482   3.175   5.698
    1ECLIP H76R 8991   2.571   3.113   5.723
    1ECLIP H76S 8992   2.511   3.282   5.705
    1ECLIP  C77 8993   2.442   3.146   5.551
    1ECLIP H77R 8994   2.360   3.215   5.520
    1ECLIP H77S 8995   2.402   3.043   5.545
    1ECLIP  C78 8996   2.561   3.159   5.455
    1ECLIP H78R 8997   2.588   3.265   5.440
    1ECLIP H78S 8998   2.647   3.110   5.506
    1ECLIP  C79 8999   2.545   3.086   5.320
    1ECLIP H79R 9000   2.503   2.985   5.337
    1ECLIP H79S 9001   2.647   3.073   5.278
    1ECLIP C710 9002   2.460   3.161   5.217
    1ECLIPH710R 9003   2.352   3.148   5.240
    1ECLIPH710S 9004   2.483   3.270   5.224
    1ECLIP C711 9005   2.491   3.114   5.075
    1ECLIPH711R 9006   2.601   3.118   5.059
    1ECLIPH711S 9007   2.460   3.007   5.063
    1ECLIP C712 9008   2.422   3.199   4.967
    1ECLIPH712R 9009   2.449   3.306   4.984
    1ECLIPH712S 9010   2.312   3.190   4.981
    1ECLIP C713 9011   2.459   3.160   4.823
    1ECLIPH713R 9012   2.431   3.054   4.808
    1ECLIPH713S 9013   2.398   3.221   4.754
    1ECLIP C714 9014   2.608   3.179   4.790
    1ECLIPH714R 9015   2.640   3.283   4.814
    1ECLIPH714S 9016   2.670   3.109   4.849
    1ECLIPH714T 9017   2.626   3.161   4.682
    1ECLIP  C51 9018   2.516   2.683   6.066
    1ECLIP  O51 9019   2.411   2.738   6.036
    1ECLIP  C52 9020   2.614   2.639   5.959
    1ECLIP H52R 9021   2.699   2.710   5.954
    1ECLIP H52S 9022   2.652   2.539   5.988
    1ECLIP  C53 9023   2.546   2.627   5.821
    1ECLIP H53R 9024   2.446   2.581   5.835
    1ECLIP  O53 9025   2.634   2.546   5.742
    1ECLIP  C61 9026   2.572   2.459   5.663
    1ECLIP  O61 9027   2.455   2.465   5.631
    1ECLIP  C62 9028   2.675   2.391   5.575
    1ECLIP H62R 9029   2.742   2.330   5.637
    1ECLIP H62S 9030   2.733   2.470   5.523
    1ECLIP  C63 9031   2.602   2.301   5.473
    1ECLIP H63R 9032   2.518   2.356   5.426
    1ECLIP H63S 9033   2.558   2.216   5.530
    1ECLIP  C64 9034   2.692   2.250   5.363
    1ECLIP H64R 9035   2.647   2.157   5.322
    1ECLIP H64S 9036   2.792   2.227   5.407
    1ECLIP  C65 9037   2.711   2.347   5.247
    1ECLIP H65R 9038   2.760   2.439   5.285
    1ECLIP H65S 9039   2.613   2.378   5.205
    1ECLIP  C66 9040   2.797   2.280   5.139
    1ECLIP H66R 9041   2.867   2.209   5.188
    1ECLIP H66S 9042   2.861   2.354   5.087
    1ECLIP  C67 9043   2.716   2.207   5.033
    1ECLIP H67R 9044   2.660   2.121   5.076
    1ECLIP H67S 9045   2.794   2.166   4.965
    1ECLIP  C68 9046   2.623   2.294   4.947
    1ECLIP H68R 9047   2.675   2.391   4.929
    1ECLIP H68S 9048   2.529   2.316   5.002
    1ECLIP  C69 9049   2.595   2.229   4.811
    1ECLIP H69R 9050   2.670   2.149   4.796
    1ECLIP H69S 9051   2.611   2.303   4.729
    1ECLIP C610 9052   2.455   2.166   4.794
    1ECLIPH610R 9053   2.392   2.234   4.733
    1ECLIPH610S 9054   2.408   2.157   4.894
    1ECLIP C611 9055   2.458   2.025   4.733
    1ECLIPH611R 9056   2.500   1.956   4.808
    1ECLIPH611S 9057   2.353   1.991   4.714
    1ECLIP C612 9058   2.539   2.011   4.603
    1ECLIPH612R 9059   2.476   2.033   4.516
    1ECLIPH612S 9060   2.625   2.082   4.601
    1ECLIPH612T 9061   2.580   1.909   4.592
    1ECLIP  C54 9062   2.530   2.766   5.754
    1ECLIP H54R 9063   2.629   2.807   5.728
    1ECLIP H54S 9064   2.484   2.834   5.829
    1ECLIP  C55 9065   2.437   2.766   5.632
    1ECLIP H55R 9066   2.379   2.861   5.630
    1ECLIP H55S 9067   2.361   2.686   5.645
    1ECLIP  C56 9068   2.511   2.748   5.499
    1ECLIP H56R 9069   2.580   2.661   5.506
    1ECLIP H56S 9070   2.575   2.838   5.480
    1ECLIP  C57 9071   2.415   2.724   5.384
    1ECLIP H57R 9072   2.351   2.814   5.372
    1ECLIP H57S 9073   2.349   2.638   5.408
    1ECLIP  C58 9074   2.490   2.694   5.253
    1ECLIP H58R 9075   2.572   2.767   5.242
    1ECLIP H58S 9076   2.535   2.592   5.260
    1ECLIP  C59 9077   2.398   2.703   5.131
    1ECLIP H59R 9078   2.350   2.803   5.131
    1ECLIP H59S 9079   2.318   2.627   5.138
    1ECLIP C510 9080   2.477   2.686   5.002
    1ECLIPH510R 9081   2.515   2.582   4.998
    1ECLIPH510S 9082   2.564   2.755   5.004
    1ECLIP C511 9083   2.392   2.717   4.878
    1ECLIPH511R 9084   2.312   2.641   4.870
    1ECLIPH511S 9085   2.344   2.816   4.891
    1ECLIP C512 9086   2.476   2.720   4.750
    1ECLIPH512R 9087   2.410   2.735   4.663
    1ECLIPH512S 9088   2.546   2.807   4.755
    1ECLIP C513 9089   2.559   2.593   4.731
    1ECLIPH513R 9090   2.492   2.504   4.733
    1ECLIPH513S 9091   2.631   2.581   4.814
    1ECLIP C514 9092   2.637   2.596   4.601
    1ECLIPH514R 9093   2.711   2.679   4.605
    1ECLIPH514S 9094   2.691   2.500   4.585
    1ECLIPH514T 9095   2.569   2.615   4.516
    1ECLIP  C33 9096   2.698   2.235   6.066
    1ECLIP H33R 9097   2.766   2.174   6.130
    1ECLIP  O33 9098   2.653   2.345   6.143
    1ECLIP HO33 9099   2.597   2.320   6.217
    1ECLIP  C34 9100   2.778   2.283   5.943
    1ECLIP H34R 9101   2.707   2.337   5.877
    1ECLIP H34S 9102   2.813   2.193   5.889
    1ECLIP  C35 9103   2.900   2.375   5.966
    1ECLIP H35R 9104   2.975   2.324   6.030
    1ECLIP H35S 9105   2.866   2.467   6.018
    1ECLIP  C36 9106   2.960   2.411   5.829
    1ECLIP H36R 9107   2.873   2.435   5.764
    1ECLIP H36S 9108   3.010   2.322   5.785
    1ECLIP  C37 9109   3.051   2.534   5.823
    1ECLIP H37R 9110   3.157   2.504   5.833
    1ECLIP H37S 9111   3.026   2.601   5.908
    1ECLIP  C38 9112   3.028   2.614   5.693
    1ECLIP H38R 9113   2.923   2.648   5.693
    1ECLIP H38S 9114   3.092   2.704   5.693
    1ECLIP  C39 9115   3.050   2.535   5.562
    1ECLIP H39R 9116   2.992   2.441   5.563
    1ECLIP H39S 9117   3.158   2.508   5.554
    1ECLIP C310 9118   3.005   2.618   5.440
    1ECLIPH310R 9119   3.060   2.715   5.443
    1ECLIPH310S 9120   2.897   2.640   5.452
    1ECLIP C311 9121   3.027   2.555   5.302
    1ECLIPH311R 9122   3.134   2.528   5.288
    1ECLIPH311S 9123   2.968   2.461   5.295
    1ECLIP C312 9124   2.985   2.654   5.191
    1ECLIPH312R 9125   2.891   2.704   5.224
    1ECLIPH312S 9126   3.063   2.732   5.182
    1ECLIP C313 9127   2.958   2.592   5.054
    1ECLIPH313R 9128   3.034   2.514   5.033
    1ECLIPH313S 9129   2.857   2.546   5.057
    1ECLIP C314 9130   2.956   2.693   4.938
    1ECLIPH314R 9131   3.050   2.751   4.936
    1ECLIPH314S 9132   2.942   2.641   4.841
    1ECLIPH314T 9133   2.871   2.763   4.951
    1ECLIP  C11 9134   2.132   2.371   5.762
    1ECLIP  O11 9135   2.190   2.475   5.736
    1ECLIP  C12 9136   2.061   2.292   5.655
    1ECLIP H12R 9137   1.955   2.324   5.656
    1ECLIP H12S 9138   2.069   2.184   5.682
    1ECLIP  C13 9139   2.121   2.311   5.514
    1ECLIP H13R 9140   2.149   2.417   5.498
    1ECLIP  O13 9141   2.021   2.277   5.419
    1ECLIP HO13 9142   2.050   2.295   5.329
    1ECLIP  C14 9143   2.243   2.222   5.484
    1ECLIP H14R 9144   2.226   2.122   5.531
    1ECLIP H14S 9145   2.331   2.266   5.536
    1ECLIP  C15 9146   2.274   2.198   5.334
    1ECLIP H15R 9147   2.192   2.136   5.292
    1ECLIP H15S 9148   2.366   2.137   5.326
    1ECLIP  C16 9149   2.291   2.325   5.249
    1ECLIP H16R 9150   2.395   2.361   5.261
    1ECLIP H16S 9151   2.225   2.408   5.285
    1ECLIP  C17 9152   2.264   2.302   5.101
    1ECLIP H17R 9153   2.310   2.205   5.071
    1ECLIP H17S 9154   2.315   2.383   5.044
    1ECLIP  C18 9155   2.115   2.301   5.063
    1ECLIP H18R 9156   2.065   2.219   5.118
    1ECLIP H18S 9157   2.068   2.397   5.096
    1ECLIP  C19 9158   2.089   2.282   4.912
    1ECLIP H19R 9159   1.981   2.264   4.896
    1ECLIP H19S 9160   2.144   2.192   4.878
    1ECLIP C110 9161   2.132   2.403   4.828
    1ECLIPH110R 9162   2.068   2.490   4.853
    1ECLIPH110S 9163   2.237   2.429   4.855
    1ECLIP C111 9164   2.128   2.381   4.676
    1ECLIPH111R 9165   2.184   2.288   4.653
    1ECLIPH111S 9166   2.023   2.367   4.642
    1ECLIP C112 9167   2.193   2.499   4.603
    1ECLIPH112R 9168   2.135   2.591   4.623
    1ECLIPH112S 9169   2.295   2.515   4.646
    1ECLIP C113 9170   2.208   2.478   4.452
    1ECLIPH113R 9171   2.265   2.384   4.434
    1ECLIPH113S 9172   2.107   2.464   4.410
    1ECLIP C114 9173   2.279   2.594   4.382
    1ECLIPH114R 9174   2.225   2.690   4.401
    1ECLIPH114S 9175   2.382   2.605   4.421
    1ECLIPH114T 9176   2.284   2.578   4.273
    2AKDO    C1 9177   2.632   2.646   6.870
    2AKDO   O11 9178   2.714   2.740   6.881
    2AKDO   O12 9179   2.664   2.525   6.851
    2AKDO    C2 9180   2.488   2.670   6.926
    2AKDO    C6 9181   2.337   2.822   7.035
    2AKDO    H6 9182   2.269   2.802   6.950
    2AKDO    O6 9183   2.473   2.798   6.991
    2AKDO    C3 9184   2.447   2.565   7.032
    2AKDO   H31 9185   2.521   2.566   7.115
    2AKDO   H32 9186   2.448   2.466   6.981
    2AKDO    C4 9187   2.309   2.583   7.087
    2AKDO    H4 9188   2.235   2.568   7.004
    2AKDO    O4 9189   2.287   2.490   7.194
    2AKDO    C5 9190   2.294   2.722   7.144
    2AKDO    H5 9191   2.183   2.735   7.148
    2AKDO    O5 9192   2.343   2.737   7.280
    2AKDO    C7 9193   2.321   2.971   7.063
    2AKDO    H7 9194   2.391   3.004   7.143
    2AKDO    O7 9195   2.185   3.002   7.095
    2AKDO   HO7 9196   2.172   3.076   7.036
    2AKDO    C8 9197   2.354   3.047   6.936
    2AKDO   H81 9198   2.460   3.031   6.907
    2AKDO   H82 9199   2.291   3.006   6.855
    2AKDO    O8 9200   2.330   3.188   6.943
    2AKDO   HO8 9201   2.337   3.209   6.849
    3AKDO    C1 9202   2.122   2.349   7.079
    3AKDO   O11 9203   2.123   2.263   6.988
    3AKDO   O12 9204   2.020   2.401   7.134
    3AKDO    C2 9205   2.251   2.356   7.168
    3AKDO    C6 9206   2.476   2.268   7.203
    3AKDO    H6 9207   2.508   2.372   7.226
    3AKDO    O6 9208   2.360   2.274   7.116
    3AKDO    C3 9209   2.214   2.299   7.306
    3AKDO   H31 9210   2.170   2.198   7.292
    3AKDO   H32 9211   2.135   2.364   7.349
    3AKDO    C4 9212   2.331   2.293   7.398
    3AKDO    H4 9213   2.374   2.394   7.411
    3AKDO    O4 9214   2.286   2.249   7.526
    3AKDO   HO4 9215   2.223   2.316   7.556
    3AKDO    C5 9216   2.436   2.204   7.335
    3AKDO    H5 9217   2.524   2.197   7.403
    3AKDO    O5 9218   2.388   2.072   7.308
    3AKDO   HO5 9219   2.346   2.079   7.222
    3AKDO    C7 9220   2.593   2.199   7.135
    3AKDO    H7 9221   2.570   2.092   7.116
    3AKDO    O7 9222   2.710   2.209   7.219
    3AKDO   HO7 9223   2.771   2.145   7.181
    3AKDO    C8 9224   2.620   2.270   7.004
    3AKDO   H81 9225   2.532   2.258   6.936
    3AKDO   H82 9226   2.631   2.377   7.028
    3AKDO    O8 9227   2.737   2.227   6.934
    3AKDO   HO8 9228   2.734   2.131   6.936
    4AHEP    C1 9229   2.268   2.830   7.356
    4AHEP    H1 9230   2.285   2.928   7.307
    4AHEP    C5 9231   2.085   2.695   7.429
    4AHEP    H5 9232   2.152   2.612   7.396
    4AHEP    O5 9233   2.126   2.809   7.352
    4AHEP    C2 9234   2.313   2.849   7.499
    4AHEP    H2 9235   2.424   2.850   7.499
    4AHEP    O2 9236   2.270   2.978   7.547
    4AHEP   HO2 9237   2.279   3.039   7.474
    4AHEP    C3 9238   2.268   2.732   7.587
    4AHEP    H3 9239   2.315   2.641   7.545
    4AHEP    O3 9240   2.311   2.752   7.724
    4AHEP    C4 9241   2.116   2.719   7.578
    4AHEP    H4 9242   2.071   2.817   7.605
    4AHEP    O4 9243   2.065   2.614   7.664
    4AHEP    P4 9244   1.960   2.645   7.789
    4AHEP  OP42 9245   1.937   2.514   7.862
    4AHEP  OP43 9246   1.827   2.685   7.726
    4AHEP  OP44 9247   2.012   2.756   7.878
    4AHEP    C6 9248   1.947   2.645   7.384
    4AHEP    H6 9249   1.944   2.536   7.401
    4AHEP    O6 9250   1.839   2.708   7.454
    4AHEP   HO6 9251   1.842   2.792   7.408
    4AHEP    C7 9252   1.919   2.671   7.235
    4AHEP   H71 9253   1.830   2.612   7.203
    4AHEP   H72 9254   2.004   2.634   7.174
    4AHEP    O7 9255   1.896   2.810   7.207
    4AHEP   HO7 9256   1.982   2.848   7.188
    5AHEP    C1 9257   2.388   2.646   7.776
    5AHEP    H1 9258   2.359   2.550   7.729
    5AHEP    C5 9259   2.574   2.790   7.821
    5AHEP    H5 9260   2.521   2.875   7.773
    5AHEP    O5 9261   2.529   2.668   7.760
    5AHEP    C2 9262   2.362   2.634   7.925
    5AHEP    H2 9263   2.253   2.616   7.938
    5AHEP    O2 9264   2.431   2.520   7.978
    5AHEP   HO2 9265   2.524   2.533   7.958
    5AHEP    C3 9266   2.398   2.763   7.997
    5AHEP    H3 9267   2.334   2.844   7.957
    5AHEP    O3 9268   2.381   2.750   8.141
    5AHEP    C4 9269   2.544   2.790   7.972
    5AHEP    H4 9270   2.605   2.711   8.021
    5AHEP    O4 9271   2.587   2.917   8.024
    5AHEP    P4 9272   2.507   3.048   8.080
    5AHEP  OP42 9273   2.396   3.083   7.981
    5AHEP  OP43 9274   2.602   3.165   8.065
    5AHEP  OP44 9275   2.453   3.028   8.219
    5AHEP    C6 9276   2.724   2.801   7.785
    5AHEP    H6 9277   2.760   2.901   7.818
    5AHEP    O6 9278   2.802   2.702   7.856
    5AHEP   HO6 9279   2.889   2.743   7.861
    5AHEP    C7 9280   2.749   2.786   7.634
    5AHEP   H71 9281   2.803   2.877   7.601
    5AHEP   H72 9282   2.653   2.786   7.577
    5AHEP    O7 9283   2.832   2.675   7.594
    6AHEP    C1 9284   2.762   2.570   7.530
    6AHEP    H1 9285   2.657   2.567   7.564
    6AHEP    C5 9286   2.900   2.585   7.332
    6AHEP    H5 9287   2.953   2.670   7.381
    6AHEP    O5 9288   2.766   2.580   7.386
    6AHEP    C2 9289   2.832   2.442   7.568
    6AHEP    H2 9290   2.834   2.439   7.679
    6AHEP    O2 9291   2.758   2.326   7.526
    6AHEP   HO2 9292   2.754   2.323   7.431
    6AHEP    C3 9293   2.975   2.443   7.519
    6AHEP    H3 9294   3.026   2.532   7.562
    6AHEP    O3 9295   3.049   2.329   7.568
    6AHEP   HO3 9296   2.993   2.252   7.575
    6AHEP    C4 9297   2.977   2.458   7.368
    6AHEP    H4 9298   2.927   2.371   7.320
    6AHEP    O4 9299   3.110   2.468   7.318
    6AHEP   HO4 9300   3.135   2.385   7.275
    6AHEP    C6 9301   2.899   2.617   7.182
    6AHEP    H6 9302   3.004   2.624   7.146
    6AHEP    O6 9303   2.830   2.518   7.104
    6AHEP   HO6 9304   2.741   2.550   7.122
    6AHEP    C7 9305   2.832   2.751   7.157
    6AHEP   H71 9306   2.860   2.790   7.056
    6AHEP   H72 9307   2.871   2.823   7.233
    6AHEP    O7 9308   2.690   2.750   7.174
    6AHEP   HO7 9309   2.652   2.774   7.089
    7AGLC    C1 9310   2.250   2.764   8.188
    7AGLC    H1 9311   2.201   2.848   8.134
    7AGLC    C5 9312   2.228   2.530   8.231
    7AGLC    H5 9313   2.334   2.515   8.200
    7AGLC    O5 9314   2.173   2.646   8.167
    7AGLC    C2 9315   2.247   2.789   8.339
    7AGLC    H2 9316   2.140   2.787   8.368
    7AGLC    O2 9317   2.290   2.919   8.380
    7AGLC   HO2 9318   2.365   2.945   8.325
    7AGLC    C3 9319   2.314   2.674   8.413
    7AGLC    H3 9320   2.413   2.660   8.365
    7AGLC    O3 9321   2.334   2.694   8.556
    7AGLC    C4 9322   2.229   2.551   8.381
    7AGLC    H4 9323   2.124   2.571   8.412
    7AGLC    O4 9324   2.271   2.435   8.451
    7AGLC   HO4 9325   2.194   2.383   8.476
    7AGLC    C6 9326   2.149   2.410   8.181
    7AGLC   H61 9327   2.175   2.394   8.075
    7AGLC   H62 9328   2.179   2.318   8.237
    7AGLC    O6 9329   2.008   2.429   8.191
    7AGLC   HO6 9330   1.983   2.478   8.111
    8AGLC    C1 9331   2.469   2.671   8.595
    8AGLC    H1 9332   2.509   2.582   8.542
    8AGLC    C5 9333   2.516   2.906   8.628
    8AGLC    H5 9334   2.409   2.925   8.604
    8AGLC    O5 9335   2.554   2.783   8.563
    8AGLC    C2 9336   2.482   2.651   8.745
    8AGLC    H2 9337   2.589   2.628   8.767
    8AGLC    O2 9338   2.401   2.545   8.796
    8AGLC    C3 9339   2.442   2.774   8.823
    8AGLC    H3 9340   2.338   2.798   8.792
    8AGLC    O3 9341   2.437   2.745   8.965
    8AGLC    C4 9342   2.529   2.889   8.780
    8AGLC    H4 9343   2.635   2.867   8.804
    8AGLC    O4 9344   2.490   3.010   8.845
    8AGLC   HO4 9345   2.545   3.075   8.801
    8AGLC    C6 9346   2.596   3.020   8.566
    8AGLC   H61 9347   2.651   2.983   8.477
    8AGLC   H62 9348   2.526   3.098   8.528
    8AGLC    O6 9349   2.687   3.081   8.658
    8AGLC   HO6 9350   2.774   3.081   8.620
    9AGAL    C1 9351   2.424   2.415   8.752
    9AGAL    H1 9352   2.421   2.408   8.641
    9AGAL    C5 9353   2.565   2.374   8.938
    9AGAL    H5 9354   2.548   2.480   8.969
    9AGAL    O5 9355   2.551   2.365   8.795
    9AGAL    C2 9356   2.312   2.332   8.811
    9AGAL    H2 9357   2.323   2.227   8.776
    9AGAL    O2 9358   2.193   2.388   8.750
    9AGAL    C3 9359   2.323   2.336   8.964
    9AGAL    H3 9360   2.309   2.440   8.997
    9AGAL    O3 9361   2.224   2.255   9.028
    9AGAL   HO3 9362   2.248   2.165   9.007
    9AGAL    C4 9363   2.460   2.288   9.006
    9AGAL    H4 9364   2.470   2.303   9.116
    9AGAL    O4 9365   2.479   2.148   8.983
    9AGAL   HO4 9366   2.558   2.138   8.929
    9AGAL    C6 9367   2.710   2.344   8.969
    9AGAL   H61 9368   2.773   2.420   8.917
    9AGAL   H62 9369   2.729   2.351   9.077
    9AGAL    O6 9370   2.750   2.216   8.921
    9AGAL   HO6 9371   2.757   2.223   8.825
   10AGAL    C1 9372   2.069   2.390   8.815
   10AGAL    H1 9373   2.043   2.288   8.849
   10AGAL    C5 9374   2.092   2.617   8.887
   10AGAL    H5 9375   2.185   2.617   8.827
   10AGAL    O5 9376   2.067   2.481   8.929
   10AGAL    C2 9377   1.961   2.435   8.715
   10AGAL    H2 9378   1.862   2.426   8.766
   10AGAL    O2 9379   1.962   2.350   8.601
   10AGAL   HO2 9380   1.875   2.310   8.587
   10AGAL    C3 9381   1.982   2.580   8.674
   10AGAL    H3 9382   2.082   2.588   8.624
   10AGAL    O3 9383   1.883   2.623   8.579
   10AGAL   HO3 9384   1.889   2.564   8.503
   10AGAL    C4 9385   1.983   2.669   8.795
   10AGAL    H4 9386   2.009   2.772   8.763
   10AGAL    O4 9387   1.856   2.674   8.861
   10AGAL   HO4 9388   1.789   2.678   8.792
   10AGAL    C6 9389   2.124   2.702   9.009
   10AGAL   H61 9390   2.198   2.648   9.071
   10AGAL   H62 9391   2.170   2.797   8.976
   10AGAL    O6 9392   2.009   2.732   9.089
   10AGAL   HO6 9393   1.934   2.708   9.033
   11BGLC    C1 9394   2.549   2.768   9.049
   11BGLC    H1 9395   2.567   2.877   9.058
   11BGLC    C5 9396   2.778   2.719   9.091
   11BGLC    H5 9397   2.789   2.828   9.110
   11BGLC    O5 9398   2.667   2.701   9.002
   11BGLC    C2 9399   2.510   2.708   9.183
   11BGLC    H2 9400   2.489   2.600   9.167
   11BGLC    O2 9401   2.391   2.768   9.235
   11BGLC   HO2 9402   2.325   2.763   9.165
   11BGLC    C3 9403   2.623   2.719   9.285
   11BGLC    H3 9404   2.643   2.826   9.307
   11BGLC    O3 9405   2.595   2.645   9.405
   11BGLC    C4 9406   2.746   2.654   9.226
   11BGLC    H4 9407   2.726   2.546   9.208
   11BGLC    O4 9408   2.855   2.666   9.316
   11BGLC   HO4 9409   2.817   2.681   9.403
   11BGLC    C6 9410   2.908   2.674   9.026
   11BGLC   H61 9411   2.991   2.681   9.101
   11BGLC   H62 9412   2.902   2.568   8.993
   11BGLC    O6 9413   2.943   2.758   8.917
   11BGLC   HO6 9414   2.929   2.715   8.832
   12BGLCN   C1 9415   2.551   2.714   9.518
   12BGLCN   H1 9416   2.453   2.762   9.498
   12BGLCN   C5 9417   2.609   2.879   9.681
   12BGLCN   H5 9418   2.511   2.930   9.664
   12BGLCN   O5 9419   2.648   2.810   9.561
   12BGLCN   C2 9420   2.538   2.607   9.627
   12BGLCN   H2 9421   2.641   2.568   9.642
   12BGLCN    N 9422   2.457   2.496   9.578
   12BGLCN   HN 9423   2.387   2.517   9.510
   12BGLCN    C 9424   2.483   2.367   9.604
   12BGLCN    O 9425   2.567   2.331   9.686
   12BGLCN   CT 9426   2.398   2.266   9.531
   12BGLCN  HT1 9427   2.382   2.177   9.595
   12BGLCN  HT2 9428   2.450   2.234   9.438
   12BGLCN  HT3 9429   2.299   2.309   9.504
   12BGLCN   C3 9430   2.492   2.670   9.759
   12BGLCN   H3 9431   2.391   2.714   9.745
   12BGLCN   O3 9432   2.488   2.570   9.863
   12BGLCN   C4 9433   2.594   2.777   9.794
   12BGLCN   H4 9434   2.693   2.729   9.809
   12BGLCN   O4 9435   2.559   2.846   9.913
   12BGLCN  HO4 9436   2.612   2.812   9.986
   12BGLCN   C6 9437   2.715   2.984   9.709
   12BGLCN  H61 9438   2.705   3.024   9.812
   12BGLCN  H62 9439   2.815   2.936   9.701
   12BGLCN   O6 9440   2.710   3.093   9.618
   12BGLCN  HO6 9441   2.642   3.156   9.643
   13AGAL    C1 9442   2.393   2.585   9.967
   13AGAL    H1 9443   2.387   2.691  10.002
   13AGAL    C5 9444   2.258   2.405   9.885
   13AGAL    H5 9445   2.333   2.393   9.804
   13AGAL    O5 9446   2.261   2.543   9.927
   13AGAL    C2 9447   2.431   2.497  10.087
   13AGAL    H2 9448   2.347   2.503  10.157
   13AGAL    O2 9449   2.550   2.541  10.155
   13AGAL    C3 9450   2.439   2.352  10.042
   13AGAL    H3 9451   2.509   2.343   9.957
   13AGAL    O3 9452   2.490   2.267  10.145
   13AGAL   HO3 9453   2.584   2.256  10.130
   13AGAL    C4 9454   2.301   2.308   9.997
   13AGAL    H4 9455   2.309   2.206   9.953
   13AGAL    O4 9456   2.209   2.301  10.108
   13AGAL   HO4 9457   2.257   2.252  10.174
   13AGAL    C6 9458   2.124   2.372   9.823
   13AGAL   H61 9459   2.101   2.444   9.742
   13AGAL   H62 9460   2.127   2.270   9.778
   13AGAL    O6 9461   2.020   2.377   9.921
   13AGAL   HO6 9462   2.064   2.352  10.003
   14ARHM    C1 9463   2.530   2.591  10.286
   14ARHM    H1 9464   2.431   2.640  10.292
   14ARHM    C5 9465   2.757   2.645  10.325
   14ARHM    H5 9466   2.791   2.608  10.227
   14ARHM    O5 9467   2.623   2.695  10.316
   14ARHM    C2 9468   2.537   2.482  10.392
   14ARHM    H2 9469   2.464   2.402  10.367
   14ARHM    O2 9470   2.513   2.527  10.528
   14ARHM    C3 9471   2.676   2.423  10.398
   14ARHM    H3 9472   2.703   2.379  10.299
   14ARHM    O3 9473   2.681   2.318  10.495
   14ARHM   HO3 9474   2.617   2.343  10.562
   14ARHM    C4 9475   2.772   2.536  10.431
   14ARHM    H4 9476   2.744   2.580  10.528
   14ARHM    O4 9477   2.907   2.494  10.441
   14ARHM   HO4 9478   2.927   2.493  10.535
   14ARHM    C6 9479   2.834   2.771  10.363
   14ARHM   H61 9480   2.827   2.842  10.278
   14ARHM   H62 9481   2.790   2.818  10.454
   14ARHM   H63 9482   2.940   2.746  10.384
   15ARHM    C1 9483   2.393   2.593  10.554
   15ARHM    H1 9484   2.311   2.548  10.493
   15ARHM    C5 9485   2.499   2.800  10.611
   15ARHM    H5 9486   2.599   2.756  10.591
   15ARHM    O5 9487   2.400   2.735  10.530
   15ARHM    C2 9488   2.364   2.569  10.701
   15ARHM    H2 9489   2.363   2.460  10.719
   15ARHM    O2 9490   2.233   2.622  10.724
   15ARHM    C3 9491   2.469   2.634  10.787
   15ARHM    H3 9492   2.569   2.595  10.756
   15ARHM    O3 9493   2.448   2.597  10.925
   15ARHM    C4 9494   2.466   2.782  10.759
   15ARHM    H4 9495   2.363   2.821  10.778
   15ARHM    O4 9496   2.554   2.857  10.844
   15ARHM   HO4 9497   2.528   2.949  10.841
   15ARHM    C6 9498   2.504   2.947  10.566
   15ARHM   H61 9499   2.582   3.003  10.623
   15ARHM   H62 9500   2.529   2.953  10.458
   15ARHM   H63 9501   2.406   2.996  10.584
   16BMANN   C1 9502   2.176   2.601  10.850
   16BMANN   H1 9503   2.223   2.668  10.926
   16BMANN   C5 9504   2.117   2.439  11.016
   16BMANN   H5 9505   2.163   2.504  11.095
   16BMANN   O5 9506   2.184   2.463  10.891
   16BMANN   C2 9507   2.032   2.638  10.828
   16BMANN   H2 9508   2.030   2.747  10.804
   16BMANN    N 9509   1.980   2.566  10.714
   16BMANN   HN 9510   2.037   2.490  10.683
   16BMANN    C 9511   1.876   2.602  10.638
   16BMANN    O 9512   1.802   2.694  10.670
   16BMANN   CT 9513   1.857   2.524  10.511
   16BMANN  HT1 9514   1.758   2.548  10.466
   16BMANN  HT2 9515   1.862   2.415  10.531
   16BMANN  HT3 9516   1.936   2.551  10.438
   16BMANN   C3 9517   1.958   2.618  10.958
   16BMANN   H3 9518   2.006   2.682  11.036
   16BMANN   O3 9519   1.823   2.661  10.949
   16BMANN  HO3 9520   1.803   2.670  10.854
   16BMANN   C4 9521   1.970   2.474  11.002
   16BMANN   H4 9522   1.924   2.407  10.926
   16BMANN   O4 9523   1.902   2.454  11.127
   16BMANN  HO4 9524   1.824   2.510  11.123
   16BMANN   C6 9525   2.143   2.295  11.054
   16BMANN  H61 9526   2.084   2.268  11.144
   16BMANN  H62 9527   2.111   2.228  10.971
   16BMANN   O6 9528   2.281   2.274  11.083
   16BMANN  HO6 9529   2.332   2.297  11.005
   17BGLCN   C1 9530   2.565   2.573  10.996
   17BGLCN   H1 9531   2.638   2.655  10.978
   17BGLCN   C5 9532   2.741   2.419  11.040
   17BGLCN   H5 9533   2.815   2.500  11.020
   17BGLCN   O5 9534   2.622   2.445  10.965
   17BGLCN   C2 9535   2.524   2.570  11.142
   17BGLCN   H2 9536   2.461   2.480  11.156
   17BGLCN    N 9537   2.441   2.685  11.179
   17BGLCN   HN 9538   2.457   2.768  11.127
   17BGLCN    C 9539   2.344   2.681  11.270
   17BGLCN    O 9540   2.312   2.579  11.331
   17BGLCN   CT 9541   2.275   2.812  11.298
   17BGLCN  HT1 9542   2.188   2.824  11.231
   17BGLCN  HT2 9543   2.345   2.897  11.281
   17BGLCN  HT3 9544   2.240   2.814  11.404
   17BGLCN   C3 9545   2.650   2.552  11.227
   17BGLCN   H3 9546   2.722   2.630  11.193
   17BGLCN   O3 9547   2.625   2.572  11.367
   17BGLCN   C4 9548   2.709   2.417  11.189
   17BGLCN   H4 9549   2.632   2.339  11.208
   17BGLCN   O4 9550   2.825   2.384  11.265
   17BGLCN  HO4 9551   2.804   2.321  11.335
   17BGLCN   C6 9552   2.801   2.289  10.991
   17BGLCN  H61 9553   2.897   2.273  11.045
   17BGLCN  H62 9554   2.732   2.205  11.016
   17BGLCN   O6 9555   2.828   2.290  10.852
   17BGLCN  HO6 9556   2.746   2.294  10.804
   18AGAL    C1 9557   2.733   2.625  11.443
   18AGAL    H1 9558   2.813   2.549  11.453
   18AGAL    C5 9559   2.696   2.851  11.368
   18AGAL    H5 9560   2.608   2.810  11.312
   18AGAL    O5 9561   2.791   2.743  11.384
   18AGAL    C2 9562   2.688   2.665  11.582
   18AGAL    H2 9563   2.779   2.706  11.631
   18AGAL    O2 9564   2.645   2.551  11.661
   18AGAL    C3 9565   2.583   2.774  11.575
   18AGAL    H3 9566   2.498   2.736  11.513
   18AGAL    O3 9567   2.531   2.810  11.703
   18AGAL   HO3 9568   2.453   2.865  11.693
   18AGAL    C4 9569   2.643   2.895  11.505
   18AGAL    H4 9570   2.563   2.971  11.488
   18AGAL    O4 9571   2.745   2.958  11.582
   18AGAL   HO4 9572   2.731   2.934  11.675
   18AGAL    C6 9573   2.746   2.966  11.283
   18AGAL   H61 9574   2.668   2.994  11.208
   18AGAL   H62 9575   2.765   3.056  11.345
   18AGAL    O6 9576   2.866   2.936  11.210
   18AGAL   HO6 9577   2.937   2.939  11.276
   19ARHM    C1 9578   2.679   2.562  11.797
   19ARHM    H1 9579   2.688   2.669  11.825
   19ARHM    C5 9580   2.806   2.360  11.800
   19ARHM    H5 9581   2.784   2.342  11.693
   19ARHM    O5 9582   2.804   2.500  11.828
   19ARHM    C2 9583   2.570   2.498  11.880
   19ARHM    H2 9584   2.474   2.536  11.839
   19ARHM    O2 9585   2.574   2.529  12.020
   19ARHM    C3 9586   2.566   2.350  11.857
   19ARHM    H3 9587   2.539   2.330  11.752
   19ARHM    O3 9588   2.468   2.291  11.943
   19ARHM   HO3 9589   2.501   2.299  12.033
   19ARHM    C4 9590   2.702   2.290  11.887
   19ARHM    H4 9591   2.730   2.307  11.992
   19ARHM    O4 9592   2.700   2.149  11.863
   19ARHM   HO4 9593   2.616   2.130  11.821
   19ARHM    C6 9594   2.951   2.316  11.828
   19ARHM   H61 9595   3.021   2.370  11.762
   19ARHM   H62 9596   2.978   2.339  11.933
   19ARHM   H63 9597   2.963   2.207  11.811
   20ARHM    C1 9598   2.539   2.663  12.047
   20ARHM    H1 9599   2.471   2.702  11.967
   20ARHM    C5 9600   2.747   2.707  12.152
   20ARHM    H5 9601   2.777   2.601  12.134
   20ARHM    O5 9602   2.654   2.748  12.051
   20ARHM    C2 9603   2.469   2.667  12.180
   20ARHM    H2 9604   2.387   2.591  12.180
   20ARHM    O2 9605   2.412   2.796  12.206
   20ARHM    C3 9606   2.562   2.627  12.291
   20ARHM    H3 9607   2.593   2.522  12.274
   20ARHM    O3 9608   2.490   2.636  12.415
   20ARHM    C4 9609   2.682   2.717  12.290
   20ARHM    H4 9610   2.648   2.822  12.304
   20ARHM    O4 9611   2.774   2.687  12.394
   20ARHM   HO4 9612   2.806   2.598  12.377
   20ARHM    C6 9613   2.872   2.793  12.134
   20ARHM   H61 9614   2.848   2.901  12.151
   20ARHM   H62 9615   2.948   2.761  12.208
   20ARHM   H63 9616   2.913   2.780  12.033
   21BMANN   C1 9617   2.298   2.820  12.127
   21BMANN   H1 9618   2.272   2.730  12.068
   21BMANN   C5 9619   2.204   2.945  11.949
   21BMANN   H5 9620   2.188   2.850  11.892
   21BMANN   O5 9621   2.318   2.928  12.036
   21BMANN   C2 9622   2.183   2.851  12.220
   21BMANN   H2 9623   2.169   2.761  12.283
   21BMANN    N 9624   2.213   2.962  12.308
   21BMANN   HN 9625   2.293   3.016  12.284
   21BMANN    C 9626   2.149   2.987  12.423
   21BMANN    O 9627   2.049   2.925  12.457
   21BMANN   CT 9628   2.204   3.096  12.512
   21BMANN  HT1 9629   2.143   3.188  12.498
   21BMANN  HT2 9630   2.310   3.117  12.486
   21BMANN  HT3 9631   2.199   3.064  12.617
   21BMANN   C3 9632   2.059   2.865  12.133
   21BMANN   H3 9633   2.044   2.770  12.076
   21BMANN   O3 9634   1.943   2.884  12.213
   21BMANN  HO3 9635   1.974   2.902  12.302
   21BMANN   C4 9636   2.079   2.975  12.030
   21BMANN   H4 9637   2.093   3.073  12.082
   21BMANN   O4 9638   1.967   2.985  11.943
   21BMANN  HO4 9639   1.891   3.013  11.995
   21BMANN   C6 9640   2.238   3.052  11.847
   21BMANN  H61 9641   2.158   3.060  11.770
   21BMANN  H62 9642   2.246   3.151  11.898
   21BMANN   O6 9643   2.361   3.023  11.780
   21BMANN  HO6 9644   2.429   3.016  11.849
   22BGLCN   C1 9645   2.526   2.541  12.510
   22BGLCN   H1 9646   2.633   2.513  12.503
   22BGLCN   C5 9647   2.473   2.331  12.603
   22BGLCN   H5 9648   2.582   2.309  12.602
   22BGLCN   O5 9649   2.444   2.425  12.500
   22BGLCN   C2 9650   2.499   2.613  12.641
   22BGLCN   H2 9651   2.391   2.642  12.641
   22BGLCN    N 9652   2.580   2.735  12.641
   22BGLCN   HN 9653   2.656   2.735  12.578
   22BGLCN    C 9654   2.547   2.849  12.701
   22BGLCN    O 9655   2.449   2.862  12.773
   22BGLCN   CT 9656   2.639   2.966  12.677
   22BGLCN  HT1 9657   2.613   3.014  12.582
   22BGLCN  HT2 9658   2.745   2.932  12.675
   22BGLCN  HT3 9659   2.626   3.040  12.759
   22BGLCN   C3 9660   2.524   2.519  12.758
   22BGLCN   H3 9661   2.631   2.490  12.755
   22BGLCN   O3 9662   2.497   2.595  12.877
   22BGLCN   C4 9663   2.438   2.394  12.738
   22BGLCN   H4 9664   2.332   2.425  12.738
   22BGLCN   O4 9665   2.457   2.299  12.842
   22BGLCN  HO4 9666   2.380   2.241  12.845
   22BGLCN   C6 9667   2.402   2.201  12.571
   22BGLCN  H61 9668   2.429   2.124  12.647
   22BGLCN  H62 9669   2.292   2.215  12.571
   22BGLCN   O6 9670   2.443   2.151  12.443
   22BGLCN  HO6 9671   2.399   2.202  12.374
   23AGAL    C1 9672   2.546   2.548  13.000
   23AGAL    H1 9673   2.488   2.458  13.030
   23AGAL    C5 9674   2.769   2.626  12.965
   23AGAL    H5 9675   2.731   2.672  12.871
   23AGAL    O5 9676   2.685   2.512  12.995
   23AGAL    C2 9677   2.525   2.653  13.109
   23AGAL    H2 9678   2.556   2.609  13.206
   23AGAL    O2 9679   2.387   2.695  13.116
   23AGAL    C3 9680   2.611   2.775  13.082
   23AGAL    H3 9681   2.581   2.820  12.985
   23AGAL    O3 9682   2.592   2.875  13.182
   23AGAL   HO3 9683   2.655   2.855  13.253
   23AGAL    C4 9684   2.756   2.732  13.075
   23AGAL    H4 9685   2.818   2.820  13.047
   23AGAL    O4 9686   2.804   2.684  13.200
   23AGAL   HO4 9687   2.882   2.632  13.179
   23AGAL    C6 9688   2.911   2.580  12.932
   23AGAL   H61 9689   2.907   2.493  12.864
   23AGAL   H62 9690   2.964   2.662  12.880
   23AGAL    O6 9691   2.989   2.545  13.047
   23AGAL   HO6 9692   3.080   2.532  13.020
   24ARHM    C1 9693   2.306   2.628  13.208
   24ARHM    H1 9694   2.341   2.523  13.217
   24ARHM    C5 9695   2.109   2.749  13.156
   24ARHM    H5 9696   2.169   2.814  13.089
   24ARHM    O5 9697   2.171   2.619  13.163
   24ARHM    C2 9698   2.314   2.692  13.345
   24ARHM    H2 9699   2.421   2.708  13.371
   24ARHM    O2 9700   2.254   2.609  13.446
   24ARHM    C3 9701   2.249   2.828  13.343
   24ARHM    H3 9702   2.304   2.894  13.273
   24ARHM    O3 9703   2.256   2.888  13.474
   24ARHM   HO3 9704   2.183   2.853  13.524
   24ARHM    C4 9705   2.106   2.813  13.294
   24ARHM    H4 9706   2.052   2.743  13.361
   24ARHM    O4 9707   2.033   2.936  13.293
   24ARHM   HO4 9708   2.018   2.965  13.203
   24ARHM    C6 9709   1.970   2.729  13.092
   24ARHM   H61 9710   1.921   2.827  13.072
   24ARHM   H62 9711   1.981   2.676  12.995
   24ARHM   H63 9712   1.904   2.669  13.158
   25ARHM    C1 9713   2.340   2.513  13.502
   25ARHM    H1 9714   2.422   2.492  13.430
   25ARHM    C5 9715   2.173   2.397  13.623
   25ARHM    H5 9716   2.099   2.473  13.592
   25ARHM    O5 9717   2.276   2.387  13.524
   25ARHM    C2 9718   2.402   2.566  13.630
   25ARHM    H2 9719   2.439   2.669  13.611
   25ARHM    O2 9720   2.508   2.483  13.676
   25ARHM    C3 9721   2.298   2.576  13.738
   25ARHM    H3 9722   2.221   2.649  13.707
   25ARHM    O3 9723   2.364   2.621  13.856
   25ARHM    C4 9724   2.234   2.439  13.756
   25ARHM    H4 9725   2.314   2.367  13.783
   25ARHM    O4 9726   2.138   2.438  13.863
   25ARHM   HO4 9727   2.132   2.349  13.898
   25ARHM    C6 9728   2.103   2.261  13.627
   25ARHM   H61 9729   2.065   2.235  13.526
   25ARHM   H62 9730   2.174   2.181  13.659
   25ARHM   H63 9731   2.017   2.263  13.697
   26BMANN   C1 9732   2.632   2.508  13.616
   26BMANN   H1 9733   2.642   2.613  13.582
   26BMANN   C5 9734   2.782   2.435  13.446
   26BMANN   H5 9735   2.790   2.541  13.415
   26BMANN   O5 9736   2.653   2.417  13.508
   26BMANN   C2 9737   2.734   2.479  13.724
   26BMANN   H2 9738   2.719   2.557  13.801
   26BMANN    N 9739   2.713   2.349  13.787
   26BMANN   HN 9740   2.658   2.285  13.734
   26BMANN    C 9741   2.756   2.319  13.911
   26BMANN    O 9742   2.823   2.397  13.977
   26BMANN   CT 9743   2.720   2.183  13.965
   26BMANN  HT1 9744   2.641   2.136  13.905
   26BMANN  HT2 9745   2.685   2.194  14.071
   26BMANN  HT3 9746   2.811   2.119  13.965
   26BMANN   C3 9747   2.872   2.499  13.665
   26BMANN   H3 9748   2.879   2.604  13.627
   26BMANN   O3 9749   2.974   2.485  13.765
   26BMANN  HO3 9750   2.934   2.450  13.845
   26BMANN   C4 9751   2.892   2.406  13.547
   26BMANN   H4 9752   2.885   2.301  13.582
   26BMANN   O4 9753   3.020   2.424  13.486
   26BMANN  HO4 9754   3.083   2.438  13.557
   26BMANN   C6 9755   2.791   2.353  13.318
   26BMANN  H61 9756   2.701   2.373  13.256
   26BMANN  H62 9757   2.879   2.385  13.259
   26BMANN   O6 9758   2.799   2.213  13.342
   26BMANN  HO6 9759   2.887   2.191  13.375
   27BGLCN   C1 9760   2.287   2.707  13.936
   27BGLCN   H1 9761   2.179   2.682  13.929
   27BGLCN   C5 9762   2.236   2.933  13.981
   27BGLCN   H5 9763   2.129   2.907  13.974
   27BGLCN   O5 9764   2.311   2.842  13.898
   27BGLCN   C2 9765   2.337   2.685  14.076
   27BGLCN   H2 9766   2.444   2.717  14.079
   27BGLCN    N 9767   2.334   2.543  14.109
   27BGLCN   HN 9768   2.276   2.487  14.050
   27BGLCN    C 9769   2.417   2.482  14.196
   27BGLCN    O 9770   2.495   2.543  14.267
   27BGLCN   CT 9771   2.411   2.332  14.200
   27BGLCN  HT1 9772   2.313   2.296  14.161
   27BGLCN  HT2 9773   2.425   2.298  14.304
   27BGLCN  HT3 9774   2.493   2.291  14.137
   27BGLCN   C3 9775   2.259   2.775  14.170
   27BGLCN   H3 9776   2.151   2.749  14.159
   27BGLCN   O3 9777   2.301   2.746  14.304
   27BGLCN   C4 9778   2.279   2.919  14.125
   27BGLCN   H4 9779   2.387   2.944  14.134
   27BGLCN   O4 9780   2.206   3.011  14.206
   27BGLCN  HO4 9781   2.112   3.000  14.190
   27BGLCN   C6 9782   2.252   3.072  13.922
   27BGLCN  H61 9783   2.211   3.149  13.991
   27BGLCN  H62 9784   2.360   3.095  13.905
   27BGLCN   O6 9785   2.181   3.083  13.797
   27BGLCN  HO6 9786   2.238   3.056  13.725
   28AGAL    C1 9787   2.225   2.795  14.412
   28AGAL    H1 9788   2.245   2.903  14.425
   28AGAL    C5 9789   2.048   2.634  14.388
   28AGAL    H5 9790   2.108   2.589  14.307
   28AGAL    O5 9791   2.083   2.774  14.393
   28AGAL    C2 9792   2.266   2.727  14.542
   28AGAL    H2 9793   2.193   2.770  14.614
   28AGAL    O2 9794   2.399   2.756  14.591
   28AGAL    C3 9795   2.240   2.577  14.533
   28AGAL    H3 9796   2.292   2.538  14.443
   28AGAL    O3 9797   2.294   2.507  14.645
   28AGAL   HO3 9798   2.242   2.429  14.667
   28AGAL    C4 9799   2.090   2.558  14.515
   28AGAL    H4 9800   2.070   2.450  14.499
   28AGAL    O4 9801   2.018   2.600  14.631
   28AGAL   HO4 9802   1.974   2.522  14.667
   28AGAL    C6 9803   1.903   2.616  14.344
   28AGAL   H61 9804   1.883   2.682  14.256
   28AGAL   H62 9805   1.890   2.511  14.309
   28AGAL    O6 9806   1.805   2.640  14.445
   28AGAL   HO6 9807   1.800   2.734  14.466
   29ARHM    C1 9808   2.394   2.797  14.726
   29ARHM    H1 9809   2.308   2.749  14.777
   29ARHM    C5 9810   2.494   3.009  14.680
   29ARHM    H5 9811   2.506   2.981  14.573
   29ARHM    O5 9812   2.381   2.940  14.735
   29ARHM    C2 9813   2.517   2.754  14.804
   29ARHM    H2 9814   2.529   2.644  14.790
   29ARHM    O2 9815   2.498   2.783  14.945
   29ARHM    C3 9816   2.640   2.821  14.750
   29ARHM    H3 9817   2.653   2.791  14.644
   29ARHM    O3 9818   2.757   2.781  14.822
   29ARHM   HO3 9819   2.833   2.816  14.775
   29ARHM    C4 9820   2.620   2.971  14.756
   29ARHM    H4 9821   2.606   3.000  14.862
   29ARHM    O4 9822   2.734   3.043  14.708
   29ARHM   HO4 9823   2.754   3.022  14.617
   29ARHM    C6 9824   2.460   3.159  14.688
   29ARHM   H61 9825   2.366   3.178  14.633
   29ARHM   H62 9826   2.447   3.188  14.794
   29ARHM   H63 9827   2.542   3.219  14.644
   30ARHM    C1 9828   2.453   2.673  15.020
   30ARHM    H1 9829   2.515   2.585  14.995
   30ARHM    C5 9830   2.225   2.750  15.029
   30ARHM    H5 9831   2.252   2.841  14.971
   30ARHM    O5 9832   2.315   2.643  14.995
   30ARHM    C2 9833   2.466   2.702  15.169
   30ARHM    H2 9834   2.571   2.733  15.189
   30ARHM    O2 9835   2.434   2.584  15.243
   30ARHM    C3 9836   2.375   2.816  15.212
   30ARHM    H3 9837   2.403   2.904  15.152
   30ARHM    O3 9838   2.398   2.851  15.351
   30ARHM    C4 9839   2.232   2.781  15.178
   30ARHM    H4 9840   2.198   2.691  15.234
   30ARHM    O4 9841   2.143   2.889  15.207
   30ARHM   HO4 9842   2.061   2.873  15.161
   30ARHM    C6 9843   2.087   2.701  14.983
   30ARHM   H61 9844   2.011   2.781  14.995
   30ARHM   H62 9845   2.091   2.671  14.876
   30ARHM   H63 9846   2.056   2.612  15.042
   31BMANN   C1 9847   2.540   2.493  15.260
   31BMANN   H1 9848   2.634   2.547  15.281
   31BMANN   C5 9849   2.664   2.312  15.166
   31BMANN   H5 9850   2.758   2.370  15.181
   31BMANN   O5 9851   2.555   2.405  15.148
   31BMANN   C2 9852   2.501   2.409  15.379
   31BMANN   H2 9853   2.492   2.478  15.466
   31BMANN    N 9854   2.371   2.345  15.361
   31BMANN   HN 9855   2.341   2.331  15.267
   31BMANN    C 9856   2.291   2.310  15.461
   31BMANN    O 9857   2.325   2.325  15.578
   31BMANN   CT 9858   2.158   2.249  15.424
   31BMANN  HT1 9859   2.173   2.165  15.353
   31BMANN  HT2 9860   2.094   2.326  15.376
   31BMANN  HT3 9861   2.108   2.212  15.516
   31BMANN   C3 9862   2.615   2.314  15.408
   31BMANN   H3 9863   2.707   2.373  15.426
   31BMANN   O3 9864   2.590   2.239  15.527
   31BMANN  HO3 9865   2.501   2.257  15.558
   31BMANN   C4 9866   2.638   2.225  15.288
   31BMANN   H4 9867   2.548   2.162  15.270
   31BMANN   O4 9868   2.749   2.140  15.313
   31BMANN  HO4 9869   2.741   2.118  15.407
   31BMANN   C6 9870   2.680   2.229  15.040
   31BMANN  H61 9871   2.775   2.170  15.044
   31BMANN  H62 9872   2.596   2.156  15.034
   31BMANN   O6 9873   2.679   2.307  14.919
   31BMANN  HO6 9874   2.768   2.327  14.891
   32BGLCN   C1 9875   2.336   2.774  15.452
   32BGLCN   H1 9876   2.323   2.668  15.422
   32BGLCN   C5 9877   2.146   2.750  15.595
   32BGLCN   H5 9878   2.138   2.645  15.562
   32BGLCN   O5 9879   2.209   2.828  15.491
   32BGLCN   C2 9880   2.426   2.782  15.574
   32BGLCN   H2 9881   2.425   2.888  15.609
   32BGLCN    N 9882   2.562   2.744  15.540
   32BGLCN   HN 9883   2.574   2.652  15.504
   32BGLCN    C 9884   2.670   2.821  15.554
   32BGLCN    O 9885   2.667   2.935  15.602
   32BGLCN   CT 9886   2.797   2.760  15.505
   32BGLCN  HT1 9887   2.777   2.661  15.457
   32BGLCN  HT2 9888   2.867   2.745  15.589
   32BGLCN  HT3 9889   2.842   2.826  15.428
   32BGLCN   C3 9890   2.368   2.696  15.684
   32BGLCN   H3 9891   2.353   2.594  15.641
   32BGLCN   O3 9892   2.454   2.685  15.800
   32BGLCN   C4 9893   2.234   2.754  15.720
   32BGLCN   H4 9894   2.246   2.859  15.752
   32BGLCN   O4 9895   2.173   2.684  15.827
   32BGLCN  HO4 9896   2.231   2.691  15.904
   32BGLCN   C6 9897   2.006   2.803  15.615
   32BGLCN  H61 9898   1.954   2.743  15.693
   32BGLCN  H62 9899   2.009   2.909  15.649
   32BGLCN   O6 9900   1.932   2.795  15.493
   32BGLCN  HO6 9901   1.984   2.840  15.426
   33AGAL    C1 9902   2.462   2.553  15.850
   33AGAL    H1 9903   2.365   2.500  15.836
   33AGAL    C5 9904   2.697   2.528  15.805
   33AGAL    H5 9905   2.700   2.634  15.774
   33AGAL    O5 9906   2.564   2.478  15.781
   33AGAL    C2 9907   2.491   2.553  16.000
   33AGAL    H2 9908   2.493   2.447  16.031
   33AGAL    O2 9909   2.385   2.618  16.074
   33AGAL    C3 9910   2.629   2.613  16.025
   33AGAL    H3 9911   2.630   2.715  15.980
   33AGAL    O3 9912   2.660   2.629  16.164
   33AGAL   HO3 9913   2.744   2.675  16.173
   33AGAL    C4 9914   2.732   2.527  15.954
   33AGAL    H4 9915   2.833   2.571  15.967
   33AGAL    O4 9916   2.735   2.395  16.009
   33AGAL   HO4 9917   2.757   2.401  16.102
   33AGAL    C6 9918   2.799   2.456  15.717
   33AGAL   H61 9919   2.784   2.486  15.611
   33AGAL   H62 9920   2.902   2.488  15.745
   33AGAL    O6 9921   2.793   2.314  15.724
   33AGAL   HO6 9922   2.708   2.283  15.692
   34ARHM    C1 9923   2.353   2.553  16.196
   34ARHM    H1 9924   2.446   2.530  16.252
   34ARHM    C5 9925   2.157   2.448  16.107
   34ARHM    H5 9926   2.176   2.490  16.005
   34ARHM    O5 9927   2.281   2.431  16.175
   34ARHM    C2 9928   2.267   2.647  16.278
   34ARHM    H2 9929   2.321   2.744  16.288
   34ARHM    O2 9930   2.236   2.599  16.411
   34ARHM    C3 9931   2.136   2.674  16.205
   34ARHM    H3 9932   2.160   2.718  16.105
   34ARHM    O3 9933   2.055   2.769  16.274
   34ARHM   HO3 9934   1.997   2.812  16.210
   34ARHM    C4 9935   2.065   2.542  16.184
   34ARHM    H4 9936   2.043   2.496  16.282
   34ARHM    O4 9937   1.941   2.558  16.114
   34ARHM   HO4 9938   1.876   2.595  16.174
   34ARHM    C6 9939   2.100   2.306  16.089
   34ARHM   H61 9940   2.080   2.261  16.189
   34ARHM   H62 9941   2.006   2.309  16.030
   34ARHM   H63 9942   2.174   2.242  16.036
   35ARHM    C1 9943   2.343   2.577  16.501
   35ARHM    H1 9944   2.423   2.652  16.484
   35ARHM    C5 9945   2.299   2.343  16.506
   35ARHM    H5 9946   2.220   2.352  16.428
   35ARHM    O5 9947   2.398   2.446  16.488
   35ARHM    C2 9948   2.285   2.592  16.641
   35ARHM    H2 9949   2.239   2.693  16.648
   35ARHM    O2 9950   2.379   2.576  16.749
   35ARHM    C3 9951   2.176   2.490  16.661
   35ARHM    H3 9952   2.097   2.504  16.585
   35ARHM    O3 9953   2.114   2.509  16.789
   35ARHM   HO3 9954   2.183   2.512  16.855
   35ARHM    C4 9955   2.236   2.352  16.645
   35ARHM    H4 9956   2.316   2.337  16.720
   35ARHM    O4 9957   2.137   2.251  16.664
   35ARHM   HO4 9958   2.102   2.261  16.752
   35ARHM    C6 9959   2.375   2.211  16.481
   35ARHM   H61 9960   2.417   2.211  16.378
   35ARHM   H62 9961   2.458   2.200  16.554
   35ARHM   H63 9962   2.306   2.124  16.491
   36BMANN   C1 9963   2.472   2.680  16.763
   36BMANN   H1 9964   2.424   2.777  16.737
   36BMANN   C5 9965   2.682   2.762  16.686
   36BMANN   H5 9966   2.632   2.856  16.653
   36BMANN   O5 9967   2.586   2.656  16.679
   36BMANN   C2 9968   2.520   2.685  16.907
   36BMANN   H2 9969   2.430   2.706  16.969
   36BMANN    N 9970   2.578   2.558  16.952
   36BMANN   HN 9971   2.627   2.505  16.884
   36BMANN    C 9972   2.575   2.514  17.078
   36BMANN    O 9973   2.511   2.569  17.168
   36BMANN   CT 9974   2.655   2.390  17.107
   36BMANN  HT1 9975   2.751   2.393  17.051
   36BMANN  HT2 9976   2.598   2.300  17.077
   36BMANN  HT3 9977   2.678   2.385  17.216
   36BMANN   C3 9978   2.615   2.803  16.920
   36BMANN   H3 9979   2.562   2.895  16.888
   36BMANN   O3 9980   2.657   2.823  17.055
   36BMANN  HO3 9981   2.601   2.888  17.098
   36BMANN   C4 9982   2.733   2.781  16.828
   36BMANN   H4 9983   2.789   2.691  16.861
   36BMANN   O4 9984   2.821   2.893  16.833
   36BMANN  HO4 9985   2.825   2.917  16.926
   36BMANN   C6 9986   2.788   2.726  16.584
   36BMANN  H61 9987   2.740   2.678  16.496
   36BMANN  H62 9988   2.837   2.819  16.545
   36BMANN   O6 9989   2.890   2.639  16.634
   36BMANN  HO6 9990   2.959   2.689  16.678
    1ECLIP HB6S 9991   6.546   3.661   6.660
    1ECLIP  OB6 9992   6.706   3.679   6.794
    1ECLIP  CB6 9993   6.616   3.739   6.695
    1ECLIP HB6R 9994   6.553   3.816   6.745
    1ECLIP  CB5 9995   6.677   3.806   6.573
    1ECLIP  OB5 9996   6.767   3.709   6.517
    1ECLIP  HB5 9997   6.736   3.896   6.604
    1ECLIP  CB1 9998   6.832   3.762   6.399
    1ECLIP  HB1 9999   6.891   3.852   6.426
    1ECLIP  OA610000   6.919   3.668   6.341
    1ECLIP  CA610001   6.872   3.534   6.354
    1ECLIP HA6R10002   6.761   3.530   6.362
    1ECLIP HA6S10003   6.918   3.492   6.446
    1ECLIP  CB410004   6.571   3.856   6.472
    1ECLIP  HB410005   6.507   3.771   6.439
    1ECLIP  OB410006   6.496   3.959   6.538
    1ECLIP   PB10007   6.334   3.946   6.572
    1ECLIP OPB410008   6.308   4.046   6.684
    1ECLIP OPB310009   6.310   3.805   6.622
    1ECLIP OPB210010   6.255   3.984   6.450
    1ECLIP  CB310011   6.645   3.912   6.351
    1ECLIP  OB310012   6.553   3.966   6.255
    1ECLIP  HB310013   6.711   3.992   6.391
    1ECLIP  C7110014   6.602   4.064   6.179
    1ECLIP  O7110015   6.719   4.100   6.182
    1ECLIP  C7210016   6.516   4.091   6.057
    1ECLIP H72R10017   6.576   4.060   5.969
    1ECLIP H72S10018   6.500   4.201   6.052
    1ECLIP  CB210019   6.731   3.800   6.292
    1ECLIP  HB210020   6.663   3.714   6.275
    1ECLIP  NB210021   6.796   3.830   6.163
    1ECLIP HNB210022   6.860   3.906   6.164
    1ECLIP  CA410023   7.047   3.472   6.179
    1ECLIP  HA410024   7.041   3.572   6.131
    1ECLIP  OA410025   7.148   3.474   6.280
    1ECLIP HOA410026   7.193   3.558   6.270
    1ECLIP  CA510027   6.913   3.445   6.241
    1ECLIP  HA510028   6.914   3.342   6.281
    1ECLIP  OA510029   6.812   3.456   6.142
    1ECLIP  CA110030   6.823   3.357   6.039
    1ECLIP  HA110031   6.744   3.380   5.965
    1ECLIP  OA110032   6.804   3.223   6.087
    1ECLIP OPA210033   6.642   3.054   6.215
    1ECLIP OPA310034   6.673   3.264   6.315
    1ECLIP OPA410035   6.539   3.242   6.117
    1ECLIP   PA10036   6.670   3.198   6.179
    1ECLIP  CA310037   7.072   3.369   6.071
    1ECLIP  HA310038   7.063   3.269   6.120
    1ECLIP  OA310039   7.204   3.372   6.016
    1ECLIP  C3110040   7.246   3.482   5.948
    1ECLIP  O3110041   7.284   3.473   5.832
    1ECLIP  C3210042   7.345   3.556   6.042
    1ECLIP H32R10043   7.443   3.548   5.990
    1ECLIP H32S10044   7.355   3.502   6.139
    1ECLIP  CA210045   6.958   3.377   5.970
    1ECLIP  HA210046   6.957   3.480   5.929
    1ECLIP  NA210047   6.976   3.286   5.858
    1ECLIP HNA210048   7.047   3.218   5.870
    1ECLIP  C7310049   6.380   4.019   6.056
    1ECLIP H73R10050   6.326   4.044   6.149
    1ECLIP  O7310051   6.405   3.878   6.047
    1ECLIP  C8110052   6.303   3.801   6.083
    1ECLIP  O8110053   6.188   3.838   6.099
    1ECLIP  C8210054   6.338   3.656   6.049
    1ECLIP H82R10055   6.261   3.592   6.096
    1ECLIP H82S10056   6.437   3.633   6.094
    1ECLIP  C8310057   6.340   3.633   5.896
    1ECLIP H83R10058   6.422   3.695   5.854
    1ECLIP H83S10059   6.245   3.669   5.851
    1ECLIP  C8410060   6.364   3.487   5.856
    1ECLIP H84R10061   6.271   3.428   5.870
    1ECLIP H84S10062   6.442   3.443   5.922
    1ECLIP  C8510063   6.413   3.478   5.712
    1ECLIP H85R10064   6.514   3.524   5.709
    1ECLIP H85S10065   6.345   3.538   5.646
    1ECLIP  C8610066   6.425   3.335   5.657
    1ECLIP H86R10067   6.323   3.294   5.642
    1ECLIP H86S10068   6.477   3.273   5.734
    1ECLIP  C8710069   6.505   3.326   5.528
    1ECLIP H87R10070   6.500   3.223   5.486
    1ECLIP H87S10071   6.612   3.348   5.550
    1ECLIP  C8810072   6.458   3.425   5.420
    1ECLIP H88R10073   6.483   3.528   5.455
    1ECLIP H88S10074   6.348   3.421   5.410
    1ECLIP  C8910075   6.526   3.403   5.285
    1ECLIP H89R10076   6.626   3.355   5.297
    1ECLIP H89S10077   6.546   3.503   5.241
    1ECLIP C81010078   6.440   3.325   5.184
    1ECLIPH810R10079   6.333   3.335   5.212
    1ECLIPH810S10080   6.466   3.217   5.193
    1ECLIP C81110081   6.460   3.374   5.040
    1ECLIPH811R10082   6.411   3.303   4.971
    1ECLIPH811S10083   6.569   3.373   5.020
    1ECLIP C81210084   6.406   3.515   5.011
    1ECLIPH812R10085   6.447   3.549   4.914
    1ECLIPH812S10086   6.441   3.587   5.089
    1ECLIP C81310087   6.253   3.523   5.006
    1ECLIPH813R10088   6.215   3.460   4.924
    1ECLIPH813S10089   6.211   3.482   5.101
    1ECLIP C81410090   6.201   3.667   4.990
    1ECLIPH814R10091   6.241   3.713   4.896
    1ECLIPH814S10092   6.233   3.729   5.075
    1ECLIPH814T10093   6.090   3.668   4.985
    1ECLIP  C7410094   6.296   4.065   5.933
    1ECLIP H74R10095   6.285   4.176   5.938
    1ECLIP H74S10096   6.194   4.023   5.945
    1ECLIP  C7510097   6.348   4.024   5.794
    1ECLIP H75R10098   6.259   4.007   5.729
    1ECLIP H75S10099   6.402   3.927   5.801
    1ECLIP  C7610100   6.436   4.129   5.723
    1ECLIP H76R10101   6.533   4.141   5.776
    1ECLIP H76S10102   6.384   4.227   5.726
    1ECLIP  C7710103   6.464   4.090   5.577
    1ECLIP H77R10104   6.366   4.072   5.528
    1ECLIP H77S10105   6.520   3.995   5.575
    1ECLIP  C7810106   6.541   4.198   5.499
    1ECLIP H78R10107   6.482   4.291   5.498
    1ECLIP H78S10108   6.636   4.219   5.552
    1ECLIP  C7910109   6.574   4.158   5.353
    1ECLIP H79R10110   6.644   4.072   5.355
    1ECLIP H79S10111   6.627   4.243   5.306
    1ECLIP C71010112   6.451   4.119   5.270
    1ECLIPH710R10113   6.404   4.029   5.315
    1ECLIPH710S10114   6.377   4.202   5.274
    1ECLIP C71110115   6.484   4.086   5.123
    1ECLIPH711R10116   6.522   4.178   5.075
    1ECLIPH711S10117   6.564   4.009   5.120
    1ECLIP C71210118   6.360   4.033   5.049
    1ECLIPH712R10119   6.278   4.108   5.058
    1ECLIPH712S10120   6.326   3.941   5.101
    1ECLIP C71310121   6.383   4.002   4.901
    1ECLIPH713R10122   6.469   3.931   4.892
    1ECLIPH713S10123   6.293   3.950   4.862
    1ECLIP C71410124   6.408   4.126   4.815
    1ECLIPH714R10125   6.327   4.199   4.828
    1ECLIPH714S10126   6.504   4.174   4.844
    1ECLIPH714T10127   6.414   4.098   4.707
    1ECLIP  C5110128   6.768   3.772   6.044
    1ECLIP  O5110129   6.678   3.690   6.030
    1ECLIP  C5210130   6.857   3.812   5.927
    1ECLIP H52R10131   6.846   3.921   5.911
    1ECLIP H52S10132   6.962   3.790   5.957
    1ECLIP  C5310133   6.825   3.737   5.794
    1ECLIP H53R10134   6.818   3.627   5.813
    1ECLIP  O5310135   6.926   3.770   5.698
    1ECLIP  C6110136   7.016   3.679   5.667
    1ECLIP  O6110137   7.040   3.577   5.728
    1ECLIP  C6210138   7.111   3.740   5.561
    1ECLIP H62R10139   7.183   3.805   5.615
    1ECLIP H62S10140   7.048   3.803   5.495
    1ECLIP  C6310141   7.192   3.639   5.476
    1ECLIP H63R10142   7.120   3.576   5.420
    1ECLIP H63S10143   7.251   3.573   5.543
    1ECLIP  C6410144   7.286   3.707   5.375
    1ECLIP H64R10145   7.334   3.628   5.313
    1ECLIP H64S10146   7.367   3.760   5.431
    1ECLIP  C6510147   7.213   3.808   5.285
    1ECLIP H65R10148   7.180   3.891   5.351
    1ECLIP H65S10149   7.123   3.759   5.242
    1ECLIP  C6610150   7.294   3.872   5.174
    1ECLIP H66R10151   7.372   3.938   5.217
    1ECLIP H66S10152   7.227   3.938   5.115
    1ECLIP  C6710153   7.361   3.774   5.076
    1ECLIP H67R10154   7.442   3.719   5.130
    1ECLIP H67S10155   7.409   3.834   4.997
    1ECLIP  C6810156   7.267   3.671   5.012
    1ECLIP H68R10157   7.173   3.722   4.981
    1ECLIP H68S10158   7.241   3.593   5.087
    1ECLIP  C6910159   7.333   3.608   4.888
    1ECLIP H69R10160   7.433   3.570   4.914
    1ECLIP H69S10161   7.346   3.691   4.815
    1ECLIP C61010162   7.249   3.495   4.827
    1ECLIPH610R10163   7.143   3.528   4.821
    1ECLIPH610S10164   7.251   3.408   4.896
    1ECLIP C61110165   7.296   3.451   4.688
    1ECLIPH611R10166   7.388   3.390   4.698
    1ECLIPH611S10167   7.217   3.385   4.645
    1ECLIP C61210168   7.325   3.565   4.589
    1ECLIPH612R10169   7.240   3.637   4.587
    1ECLIPH612S10170   7.417   3.619   4.617
    1ECLIPH612T10171   7.339   3.526   4.485
    1ECLIP  C5410172   6.692   3.785   5.731
    1ECLIP H54R10173   6.696   3.895   5.717
    1ECLIP H54S10174   6.612   3.764   5.806
    1ECLIP  C5510175   6.656   3.716   5.598
    1ECLIP H55R10176   6.546   3.720   5.585
    1ECLIP H55S10177   6.686   3.609   5.605
    1ECLIP  C5610178   6.719   3.779   5.473
    1ECLIP H56R10179   6.829   3.791   5.487
    1ECLIP H56S10180   6.677   3.881   5.458
    1ECLIP  C5710181   6.697   3.695   5.347
    1ECLIP H57R10182   6.589   3.697   5.322
    1ECLIP H57S10183   6.727   3.590   5.368
    1ECLIP  C5810184   6.778   3.747   5.228
    1ECLIP H58R10185   6.749   3.853   5.210
    1ECLIP H58S10186   6.886   3.746   5.253
    1ECLIP  C5910187   6.756   3.668   5.098
    1ECLIP H59R10188   6.647   3.671   5.073
    1ECLIP H59S10189   6.785   3.562   5.113
    1ECLIP C51010190   6.834   3.731   4.983
    1ECLIPH510R10191   6.943   3.727   5.005
    1ECLIPH510S10192   6.805   3.838   4.978
    1ECLIP C51110193   6.807   3.668   4.846
    1ECLIPH511R10194   6.856   3.569   4.839
    1ECLIPH511S10195   6.697   3.652   4.837
    1ECLIP C51210196   6.852   3.760   4.731
    1ECLIPH512R10197   6.812   3.720   4.636
    1ECLIPH512S10198   6.807   3.861   4.747
    1ECLIP C51310199   7.003   3.775   4.719
    1ECLIPH513R10200   7.048   3.673   4.716
    1ECLIPH513S10201   7.044   3.828   4.807
    1ECLIP C51410202   7.045   3.849   4.591
    1ECLIPH514R10203   7.002   3.951   4.589
    1ECLIPH514S10204   7.156   3.857   4.587
    1ECLIPH514T10205   7.009   3.793   4.502
    1ECLIP  C3310206   7.316   3.707   6.063
    1ECLIP H33R10207   7.411   3.757   6.090
    1ECLIP  O3310208   7.228   3.722   6.172
    1ECLIP HO3310209   7.223   3.811   6.207
    1ECLIP  C3410210   7.255   3.775   5.939
    1ECLIP H34R10211   7.158   3.724   5.917
    1ECLIP H34S10212   7.321   3.757   5.852
    1ECLIP  C3510213   7.226   3.927   5.950
    1ECLIP H35R10214   7.318   3.984   5.974
    1ECLIP H35S10215   7.152   3.944   6.030
    1ECLIP  C3610216   7.168   3.976   5.815
    1ECLIP H36R10217   7.102   3.894   5.781
    1ECLIP H36S10218   7.248   3.990   5.740
    1ECLIP  C3710219   7.074   4.098   5.818
    1ECLIP H37R10220   7.133   4.191   5.806
    1ECLIP H37S10221   7.022   4.102   5.917
    1ECLIP  C3810222   6.968   4.094   5.707
    1ECLIP H38R10223   6.907   4.001   5.716
    1ECLIP H38S10224   6.897   4.177   5.724
    1ECLIP  C3910225   7.025   4.099   5.565
    1ECLIP H39R10226   7.090   4.010   5.550
    1ECLIP H39S10227   7.092   4.187   5.554
    1ECLIP C31010228   6.917   4.101   5.455
    1ECLIPH310R10229   6.870   4.201   5.453
    1ECLIPH310S10230   6.837   4.028   5.481
    1ECLIP C31110231   6.976   4.063   5.318
    1ECLIPH311R10232   7.077   4.109   5.308
    1ECLIPH311S10233   6.987   3.953   5.316
    1ECLIP C31210234   6.895   4.102   5.193
    1ECLIPH312R10235   6.795   4.054   5.195
    1ECLIPH312S10236   6.878   4.211   5.188
    1ECLIP C31310237   6.968   4.059   5.064
    1ECLIPH313R10238   7.069   4.107   5.063
    1ECLIPH313S10239   6.985   3.949   5.069
    1ECLIP C31410240   6.895   4.095   4.936
    1ECLIPH314R10241   6.898   4.205   4.921
    1ECLIPH314S10242   6.943   4.047   4.848
    1ECLIPH314T10243   6.789   4.062   4.940
    1ECLIP  C1110244   6.898   3.287   5.748
    1ECLIP  O1110245   6.816   3.375   5.724
    1ECLIP  C1210246   6.914   3.171   5.655
    1ECLIP H12R10247   6.824   3.107   5.664
    1ECLIP H12S10248   7.004   3.112   5.681
    1ECLIP  C1310249   6.924   3.223   5.510
    1ECLIP H13R10250   6.836   3.287   5.486
    1ECLIP  O1310251   6.920   3.110   5.425
    1ECLIP HO1310252   6.922   3.135   5.332
    1ECLIP  C1410253   7.054   3.302   5.483
    1ECLIP H14R10254   7.138   3.248   5.533
    1ECLIP H14S10255   7.045   3.401   5.532
    1ECLIP  C1510256   7.094   3.320   5.335
    1ECLIP H15R10257   7.116   3.220   5.293
    1ECLIP H15S10258   7.189   3.377   5.330
    1ECLIP  C1610259   6.990   3.392   5.247
    1ECLIP H16R10260   7.013   3.500   5.245
    1ECLIP H16S10261   6.887   3.381   5.288
    1ECLIP  C1710262   6.988   3.338   5.102
    1ECLIP H17R10263   7.094   3.334   5.066
    1ECLIP H17S10264   6.934   3.408   5.036
    1ECLIP  C1810265   6.924   3.199   5.092
    1ECLIP H18R10266   6.961   3.136   5.176
    1ECLIP H18S10267   6.814   3.207   5.102
    1ECLIP  C1910268   6.961   3.122   4.964
    1ECLIP H19R10269   6.934   3.016   4.978
    1ECLIP H19S10270   7.071   3.127   4.950
    1ECLIP C11010271   6.890   3.174   4.839
    1ECLIPH110R10272   6.780   3.163   4.852
    1ECLIPH110S10273   6.912   3.282   4.826
    1ECLIP C11110274   6.936   3.098   4.715
    1ECLIPH111R10275   7.044   3.118   4.700
    1ECLIPH111S10276   6.924   2.989   4.731
    1ECLIP C11210277   6.860   3.140   4.589
    1ECLIPH112R10278   6.754   3.105   4.594
    1ECLIPH112S10279   6.857   3.251   4.585
    1ECLIP C11310280   6.924   3.086   4.462
    1ECLIPH113R10281   7.034   3.098   4.470
    1ECLIPH113S10282   6.902   2.977   4.453
    1ECLIP C11410283   6.876   3.158   4.337
    1ECLIPH114R10284   6.766   3.166   4.335
    1ECLIPH114S10285   6.917   3.261   4.333
    1ECLIPH114T10286   6.910   3.106   4.245
    2AKDO    C110287   6.859   3.855   6.819
    2AKDO   O1110288   6.850   3.979   6.825
    2AKDO   O1210289   6.943   3.783   6.756
    2AKDO    C210290   6.752   3.772   6.893
    2AKDO    C610291   6.549   3.749   7.017
    2AKDO    H610292   6.520   3.676   6.938
    2AKDO    O610293   6.643   3.841   6.957
    2AKDO    C310294   6.820   3.694   7.005
    2AKDO   H3110295   6.851   3.764   7.087
    2AKDO   H3210296   6.914   3.648   6.967
    2AKDO    C410297   6.731   3.594   7.068
    2AKDO    H410298   6.691   3.524   6.991
    2AKDO    O410299   6.807   3.521   7.163
    2AKDO    C510300   6.610   3.664   7.129
    2AKDO    H510301   6.537   3.581   7.139
    2AKDO    O510302   6.626   3.725   7.261
    2AKDO    C710303   6.420   3.822   7.049
    2AKDO    H710304   6.436   3.895   7.130
    2AKDO    O710305   6.316   3.728   7.082
    2AKDO   HO710306   6.265   3.720   6.999
    2AKDO    C810307   6.379   3.896   6.924
    2AKDO   H8110308   6.459   3.966   6.891
    2AKDO   H8210309   6.369   3.820   6.844
    2AKDO    O810310   6.255   3.967   6.931
    2AKDO   HO810311   6.232   3.963   6.839
    3AKDO    C110312   6.881   3.356   6.992
    3AKDO   O1110313   6.888   3.420   6.882
    3AKDO   O1210314   6.827   3.245   7.013
    3AKDO    C210315   6.916   3.437   7.122
    3AKDO    C610316   7.090   3.588   7.207
    3AKDO    H610317   7.016   3.669   7.224
    3AKDO    O610318   7.043   3.504   7.099
    3AKDO    C310319   6.931   3.355   7.252
    3AKDO   H3110320   7.007   3.276   7.234
    3AKDO   H3210321   6.834   3.304   7.273
    3AKDO    C410322   6.970   3.442   7.367
    3AKDO    H410323   6.898   3.525   7.379
    3AKDO    O410324   6.967   3.367   7.488
    3AKDO   HO410325   6.879   3.375   7.524
    3AKDO    C510326   7.105   3.506   7.337
    3AKDO    H510327   7.129   3.576   7.419
    3AKDO    O510328   7.212   3.411   7.328
    3AKDO   HO510329   7.213   3.377   7.238
    3AKDO    C710330   7.223   3.651   7.167
    3AKDO    H710331   7.297   3.571   7.148
    3AKDO    O710332   7.271   3.738   7.270
    3AKDO   HO710333   7.277   3.822   7.224
    3AKDO    C810334   7.211   3.733   7.039
    3AKDO   H8110335   7.172   3.670   6.957
    3AKDO   H8210336   7.142   3.819   7.054
    3AKDO    O810337   7.342   3.781   7.004
    3AKDO   HO810338   7.336   3.827   6.920
    4AHEP    C110339   6.510   3.713   7.344
    4AHEP    H110340   6.431   3.778   7.301
    4AHEP    C510341   6.544   3.486   7.407
    4AHEP    H510342   6.645   3.502   7.365
    4AHEP    O510343   6.456   3.580   7.344
    4AHEP    C210344   6.525   3.759   7.490
    4AHEP    H210345   6.576   3.858   7.486
    4AHEP    O210346   6.398   3.781   7.552
    4AHEP   HO210347   6.363   3.867   7.528
    4AHEP    C310348   6.612   3.662   7.568
    4AHEP    H310349   6.714   3.664   7.525
    4AHEP    O310350   6.613   3.696   7.708
    4AHEP    C410351   6.553   3.523   7.556
    4AHEP    H410352   6.450   3.526   7.597
    4AHEP    O410353   6.637   3.432   7.627
    4AHEP    P410354   6.573   3.329   7.738
    4AHEP  OP4210355   6.688   3.265   7.814
    4AHEP  OP4310356   6.512   3.213   7.661
    4AHEP  OP4410357   6.471   3.397   7.827
    4AHEP    C610358   6.509   3.342   7.365
    4AHEP    H610359   6.599   3.280   7.386
    4AHEP    O610360   6.399   3.289   7.440
    4AHEP   HO610361   6.437   3.272   7.528
    4AHEP    C710362   6.478   3.333   7.215
    4AHEP   H7110363   6.466   3.228   7.181
    4AHEP   H7210364   6.565   3.371   7.158
    4AHEP    O710365   6.359   3.404   7.176
    4AHEP   HO710366   6.363   3.483   7.231
    5AHEP    C110367   6.737   3.728   7.766
    5AHEP    H110368   6.817   3.668   7.716
    5AHEP    C510369   6.663   3.952   7.811
    5AHEP    H510370   6.566   3.933   7.759
    5AHEP    O510371   6.766   3.869   7.752
    5AHEP    C210372   6.736   3.694   7.913
    5AHEP    H210373   6.706   3.588   7.921
    5AHEP    O210374   6.866   3.706   7.971
    5AHEP   HO210375   6.916   3.627   7.952
    5AHEP    C310376   6.628   3.775   7.983
    5AHEP    H310377   6.529   3.743   7.943
    5AHEP    O310378   6.634   3.756   8.127
    5AHEP    C410379   6.650   3.923   7.962
    5AHEP    H410380   6.736   3.962   8.019
    5AHEP    O410381   6.524   3.978   8.002
    5AHEP    P410382   6.487   4.090   8.112
    5AHEP  OP4210383   6.336   4.108   8.108
    5AHEP  OP4310384   6.539   4.222   8.061
    5AHEP  OP4410385   6.532   4.049   8.252
    5AHEP    C610386   6.708   4.097   7.780
    5AHEP    H610387   6.640   4.166   7.834
    5AHEP    O610388   6.842   4.121   7.825
    5AHEP   HO610389   6.888   4.119   7.740
    5AHEP    C710390   6.705   4.129   7.630
    5AHEP   H7110391   6.675   4.236   7.622
    5AHEP   H7210392   6.626   4.072   7.577
    5AHEP    O710393   6.833   4.120   7.563
    6AHEP    C110394   6.851   3.995   7.500
    6AHEP    H110395   6.771   3.925   7.531
    6AHEP    C510396   6.947   4.071   7.293
    6AHEP    H510397   6.949   4.172   7.340
    6AHEP    O510398   6.839   3.999   7.358
    6AHEP    C210399   6.983   3.933   7.545
    6AHEP    H210400   6.991   3.949   7.655
    6AHEP    O210401   6.990   3.792   7.525
    6AHEP   HO210402   6.942   3.748   7.596
    6AHEP    C310403   7.096   4.009   7.480
    6AHEP    H310404   7.085   4.116   7.506
    6AHEP    O310405   7.227   3.971   7.525
    6AHEP   HO310406   7.279   3.973   7.445
    6AHEP    C410407   7.078   3.999   7.329
    6AHEP    H410408   7.061   3.892   7.304
    6AHEP    O410409   7.196   4.035   7.257
    6AHEP   HO410410   7.213   4.129   7.269
    6AHEP    C610411   6.926   4.099   7.144
    6AHEP    H610412   7.002   4.173   7.111
    6AHEP    O610413   6.950   3.980   7.071
    6AHEP   HO610414   6.927   3.999   6.980
    6AHEP    C710415   6.789   4.157   7.106
    6AHEP   H7110416   6.792   4.184   6.998
    6AHEP   H7210417   6.773   4.252   7.162
    6AHEP    O710418   6.677   4.070   7.128
    6AHEP   HO710419   6.705   3.987   7.089
    7AGLC    C110420   6.550   3.659   8.181
    7AGLC    H110421   6.449   3.668   8.137
    7AGLC    C510422   6.730   3.506   8.216
    7AGLC    H510423   6.799   3.585   8.179
    7AGLC    O510424   6.600   3.526   8.160
    7AGLC    C210425   6.541   3.682   8.332
    7AGLC    H210426   6.474   3.603   8.372
    7AGLC    O210427   6.478   3.806   8.365
    7AGLC   HO210428   6.516   3.880   8.318
    7AGLC    C310429   6.676   3.663   8.403
    7AGLC    H310430   6.747   3.738   8.360
    7AGLC    O310431   6.669   3.676   8.547
    7AGLC    C410432   6.723   3.523   8.367
    7AGLC    H410433   6.648   3.450   8.405
    7AGLC    O410434   6.848   3.490   8.427
    7AGLC   HO410435   6.833   3.436   8.505
    7AGLC    C610436   6.784   3.372   8.167
    7AGLC   H6110437   6.763   3.363   8.059
    7AGLC   H6210438   6.895   3.371   8.181
    7AGLC    O610439   6.729   3.260   8.236
    7AGLC   HO610440   6.768   3.256   8.325
    8AGLC    C110441   6.751   3.778   8.601
    8AGLC    H110442   6.850   3.780   8.549
    8AGLC    C510443   6.564   3.923   8.648
    8AGLC    H510444   6.493   3.845   8.613
    8AGLC    O510445   6.692   3.906   8.583
    8AGLC    C210446   6.773   3.761   8.752
    8AGLC    H210447   6.840   3.843   8.785
    8AGLC    O210448   6.833   3.636   8.790
    8AGLC    C310449   6.642   3.773   8.828
    8AGLC    H310450   6.573   3.697   8.785
    8AGLC    O310451   6.663   3.736   8.967
    8AGLC    C410452   6.582   3.909   8.799
    8AGLC    H410453   6.650   3.991   8.830
    8AGLC    O410454   6.456   3.927   8.865
    8AGLC   HO410455   6.415   3.996   8.812
    8AGLC    C610456   6.516   4.057   8.598
    8AGLC   H6110457   6.602   4.128   8.591
    8AGLC   H6210458   6.479   4.043   8.495
    8AGLC    O610459   6.413   4.118   8.679
    8AGLC   HO610460   6.402   4.208   8.646
    9AGAL    C110461   6.953   3.595   8.730
    9AGAL    H110462   6.949   3.606   8.620
    9AGAL    C510463   7.082   3.662   8.921
    9AGAL    H510464   6.990   3.701   8.969
    9AGAL    O510465   7.067   3.668   8.778
    9AGAL    C210466   6.967   3.448   8.766
    9AGAL    H210467   7.058   3.409   8.716
    9AGAL    O210468   6.851   3.386   8.703
    9AGAL    C310469   6.984   3.434   8.917
    9AGAL    H310470   6.891   3.471   8.967
    9AGAL    O310471   7.006   3.299   8.955
    9AGAL   HO310472   7.096   3.280   8.929
    9AGAL    C410473   7.102   3.517   8.964
    9AGAL    H410474   7.102   3.516   9.075
    9AGAL    O410475   7.228   3.464   8.922
    9AGAL   HO410476   7.276   3.537   8.882
    9AGAL    C610477   7.196   3.756   8.959
    9AGAL   H6110478   7.167   3.860   8.936
    9AGAL   H6210479   7.215   3.751   9.068
    9AGAL    O610480   7.319   3.727   8.889
    9AGAL   HO610481   7.308   3.757   8.799
   10AGAL    C110482   6.793   3.267   8.753
   10AGAL    H110483   6.872   3.189   8.759
   10AGAL    C510484   6.627   3.380   8.884
   10AGAL    H510485   6.665   3.475   8.839
   10AGAL    O510486   6.735   3.285   8.884
   10AGAL    C210487   6.683   3.219   8.657
   10AGAL    H210488   6.646   3.122   8.697
   10AGAL    O210489   6.733   3.193   8.525
   10AGAL   HO210490   6.687   3.118   8.488
   10AGAL    C310491   6.566   3.316   8.655
   10AGAL    H310492   6.604   3.415   8.622
   10AGAL    O310493   6.463   3.278   8.564
   10AGAL   HO310494   6.495   3.284   8.474
   10AGAL    C410495   6.512   3.333   8.795
   10AGAL    H410496   6.434   3.412   8.794
   10AGAL    O410497   6.453   3.213   8.847
   10AGAL   HO410498   6.385   3.183   8.786
   10AGAL    C610499   6.589   3.414   9.026
   10AGAL   H6110500   6.679   3.449   9.082
   10AGAL   H6210501   6.513   3.495   9.025
   10AGAL    O610502   6.535   3.301   9.096
   10AGAL   HO610503   6.492   3.248   9.030
   11BGLC    C110504   6.671   3.838   9.064
   11BGLC    H110505   6.570   3.882   9.079
   11BGLC    C510506   6.768   4.047   9.120
   11BGLC    H510507   6.664   4.081   9.134
   11BGLC    O510508   6.763   3.939   9.024
   11BGLC    C210509   6.718   3.777   9.195
   11BGLC    H210510   6.818   3.732   9.179
   11BGLC    O210511   6.630   3.673   9.240
   11BGLC   HO210512   6.606   3.622   9.163
   11BGLC    C310513   6.730   3.885   9.300
   11BGLC    H310514   6.629   3.927   9.322
   11BGLC    O310515   6.791   3.834   9.419
   11BGLC    C410516   6.822   3.994   9.250
   11BGLC    H410517   6.923   3.951   9.233
   11BGLC    O410518   6.834   4.097   9.347
   11BGLC   HO410519   6.828   4.055   9.433
   11BGLC    C610520   6.848   4.160   9.058
   11BGLC   H6110521   6.948   4.165   9.106
   11BGLC   H6210522   6.864   4.141   8.950
   11BGLC    O610523   6.780   4.286   9.073
   11BGLC   HO610524   6.834   4.353   9.030
   12BGLCN   C110525   6.718   3.844   9.538
   12BGLCN   H110526   6.626   3.782   9.531
   12BGLCN   C510527   6.624   3.995   9.695
   12BGLCN   H510528   6.528   3.939   9.695
   12BGLCN   O510529   6.689   3.981   9.568
   12BGLCN   C210530   6.815   3.788   9.641
   12BGLCN   H210531   6.902   3.857   9.641
   12BGLCN    N10532   6.860   3.656   9.599
   12BGLCN   HN10533   6.794   3.600   9.551
   12BGLCN    C10534   6.988   3.617   9.601
   12BGLCN    O10535   7.076   3.682   9.658
   12BGLCN   CT10536   7.021   3.487   9.532
   12BGLCN  HT110537   7.074   3.420   9.603
   12BGLCN  HT210538   7.088   3.507   9.446
   12BGLCN  HT310539   6.929   3.437   9.497
   12BGLCN   C310540   6.753   3.795   9.780
   12BGLCN   H310541   6.663   3.730   9.782
   12BGLCN   O310542   6.849   3.753   9.879
   12BGLCN   C410543   6.715   3.940   9.804
   12BGLCN   H410544   6.808   4.001   9.806
   12BGLCN   O410545   6.652   3.957   9.931
   12BGLCN  HO410546   6.565   3.916   9.931
   12BGLCN   C610547   6.595   4.144   9.712
   12BGLCN  H6110548   6.567   4.166   9.818
   12BGLCN  H6210549   6.687   4.202   9.689
   12BGLCN   O610550   6.489   4.189   9.627
   12BGLCN  HO610551   6.507   4.165   9.536
   13AGAL    C110552   6.795   3.685   9.990
   13AGAL    H110553   6.702   3.735  10.026
   13AGAL    C510554   6.881   3.474   9.917
   13AGAL    H510555   6.929   3.532   9.835
   13AGAL    O510556   6.764   3.548   9.957
   13AGAL    C210557   6.895   3.679  10.106
   13AGAL    H210558   6.848   3.615  10.184
   13AGAL    O210559   6.918   3.809  10.167
   13AGAL    C310560   7.023   3.609  10.063
   13AGAL    H310561   7.062   3.660   9.973
   13AGAL    O310562   7.126   3.615  10.162
   13AGAL   HO310563   7.180   3.693  10.145
   13AGAL    C410564   6.987   3.466  10.026
   13AGAL    H410565   7.077   3.417   9.983
   13AGAL    O410566   6.944   3.390  10.139
   13AGAL   HO410567   7.016   3.390  10.203
   13AGAL    C610568   6.841   3.343   9.851
   13AGAL   H6110569   6.776   3.367   9.762
   13AGAL   H6210570   6.931   3.291   9.811
   13AGAL    O610571   6.768   3.252   9.934
   13AGAL   HO610572   6.832   3.199   9.983
   14ARHM    C110573   6.856   3.830  10.292
   14ARHM    H110574   6.760   3.774  10.295
   14ARHM    C510575   6.936   4.053  10.313
   14ARHM    H510576   6.989   4.045  10.216
   14ARHM    O510577   6.821   3.967  10.312
   14ARHM    C210578   6.946   3.780  10.403
   14ARHM    H210579   6.977   3.676  10.379
   14ARHM    O210580   6.891   3.780  10.536
   14ARHM    C310581   7.070   3.866  10.408
   14ARHM    H310582   7.125   3.858  10.311
   14ARHM    O310583   7.157   3.823  10.512
   14ARHM   HO310584   7.101   3.789  10.582
   14ARHM    C410585   7.029   4.011  10.426
   14ARHM    H410586   6.973   4.021  10.523
   14ARHM    O410587   7.143   4.096  10.434
   14ARHM   HO410588   7.204   4.054  10.495
   14ARHM    C610589   6.880   4.195  10.326
   14ARHM   H6110590   6.813   4.217  10.240
   14ARHM   H6210591   6.822   4.206  10.420
   14ARHM   H6310592   6.963   4.269  10.326
   15ARHM    C110593   6.778   3.699  10.561
   15ARHM    H110594   6.772   3.616  10.487
   15ARHM    C510595   6.655   3.885  10.651
   15ARHM    H510596   6.737   3.956  10.627
   15ARHM    O510597   6.657   3.776  10.557
   15ARHM    C210598   6.792   3.642  10.701
   15ARHM    H210599   6.885   3.582  10.705
   15ARHM    O210600   6.679   3.557  10.726
   15ARHM    C310601   6.801   3.756  10.800
   15ARHM    H310602   6.883   3.823  10.768
   15ARHM    O310603   6.833   3.705  10.930
   15ARHM    C410604   6.671   3.833  10.794
   15ARHM    H410605   6.586   3.765  10.815
   15ARHM    O410606   6.668   3.938  10.891
   15ARHM   HO410607   6.578   3.970  10.899
   15ARHM    C610608   6.522   3.957  10.627
   15ARHM   H6110609   6.513   4.048  10.690
   15ARHM   H6210610   6.513   3.986  10.521
   15ARHM   H6310611   6.437   3.889  10.651
   16BMANN   C110612   6.669   3.493  10.850
   16BMANN   H110613   6.644   3.567  10.929
   16BMANN   C510614   6.780   3.356  11.012
   16BMANN   H510615   6.756   3.431  11.089
   16BMANN   O510616   6.789   3.422  10.884
   16BMANN   C210617   6.555   3.395  10.837
   16BMANN   H210618   6.463   3.456  10.823
   16BMANN    N10619   6.575   3.311  10.719
   16BMANN   HN10620   6.667   3.277  10.704
   16BMANN    C10621   6.485   3.299  10.620
   16BMANN    O10622   6.371   3.343  10.627
   16BMANN   CT10623   6.533   3.230  10.495
   16BMANN  HT110624   6.447   3.215  10.426
   16BMANN  HT210625   6.578   3.131  10.520
   16BMANN  HT310626   6.608   3.293  10.444
   16BMANN   C310627   6.541   3.321  10.968
   16BMANN   H310628   6.519   3.398  11.047
   16BMANN   O310629   6.429   3.232  10.968
   16BMANN  HO310630   6.385   3.240  11.052
   16BMANN   C410631   6.670   3.251  11.006
   16BMANN   H410632   6.694   3.176  10.929
   16BMANN   O410633   6.659   3.184  11.133
   16BMANN  HO410634   6.573   3.142  11.134
   16BMANN   C610635   6.918   3.300  11.043
   16BMANN  H6110636   6.915   3.243  11.137
   16BMANN  H6210637   6.949   3.231  10.961
   16BMANN   O610638   7.014   3.405  11.055
   16BMANN  HO610639   7.014   3.455  10.974
   17BGLCN   C110640   6.920   3.786  11.003
   17BGLCN   H110641   6.906   3.893  10.977
   17BGLCN   C510642   7.149   3.825  11.059
   17BGLCN   H510643   7.138   3.932  11.031
   17BGLCN   O510644   7.056   3.747  10.981
   17BGLCN   C210645   6.884   3.762  11.148
   17BGLCN   H210646   6.909   3.656  11.172
   17BGLCN    N10647   6.740   3.777  11.165
   17BGLCN   HN10648   6.696   3.835  11.097
   17BGLCN    C10649   6.664   3.710  11.253
   17BGLCN    O10650   6.707   3.629  11.333
   17BGLCN   CT10651   6.516   3.740  11.248
   17BGLCN  HT110652   6.465   3.663  11.186
   17BGLCN  HT210653   6.498   3.840  11.203
   17BGLCN  HT310654   6.474   3.736  11.350
   17BGLCN   C310655   6.973   3.853  11.232
   17BGLCN   H310656   6.962   3.955  11.191
   17BGLCN   O310657   6.931   3.855  11.370
   17BGLCN   C410658   7.117   3.809  11.207
   17BGLCN   H410659   7.125   3.702  11.234
   17BGLCN   O410660   7.212   3.878  11.288
   17BGLCN  HO410661   7.242   3.959  11.246
   17BGLCN   C610662   7.289   3.780  11.019
   17BGLCN  H6110663   7.364   3.836  11.078
   17BGLCN  H6210664   7.301   3.672  11.041
   17BGLCN   O610665   7.314   3.804  10.880
   17BGLCN  HO610666   7.262   3.741  10.829
   18AGAL    C110667   6.954   3.977  11.439
   18AGAL    H110668   7.064   3.995  11.450
   18AGAL    C510669   6.754   4.079  11.356
   18AGAL    H510670   6.733   3.983  11.304
   18AGAL    O510671   6.897   4.091  11.371
   18AGAL    C210672   6.894   3.974  11.578
   18AGAL    H210673   6.913   4.074  11.623
   18AGAL    O210674   6.958   3.877  11.665
   18AGAL    C310675   6.743   3.954  11.568
   18AGAL    H310676   6.725   3.860  11.510
   18AGAL    O310677   6.681   3.938  11.696
   18AGAL   HO310678   6.596   3.895  11.686
   18AGAL    C410679   6.684   4.071  11.491
   18AGAL    H410680   6.576   4.050  11.472
   18AGAL    O410681   6.691   4.193  11.564
   18AGAL   HO410682   6.711   4.173  11.655
   18AGAL    C610683   6.701   4.187  11.262
   18AGAL   H6110684   6.754   4.180  11.165
   18AGAL   H6210685   6.593   4.169  11.242
   18AGAL    O610686   6.718   4.319  11.312
   18AGAL   HO610687   6.710   4.314  11.408
   19ARHM    C110688   6.967   3.916  11.800
   19ARHM    H110689   6.885   3.986  11.826
   19ARHM    C510690   7.206   3.897  11.807
   19ARHM    H510691   7.209   3.870  11.700
   19ARHM    O510692   7.091   3.980  11.832
   19ARHM    C210693   6.952   3.790  11.883
   19ARHM    H210694   6.863   3.735  11.845
   19ARHM    O210695   6.934   3.815  12.023
   19ARHM    C310696   7.069   3.698  11.860
   19ARHM    H310697   7.071   3.670  11.752
   19ARHM    O310698   7.053   3.578  11.936
   19ARHM   HO310699   7.065   3.600  12.029
   19ARHM    C410700   7.198   3.771  11.894
   19ARHM    H410701   7.195   3.803  11.999
   19ARHM    O410702   7.313   3.689  11.875
   19ARHM   HO410703   7.311   3.652  11.787
   19ARHM    C610704   7.328   3.985  11.840
   19ARHM   H6110705   7.325   4.078  11.779
   19ARHM   H6210706   7.326   4.016  11.947
   19ARHM   H6310707   7.422   3.931  11.819
   20ARHM    C110708   6.802   3.850  12.058
   20ARHM    H110709   6.731   3.821  11.977
   20ARHM    C510710   6.861   4.043  12.186
   20ARHM    H510711   6.968   4.025  12.168
   20ARHM    O510712   6.784   3.991  12.078
   20ARHM    C210713   6.765   3.776  12.184
   20ARHM    H210714   6.794   3.669  12.172
   20ARHM    O210715   6.624   3.781  12.211
   20ARHM    C310716   6.844   3.826  12.302
   20ARHM    H310717   6.952   3.806  12.286
   20ARHM    O310718   6.798   3.752  12.418
   20ARHM    C410719   6.820   3.974  12.318
   20ARHM    H410720   6.712   3.992  12.335
   20ARHM    O410721   6.892   4.029  12.427
   20ARHM   HO410722   6.859   4.117  12.446
   20ARHM    C610723   6.837   4.195  12.186
   20ARHM   H6110724   6.730   4.217  12.207
   20ARHM   H6210725   6.899   4.245  12.263
   20ARHM   H6310726   6.863   4.237  12.086
   21BMANN   C110727   6.546   3.701  12.127
   21BMANN   H110728   6.609   3.632  12.068
   21BMANN   C510729   6.388   3.705  11.949
   21BMANN   H510730   6.453   3.637  11.890
   21BMANN   O510731   6.469   3.783  12.038
   21BMANN   C210732   6.454   3.621  12.217
   21BMANN   H210733   6.520   3.552  12.273
   21BMANN    N10734   6.383   3.702  12.314
   21BMANN   HN10735   6.376   3.800  12.295
   21BMANN    C10736   6.335   3.654  12.429
   21BMANN    O10737   6.337   3.534  12.457
   21BMANN   CT10738   6.278   3.754  12.526
   21BMANN  HT110739   6.174   3.780  12.495
   21BMANN  HT210740   6.340   3.846  12.526
   21BMANN  HT310741   6.276   3.710  12.627
   21BMANN   C310742   6.366   3.534  12.127
   21BMANN   H310743   6.433   3.467  12.068
   21BMANN   O310744   6.280   3.451  12.203
   21BMANN  HO310745   6.299   3.465  12.297
   21BMANN   C410746   6.290   3.622  12.030
   21BMANN   H410747   6.224   3.691  12.086
   21BMANN   O410748   6.208   3.544  11.943
   21BMANN  HO410749   6.227   3.451  11.958
   21BMANN   C610750   6.320   3.799  11.852
   21BMANN  H6110751   6.257   3.742  11.780
   21BMANN  H6210752   6.253   3.868  11.908
   21BMANN   O610753   6.416   3.875  11.777
   21BMANN  HO610754   6.457   3.937  11.839
   22BGLCN   C110755   6.890   3.727  12.519
   22BGLCN   H110756   6.975   3.799  12.516
   22BGLCN   C510757   7.026   3.560  12.623
   22BGLCN   H510758   7.113   3.629  12.620
   22BGLCN   O510759   6.937   3.592  12.513
   22BGLCN   C210760   6.810   3.745  12.647
   22BGLCN   H210761   6.731   3.668  12.647
   22BGLCN    N10762   6.744   3.875  12.651
   22BGLCN   HN10763   6.785   3.946  12.593
   22BGLCN    C10764   6.629   3.901  12.715
   22BGLCN    O10765   6.564   3.817  12.776
   22BGLCN   CT10766   6.583   4.044  12.714
   22BGLCN  HT110767   6.517   4.061  12.627
   22BGLCN  HT210768   6.670   4.113  12.710
   22BGLCN  HT310769   6.525   4.065  12.807
   22BGLCN   C310770   6.901   3.720  12.766
   22BGLCN   H310771   6.987   3.790  12.759
   22BGLCN   O310772   6.828   3.748  12.887
   22BGLCN   C410773   6.954   3.578  12.755
   22BGLCN   H410774   6.868   3.507  12.759
   22BGLCN   O410775   7.043   3.545  12.860
   22BGLCN  HO410776   6.995   3.511  12.936
   22BGLCN   C610777   7.077   3.418  12.602
   22BGLCN  H6110778   7.121   3.379  12.697
   22BGLCN  H6210779   6.993   3.350  12.575
   22BGLCN   O610780   7.180   3.409  12.503
   22BGLCN  HO610781   7.140   3.381  12.420
   23AGAL    C110782   6.902   3.774  13.002
   23AGAL    H110783   6.953   3.682  13.037
   23AGAL    C510784   6.944   4.003  12.950
   23AGAL    H510785   6.879   3.989  12.860
   23AGAL    O510786   7.002   3.875  12.984
   23AGAL    C210787   6.809   3.817  13.116
   23AGAL    H210788   6.867   3.824  13.210
   23AGAL    O210789   6.702   3.722  13.131
   23AGAL    C310790   6.747   3.952  13.086
   23AGAL    H310791   6.685   3.943  12.995
   23AGAL    O310792   6.662   3.994  13.193
   23AGAL   HO310793   6.721   4.016  13.266
   23AGAL    C410794   6.857   4.054  13.064
   23AGAL    H410795   6.811   4.150  13.033
   23AGAL    O410796   6.934   4.078  13.182
   23AGAL   HO410797   7.019   4.113  13.154
   23AGAL    C610798   7.055   4.097  12.905
   23AGAL   H6110799   7.105   4.055  12.815
   23AGAL   H6210800   7.012   4.195  12.877
   23AGAL    O610801   7.154   4.117  13.006
   23AGAL   HO610802   7.201   4.034  13.019
   24ARHM    C110803   6.729   3.608  13.207
   24ARHM    H110804   6.839   3.595  13.218
   24ARHM    C510805   6.539   3.491  13.125
   24ARHM    H510806   6.513   3.578  13.061
   24ARHM    O510807   6.680   3.488  13.145
   24ARHM    C210808   6.665   3.631  13.342
   24ARHM    H210809   6.698   3.730  13.380
   24ARHM    O210810   6.701   3.530  13.439
   24ARHM    C310811   6.514   3.636  13.325
   24ARHM    H310812   6.490   3.720  13.256
   24ARHM    O310813   6.448   3.661  13.450
   24ARHM   HO310814   6.390   3.737  13.441
   24ARHM    C410815   6.468   3.507  13.260
   24ARHM    H410816   6.498   3.422  13.325
   24ARHM    O410817   6.326   3.501  13.245
   24ARHM   HO410818   6.288   3.523  13.329
   24ARHM    C610819   6.502   3.363  13.048
   24ARHM   H6110820   6.394   3.365  13.019
   24ARHM   H6210821   6.562   3.357  12.956
   24ARHM   H6310822   6.522   3.273  13.110
   25ARHM    C110823   6.830   3.546  13.495
   25ARHM    H110824   6.895   3.601  13.423
   25ARHM    C510825   6.830   3.342  13.614
   25ARHM    H510826   6.725   3.325  13.582
   25ARHM    O510827   6.897   3.421  13.516
   25ARHM    C210828   6.823   3.626  13.621
   25ARHM    H210829   6.759   3.716  13.603
   25ARHM    O210830   6.952   3.668  13.665
   25ARHM    C310831   6.755   3.546  13.729
   25ARHM    H310832   6.651   3.525  13.697
   25ARHM    O310833   6.754   3.626  13.849
   25ARHM    C410834   6.830   3.415  13.748
   25ARHM    H410835   6.935   3.438  13.776
   25ARHM    O410836   6.773   3.336  13.852
   25ARHM   HO410837   6.828   3.259  13.868
   25ARHM    C610838   6.901   3.205  13.616
   25ARHM   H6110839   6.905   3.165  13.512
   25ARHM   H6210840   7.005   3.216  13.654
   25ARHM   H6310841   6.845   3.133  13.679
   26BMANN   C110842   7.000   3.789  13.610
   26BMANN   H110843   6.917   3.855  13.578
   26BMANN   C510844   7.149   3.888  13.453
   26BMANN   H510845   7.066   3.952  13.415
   26BMANN   O510846   7.093   3.766  13.503
   26BMANN   C210847   7.077   3.851  13.724
   26BMANN   H210848   7.004   3.868  13.805
   26BMANN    N10849   7.178   3.758  13.773
   26BMANN   HN10850   7.207   3.691  13.704
   26BMANN    C10851   7.224   3.752  13.898
   26BMANN    O10852   7.190   3.831  13.985
   26BMANN   CT10853   7.323   3.642  13.925
   26BMANN  HT110854   7.318   3.565  13.845
   26BMANN  HT210855   7.300   3.595  14.023
   26BMANN  HT310856   7.426   3.685  13.927
   26BMANN   C310857   7.131   3.986  13.679
   26BMANN   H310858   7.046   4.049  13.644
   26BMANN   O310859   7.192   4.052  13.790
   26BMANN  HO310860   7.148   4.025  13.870
   26BMANN   C410861   7.225   3.963  13.562
   26BMANN   H410862   7.311   3.901  13.596
   26BMANN   O410863   7.277   4.085  13.509
   26BMANN  HO410864   7.372   4.077  13.499
   26BMANN   C610865   7.237   3.853  13.333
   26BMANN  H6110866   7.183   3.782  13.267
   26BMANN  H6210867   7.257   3.945  13.273
   26BMANN   O610868   7.363   3.795  13.371
   26BMANN  HO610869   7.427   3.864  13.391
   27BGLCN   C110870   6.641   3.609  13.929
   27BGLCN   H110871   6.604   3.504  13.925
   27BGLCN   C510872   6.423   3.689  13.975
   27BGLCN   H510873   6.391   3.583  13.978
   27BGLCN   O510874   6.539   3.700  13.891
   27BGLCN   C210875   6.688   3.643  14.069
   27BGLCN   H210876   6.720   3.750  14.068
   27BGLCN    N10877   6.803   3.562  14.107
   27BGLCN   HN10878   6.806   3.470  14.068
   27BGLCN    C10879   6.906   3.606  14.179
   27BGLCN    O10880   6.915   3.722  14.221
   27BGLCN   CT10881   7.015   3.506  14.207
   27BGLCN  HT110882   7.006   3.419  14.140
   27BGLCN  HT210883   7.009   3.472  14.314
   27BGLCN  HT310884   7.114   3.554  14.191
   27BGLCN   C310885   6.571   3.633  14.166
   27BGLCN   H310886   6.531   3.529  14.156
   27BGLCN   O310887   6.621   3.651  14.300
   27BGLCN   C410888   6.463   3.728  14.117
   27BGLCN   H410889   6.505   3.831  14.116
   27BGLCN   O410890   6.348   3.734  14.201
   27BGLCN  HO410891   6.308   3.647  14.208
   27BGLCN   C610892   6.309   3.767  13.911
   27BGLCN  H6110893   6.223   3.772  13.981
   27BGLCN  H6210894   6.342   3.870  13.888
   27BGLCN   O610895   6.266   3.701  13.793
   27BGLCN  HO610896   6.186   3.742  13.759
   28AGAL    C110897   6.538   3.611  14.407
   28AGAL    H110898   6.457   3.686  14.420
   28AGAL    C510899   6.572   3.373  14.382
   28AGAL    H510900   6.645   3.390  14.300
   28AGAL    O510901   6.477   3.482  14.384
   28AGAL    C210902   6.613   3.604  14.540
   28AGAL    H210903   6.535   3.569  14.611
   28AGAL    O210904   6.664   3.730  14.591
   28AGAL    C310905   6.721   3.498  14.534
   28AGAL    H310906   6.786   3.519  14.446
   28AGAL    O310907   6.806   3.497  14.649
   28AGAL   HO310908   6.878   3.557  14.633
   28AGAL    C410909   6.653   3.364  14.511
   28AGAL    H410910   6.732   3.287  14.496
   28AGAL    O410911   6.575   3.323  14.623
   28AGAL   HO410912   6.625   3.259  14.674
   28AGAL    C610913   6.495   3.246  14.348
   28AGAL   H6110914   6.462   3.250  14.242
   28AGAL   H6210915   6.559   3.156  14.360
   28AGAL    O610916   6.378   3.231  14.430
   28AGAL   HO610917   6.363   3.317  14.471
   29ARHM    C110918   6.633   3.745  14.728
   29ARHM    H110919   6.635   3.645  14.776
   29ARHM    C510920   6.493   3.936  14.697
   29ARHM    H510921   6.517   3.937  14.588
   29ARHM    O510922   6.503   3.802  14.746
   29ARHM    C210923   6.735   3.830  14.802
   29ARHM    H210924   6.836   3.788  14.783
   29ARHM    O210925   6.708   3.832  14.944
   29ARHM    C310926   6.732   3.972  14.753
   29ARHM    H310927   6.756   3.973  14.645
   29ARHM    O310928   6.831   4.051  14.820
   29ARHM   HO310929   6.794   4.081  14.903
   29ARHM    C410930   6.591   4.025  14.773
   29ARHM    H410931   6.564   4.014  14.880
   29ARHM    O410932   6.576   4.163  14.741
   29ARHM   HO410933   6.576   4.174  14.645
   29ARHM    C610934   6.346   3.978  14.714
   29ARHM   H6110935   6.279   3.907  14.660
   29ARHM   H6210936   6.318   3.976  14.822
   29ARHM   H6310937   6.328   4.080  14.675
   30ARHM    C110938   6.782   3.740  15.021
   30ARHM    H110939   6.890   3.751  14.997
   30ARHM    C510940   6.603   3.583  15.027
   30ARHM    H510941   6.539   3.654  14.971
   30ARHM    O510942   6.741   3.605  14.995
   30ARHM    C210943   6.761   3.771  15.168
   30ARHM    H210944   6.787   3.877  15.187
   30ARHM    O210945   6.842   3.684  15.249
   30ARHM    C310946   6.616   3.748  15.209
   30ARHM    H310947   6.554   3.815  15.145
   30ARHM    O310948   6.594   3.791  15.345
   30ARHM    C410949   6.578   3.605  15.175
   30ARHM    H410950   6.641   3.533  15.233
   30ARHM    O410951   6.441   3.577  15.203
   30ARHM   HO410952   6.425   3.485  15.178
   30ARHM    C610953   6.571   3.441  14.978
   30ARHM   H6110954   6.464   3.417  14.991
   30ARHM   H6210955   6.595   3.433  14.869
   30ARHM   H6310956   6.633   3.366  15.032
   31BMANN   C110957   6.971   3.728  15.282
   31BMANN   H110958   6.970   3.835  15.314
   31BMANN   C510959   7.196   3.737  15.204
   31BMANN   H510960   7.204   3.840  15.246
   31BMANN   O510961   7.059   3.708  15.172
   31BMANN   C210962   7.011   3.637  15.396
   31BMANN   H210963   6.948   3.667  15.483
   31BMANN    N10964   6.982   3.496  15.369
   31BMANN   HN10965   6.973   3.471  15.272
   31BMANN    C10966   6.962   3.404  15.464
   31BMANN    O10967   6.969   3.433  15.583
   31BMANN   CT10968   6.932   3.264  15.419
   31BMANN  HT110969   7.018   3.222  15.364
   31BMANN  HT210970   6.842   3.263  15.354
   31BMANN  HT310971   6.913   3.200  15.508
   31BMANN   C310972   7.155   3.665  15.433
   31BMANN   H310973   7.164   3.773  15.458
   31BMANN   O310974   7.194   3.596  15.551
   31BMANN  HO310975   7.133   3.525  15.568
   31BMANN   C410976   7.243   3.640  15.311
   31BMANN   H410977   7.226   3.537  15.275
   31BMANN   O410978   7.382   3.652  15.337
   31BMANN  HO410979   7.402   3.730  15.389
   31BMANN   C610980   7.273   3.738  15.074
   31BMANN  H6110981   7.382   3.751  15.094
   31BMANN  H6210982   7.259   3.642  15.020
   31BMANN   O610983   7.229   3.846  14.991
   31BMANN  HO610984   7.298   3.876  14.931
   32BGLCN   C110985   6.623   3.701  15.449
   32BGLCN   H110986   6.716   3.643  15.426
   32BGLCN   C510987   6.549   3.510  15.572
   32BGLCN   H510988   6.640   3.455  15.540
   32BGLCN   O510989   6.517   3.609  15.472
   32BGLCN   C210990   6.644   3.778  15.578
   32BGLCN   H210991   6.543   3.813  15.608
   32BGLCN    N10992   6.730   3.894  15.562
   32BGLCN   HN10993   6.816   3.881  15.514
   32BGLCN    C10994   6.694   4.018  15.601
   32BGLCN    O10995   6.588   4.043  15.658
   32BGLCN   CT10996   6.792   4.128  15.570
   32BGLCN  HT110997   6.848   4.105  15.477
   32BGLCN  HT210998   6.864   4.141  15.655
   32BGLCN  HT310999   6.736   4.223  15.557
   32BGLCN   C311000   6.690   3.678  15.684
   32BGLCN   H311001   6.777   3.623  15.642
   32BGLCN   O311002   6.734   3.740  15.807
   32BGLCN   C411003   6.577   3.579  15.705
   32BGLCN   H411004   6.486   3.634  15.735
   32BGLCN   O411005   6.606   3.485  15.807
   32BGLCN  HO411006   6.624   3.534  15.887
   32BGLCN   C611007   6.434   3.412  15.571
   32BGLCN  H6111008   6.459   3.322  15.631
   32BGLCN  H6211009   6.344   3.460  15.615
   32BGLCN   O611010   6.404   3.370  15.437
   32BGLCN  HO611011   6.400   3.451  15.387
   33AGAL    C111012   6.856   3.686  15.856
   33AGAL    H111013   6.856   3.576  15.844
   33AGAL    C511014   6.988   3.881  15.807
   33AGAL    H511015   6.893   3.931  15.778
   33AGAL    O511016   6.970   3.740  15.786
   33AGAL    C211017   6.872   3.716  16.005
   33AGAL    H211018   6.965   3.665  16.038
   33AGAL    O211019   6.760   3.657  16.075
   33AGAL    C311020   6.888   3.865  16.030
   33AGAL    H311021   6.797   3.915  15.990
   33AGAL    O311022   6.894   3.898  16.169
   33AGAL   HO311023   6.972   3.951  16.187
   33AGAL    C411024   7.009   3.916  15.954
   33AGAL    H411025   7.010   4.027  15.962
   33AGAL    O411026   7.134   3.871  16.005
   33AGAL   HO411027   7.126   3.794  16.062
   33AGAL    C611028   7.094   3.935  15.711
   33AGAL   H6111029   7.053   3.934  15.608
   33AGAL   H6211030   7.117   4.041  15.737
   33AGAL    O611031   7.216   3.861  15.711
   33AGAL   HO611032   7.196   3.767  15.708
   34ARHM    C111033   6.795   3.599  16.198
   34ARHM    H111034   6.863   3.666  16.254
   34ARHM    C511035   6.780   3.375  16.112
   34ARHM    H511036   6.757   3.412  16.010
   34ARHM    O511037   6.860   3.472  16.181
   34ARHM    C211038   6.666   3.579  16.277
   34ARHM    H211039   6.614   3.678  16.281
   34ARHM    O211040   6.684   3.531  16.411
   34ARHM    C311041   6.575   3.481  16.205
   34ARHM    H311042   6.550   3.521  16.105
   34ARHM    O311043   6.453   3.463  16.278
   34ARHM   HO311044   6.378   3.492  16.226
   34ARHM    C411045   6.650   3.350  16.188
   34ARHM    H411046   6.677   3.311  16.289
   34ARHM    O411047   6.570   3.252  16.122
   34ARHM   HO411048   6.503   3.224  16.185
   34ARHM    C611049   6.869   3.251  16.099
   34ARHM   H6111050   6.898   3.213  16.200
   34ARHM   H6211051   6.817   3.170  16.044
   34ARHM   H6311052   6.962   3.277  16.044
   35ARHM    C111053   6.753   3.616  16.499
   35ARHM    H111054   6.722   3.721  16.482
   35ARHM    C511055   6.940   3.469  16.496
   35ARHM    H511056   6.885   3.402  16.427
   35ARHM    O511057   6.894   3.604  16.481
   35ARHM    C211058   6.717   3.571  16.639
   35ARHM    H211059   6.606   3.572  16.646
   35ARHM    O211060   6.768   3.655  16.744
   35ARHM    C311061   6.764   3.430  16.663
   35ARHM    H311062   6.713   3.361  16.592
   35ARHM    O311063   6.728   3.388  16.795
   35ARHM   HO311064   6.759   3.456  16.856
   35ARHM    C411065   6.913   3.423  16.639
   35ARHM    H411066   6.965   3.493  16.708
   35ARHM    O411067   6.966   3.292  16.662
   35ARHM   HO411068   6.908   3.246  16.723
   35ARHM    C611069   7.086   3.470  16.450
   35ARHM   H6111070   7.092   3.504  16.345
   35ARHM   H6211071   7.145   3.540  16.513
   35ARHM   H6311072   7.130   3.368  16.456
   36BMANN   C111073   6.723   3.788  16.743
   36BMANN   H111074   6.619   3.794  16.703
   36BMANN   C511075   6.773   4.009  16.668
   36BMANN   H511076   6.671   4.017  16.624
   36BMANN   O511077   6.813   3.871  16.668
   36BMANN   C211078   6.729   3.834  16.886
   36BMANN   H211079   6.659   3.770  16.944
   36BMANN    N11080   6.863   3.819  16.942
   36BMANN   HN11081   6.937   3.840  16.879
   36BMANN    C11082   6.890   3.789  17.069
   36BMANN    O11083   6.803   3.753  17.148
   36BMANN   CT11084   7.034   3.799  17.112
   36BMANN  HT111085   7.084   3.882  17.057
   36BMANN  HT211086   7.086   3.703  17.091
   36BMANN  HT311087   7.038   3.820  17.221
   36BMANN   C311088   6.678   3.977  16.892
   36BMANN   H311089   6.576   3.980  16.848
   36BMANN   O311090   6.666   4.020  17.027
   36BMANN  HO311091   6.591   4.079  17.037
   36BMANN   C411092   6.770   4.065  16.810
   36BMANN   H411093   6.872   4.063  16.854
   36BMANN   O411094   6.726   4.201  16.810
   36BMANN  HO411095   6.719   4.229  16.902
   36BMANN   C611096   6.868   4.082  16.575
   36BMANN  H6111097   6.882   4.022  16.482
   36BMANN  H6211098   6.824   4.179  16.546
   36BMANN   O611099   6.996   4.106  16.635
   36BMANN  HO611100   6.994   4.197  16.666
    1ECLIP HB6S11101   5.987   2.386   6.684
    1ECLIP  OB611102   6.138   2.472   6.799
    1ECLIP  CB611103   6.032   2.486   6.702
    1ECLIP HB6R11104   5.952   2.553   6.741
    1ECLIP  CB511105   6.079   2.542   6.569
    1ECLIP  OB511106   6.191   2.466   6.521
    1ECLIP  HB511107   6.110   2.647   6.587
    1ECLIP  CB111108   6.249   2.527   6.405
    1ECLIP  HB111109   6.277   2.631   6.429
    1ECLIP  OA611110   6.365   2.463   6.359
    1ECLIP  CA611111   6.371   2.322   6.384
    1ECLIP HA6R11112   6.270   2.279   6.400
    1ECLIP HA6S11113   6.434   2.304   6.472
    1ECLIP  CB411114   5.971   2.539   6.459
    1ECLIP  HB411115   5.951   2.433   6.432
    1ECLIP  OB411116   5.854   2.607   6.509
    1ECLIP   PB11117   5.718   2.521   6.544
    1ECLIP OPB411118   5.636   2.582   6.655
    1ECLIP OPB311119   5.757   2.379   6.582
    1ECLIP OPB211120   5.632   2.500   6.421
    1ECLIP  CB311121   6.029   2.607   6.337
    1ECLIP  OB311122   5.934   2.606   6.228
    1ECLIP  HB311123   6.064   2.708   6.365
    1ECLIP  C7111124   5.890   2.725   6.188
    1ECLIP  O7111125   5.932   2.832   6.227
    1ECLIP  C7211126   5.828   2.712   6.049
    1ECLIP H72R11127   5.910   2.693   5.976
    1ECLIP H72S11128   5.780   2.809   6.026
    1ECLIP  CB211129   6.150   2.528   6.289
    1ECLIP  HB211130   6.119   2.423   6.270
    1ECLIP  NB211131   6.209   2.581   6.165
    1ECLIP HNB211132   6.273   2.656   6.176
    1ECLIP  CA411133   6.549   2.332   6.204
    1ECLIP  HA411134   6.517   2.437   6.186
    1ECLIP  OA411135   6.655   2.330   6.300
    1ECLIP HOA411136   6.728   2.387   6.274
    1ECLIP  CA511137   6.432   2.255   6.262
    1ECLIP  HA511138   6.462   2.152   6.288
    1ECLIP  OA511139   6.327   2.253   6.165
    1ECLIP  CA111140   6.362   2.187   6.044
    1ECLIP  HA111141   6.272   2.199   5.979
    1ECLIP  OA111142   6.398   2.052   6.068
    1ECLIP OPA211143   6.307   1.846   6.194
    1ECLIP OPA311144   6.151   2.008   6.066
    1ECLIP OPA411145   6.295   1.872   5.938
    1ECLIP   PA11146   6.285   1.935   6.075
    1ECLIP  CA311147   6.592   2.271   6.073
    1ECLIP  HA311148   6.629   2.168   6.092
    1ECLIP  OA311149   6.703   2.351   6.028
    1ECLIP  C3111150   6.677   2.464   5.962
    1ECLIP  O3111151   6.645   2.465   5.844
    1ECLIP  C3211152   6.757   2.577   6.023
    1ECLIP H32R11153   6.830   2.606   5.944
    1ECLIP H32S11154   6.811   2.543   6.113
    1ECLIP  CA211155   6.474   2.263   5.976
    1ECLIP  HA211156   6.435   2.366   5.960
    1ECLIP  NA211157   6.516   2.214   5.845
    1ECLIP HNA211158   6.611   2.236   5.825
    1ECLIP  C7311159   5.725   2.599   6.044
    1ECLIP H73R11160   5.662   2.601   6.136
    1ECLIP  O7311161   5.797   2.476   6.030
    1ECLIP  C8111162   5.751   2.370   6.092
    1ECLIP  O8111163   5.646   2.359   6.155
    1ECLIP  C8211164   5.830   2.249   6.042
    1ECLIP H82R11165   5.777   2.158   6.078
    1ECLIP H82S11166   5.930   2.253   6.089
    1ECLIP  C8311167   5.844   2.244   5.888
    1ECLIP H83R11168   5.912   2.327   5.858
    1ECLIP H83S11169   5.746   2.262   5.839
    1ECLIP  C8411170   5.900   2.110   5.839
    1ECLIP H84R11171   5.815   2.039   5.830
    1ECLIP H84S11172   5.964   2.070   5.920
    1ECLIP  C8511173   5.970   2.125   5.703
    1ECLIP H85R11174   6.060   2.189   5.710
    1ECLIP H85S11175   5.899   2.183   5.641
    1ECLIP  C8611176   5.996   1.994   5.627
    1ECLIP H86R11177   5.897   1.952   5.599
    1ECLIP H86S11178   6.045   1.915   5.688
    1ECLIP  C8711179   6.076   2.015   5.497
    1ECLIP H87R11180   6.081   1.918   5.443
    1ECLIP H87S11181   6.180   2.046   5.518
    1ECLIP  C8811182   6.011   2.119   5.405
    1ECLIP H88R11183   6.016   2.219   5.454
    1ECLIP H88S11184   5.904   2.095   5.389
    1ECLIP  C8911185   6.078   2.135   5.267
    1ECLIP H89R11186   6.188   2.142   5.278
    1ECLIP H89S11187   6.043   2.232   5.226
    1ECLIP C81011188   6.041   2.025   5.167
    1ECLIPH810R11189   5.939   1.988   5.188
    1ECLIPH810S11190   6.110   1.939   5.181
    1ECLIP C81111191   6.049   2.073   5.020
    1ECLIPH811R11192   6.045   1.985   4.953
    1ECLIPH811S11193   6.147   2.123   5.005
    1ECLIP C81211194   5.937   2.170   4.978
    1ECLIPH812R11195   5.963   2.213   4.879
    1ECLIPH812S11196   5.931   2.255   5.050
    1ECLIP C81311197   5.799   2.105   4.967
    1ECLIPH813R11198   5.800   2.031   4.884
    1ECLIPH813S11199   5.776   2.049   5.061
    1ECLIP C81411200   5.687   2.207   4.944
    1ECLIPH814R11201   5.711   2.270   4.856
    1ECLIPH814S11202   5.677   2.274   5.032
    1ECLIPH814T11203   5.590   2.156   4.927
    1ECLIP  C7411204   5.632   2.612   5.921
    1ECLIP H74R11205   5.578   2.710   5.925
    1ECLIP H74S11206   5.555   2.532   5.931
    1ECLIP  C7511207   5.698   2.597   5.781
    1ECLIP H75R11208   5.622   2.549   5.715
    1ECLIP H75S11209   5.784   2.527   5.787
    1ECLIP  C7611210   5.740   2.728   5.712
    1ECLIP H76R11211   5.826   2.774   5.766
    1ECLIP H76S11212   5.656   2.799   5.716
    1ECLIP  C7711213   5.778   2.705   5.565
    1ECLIP H77R11214   5.696   2.648   5.516
    1ECLIP H77S11215   5.870   2.643   5.561
    1ECLIP  C7811216   5.800   2.835   5.485
    1ECLIP H78R11217   5.704   2.891   5.483
    1ECLIP H78S11218   5.874   2.898   5.538
    1ECLIP  C7911219   5.848   2.814   5.340
    1ECLIP H79R11220   5.952   2.776   5.341
    1ECLIP H79S11221   5.850   2.912   5.289
    1ECLIP C71011222   5.762   2.717   5.257
    1ECLIPH710R11223   5.762   2.617   5.306
    1ECLIPH710S11224   5.657   2.754   5.256
    1ECLIP C71111225   5.812   2.701   5.113
    1ECLIPH711R11226   5.811   2.800   5.063
    1ECLIPH711S11227   5.917   2.664   5.115
    1ECLIP C71211228   5.726   2.601   5.033
    1ECLIPH712R11229   5.624   2.643   5.023
    1ECLIPH712S11230   5.717   2.507   5.091
    1ECLIP C71311231   5.782   2.568   4.894
    1ECLIPH713R11232   5.881   2.518   4.906
    1ECLIPH713S11233   5.714   2.495   4.846
    1ECLIP C71411234   5.798   2.688   4.801
    1ECLIPH714R11235   5.701   2.741   4.792
    1ECLIPH714S11236   5.873   2.759   4.841
    1ECLIPH714T11237   5.831   2.654   4.701
    1ECLIP  C5111238   6.188   2.535   6.040
    1ECLIP  O5111239   6.122   2.435   6.014
    1ECLIP  C5211240   6.254   2.616   5.931
    1ECLIP H52R11241   6.205   2.715   5.922
    1ECLIP H52S11242   6.360   2.633   5.962
    1ECLIP  C5311243   6.253   2.545   5.794
    1ECLIP H53R11244   6.280   2.438   5.807
    1ECLIP  O5311245   6.351   2.616   5.717
    1ECLIP  C6111246   6.434   2.545   5.642
    1ECLIP  O6111247   6.421   2.427   5.615
    1ECLIP  C6211248   6.512   2.648   5.559
    1ECLIP H62R11249   6.572   2.710   5.629
    1ECLIP H62S11250   6.436   2.713   5.510
    1ECLIP  C6311251   6.605   2.589   5.450
    1ECLIP H63R11252   6.546   2.522   5.384
    1ECLIP H63S11253   6.684   2.528   5.499
    1ECLIP  C6411254   6.672   2.697   5.365
    1ECLIP H64R11255   6.736   2.646   5.289
    1ECLIP H64S11256   6.738   2.760   5.427
    1ECLIP  C6511257   6.570   2.788   5.292
    1ECLIP H65R11258   6.521   2.852   5.368
    1ECLIP H65S11259   6.491   2.725   5.247
    1ECLIP  C6611260   6.629   2.881   5.186
    1ECLIP H66R11261   6.698   2.954   5.233
    1ECLIP H66S11262   6.545   2.940   5.141
    1ECLIP  C6711263   6.703   2.810   5.070
    1ECLIP H67R11264   6.802   2.775   5.108
    1ECLIP H67S11265   6.722   2.884   4.990
    1ECLIP  C6811266   6.627   2.690   5.013
    1ECLIP H68R11267   6.523   2.720   4.987
    1ECLIP H68S11268   6.620   2.611   5.091
    1ECLIP  C6911269   6.696   2.631   4.891
    1ECLIP H69R11270   6.805   2.620   4.911
    1ECLIP H69S11271   6.685   2.703   4.806
    1ECLIP C61011272   6.639   2.494   4.852
    1ECLIPH610R11273   6.530   2.503   4.833
    1ECLIPH610S11274   6.653   2.425   4.938
    1ECLIP C61111275   6.708   2.434   4.729
    1ECLIPH611R11276   6.817   2.428   4.749
    1ECLIPH611S11277   6.671   2.330   4.716
    1ECLIP C61211278   6.683   2.514   4.601
    1ECLIPH612R11279   6.575   2.521   4.580
    1ECLIPH612S11280   6.722   2.618   4.611
    1ECLIPH612T11281   6.734   2.467   4.516
    1ECLIP  C5411282   6.116   2.556   5.723
    1ECLIP H54R11283   6.092   2.663   5.707
    1ECLIP H54S11284   6.039   2.516   5.793
    1ECLIP  C5511285   6.103   2.479   5.590
    1ECLIP H55R11286   5.997   2.448   5.577
    1ECLIP H55S11287   6.164   2.387   5.594
    1ECLIP  C5611288   6.142   2.561   5.466
    1ECLIP H56R11289   6.245   2.601   5.477
    1ECLIP H56S11290   6.075   2.649   5.457
    1ECLIP  C5711291   6.136   2.479   5.337
    1ECLIP H57R11292   6.031   2.446   5.319
    1ECLIP H57S11293   6.199   2.388   5.349
    1ECLIP  C5811294   6.185   2.556   5.214
    1ECLIP H58R11295   6.125   2.649   5.203
    1ECLIP H58S11296   6.291   2.587   5.228
    1ECLIP  C5911297   6.173   2.474   5.084
    1ECLIP H59R11298   6.069   2.436   5.076
    1ECLIP H59S11299   6.241   2.386   5.090
    1ECLIP C51011300   6.204   2.556   4.958
    1ECLIPH510R11301   6.306   2.600   4.966
    1ECLIPH510S11302   6.132   2.640   4.954
    1ECLIP C51111303   6.193   2.473   4.829
    1ECLIPH511R11304   6.284   2.410   4.818
    1ECLIPH511S11305   6.106   2.405   4.839
    1ECLIP C51211306   6.172   2.561   4.704
    1ECLIPH512R11307   6.159   2.495   4.616
    1ECLIPH512S11308   6.078   2.618   4.717
    1ECLIP C51311309   6.286   2.659   4.677
    1ECLIPH513R11310   6.378   2.602   4.653
    1ECLIPH513S11311   6.307   2.719   4.768
    1ECLIP C51411312   6.254   2.756   4.562
    1ECLIPH514R11313   6.170   2.823   4.591
    1ECLIPH514S11314   6.342   2.819   4.538
    1ECLIPH514T11315   6.224   2.700   4.471
    1ECLIP  C3311316   6.673   2.703   6.051
    1ECLIP H33R11317   6.737   2.780   6.101
    1ECLIP  O3311318   6.567   2.669   6.139
    1ECLIP HO3311319   6.590   2.678   6.233
    1ECLIP  C3411320   6.616   2.764   5.922
    1ECLIP H34R11321   6.551   2.689   5.872
    1ECLIP H34S11322   6.699   2.788   5.853
    1ECLIP  C3511323   6.531   2.891   5.943
    1ECLIP H35R11324   6.595   2.976   5.974
    1ECLIP H35S11325   6.457   2.873   6.023
    1ECLIP  C3611326   6.455   2.927   5.814
    1ECLIP H36R11327   6.416   2.832   5.771
    1ECLIP H36S11328   6.525   2.971   5.740
    1ECLIP  C3711329   6.334   3.019   5.835
    1ECLIP H37R11330   6.371   3.123   5.845
    1ECLIP H37S11331   6.283   2.993   5.931
    1ECLIP  C3811332   6.231   3.008   5.721
    1ECLIP H38R11333   6.169   2.918   5.737
    1ECLIP H38S11334   6.164   3.097   5.726
    1ECLIP  C3911335   6.294   2.998   5.582
    1ECLIP H39R11336   6.346   2.900   5.571
    1ECLIP H39S11337   6.371   3.078   5.570
    1ECLIP C31011338   6.193   3.011   5.465
    1ECLIPH310R11339   6.149   3.113   5.467
    1ECLIPH310S11340   6.111   2.938   5.480
    1ECLIP C31111341   6.260   2.986   5.329
    1ECLIPH311R11342   6.347   3.054   5.318
    1ECLIPH311S11343   6.299   2.882   5.329
    1ECLIP C31211344   6.165   3.004   5.210
    1ECLIPH312R11345   6.076   2.940   5.226
    1ECLIPH312S11346   6.132   3.110   5.207
    1ECLIP C31311347   6.231   2.965   5.077
    1ECLIPH313R11348   6.318   3.032   5.059
    1ECLIPH313S11349   6.269   2.861   5.085
    1ECLIP C31411350   6.135   2.975   4.957
    1ECLIPH314R11351   6.099   3.079   4.946
    1ECLIPH314S11352   6.186   2.944   4.865
    1ECLIPH314T11353   6.048   2.908   4.973
    1ECLIP  C1111354   6.448   2.142   5.753
    1ECLIP  O1111355   6.325   2.129   5.753
    1ECLIP  C1211356   6.532   2.068   5.651
    1ECLIP H12R11357   6.511   1.960   5.667
    1ECLIP H12S11358   6.640   2.083   5.674
    1ECLIP  C1311359   6.502   2.108   5.505
    1ECLIP H13R11360   6.400   2.152   5.497
    1ECLIP  O1311361   6.504   1.989   5.427
    1ECLIP HO1311362   6.495   2.006   5.333
    1ECLIP  C1411363   6.606   2.205   5.444
    1ECLIP H14R11364   6.706   2.177   5.484
    1ECLIP H14S11365   6.583   2.308   5.481
    1ECLIP  C1511366   6.618   2.207   5.290
    1ECLIP H15R11367   6.659   2.108   5.259
    1ECLIP H15S11368   6.694   2.282   5.261
    1ECLIP  C1611369   6.488   2.236   5.212
    1ECLIP H16R11370   6.472   2.346   5.212
    1ECLIP H16S11371   6.401   2.192   5.264
    1ECLIP  C1711372   6.490   2.183   5.068
    1ECLIP H17R11373   6.582   2.218   5.016
    1ECLIP H17S11374   6.403   2.225   5.013
    1ECLIP  C1811375   6.482   2.029   5.058
    1ECLIP H18R11376   6.571   1.986   5.110
    1ECLIP H18S11377   6.392   1.993   5.112
    1ECLIP  C1911378   6.481   1.972   4.915
    1ECLIP H19R11379   6.503   1.863   4.921
    1ECLIP H19S11380   6.562   2.019   4.855
    1ECLIP C11011381   6.346   1.989   4.844
    1ECLIPH110R11382   6.265   1.954   4.911
    1ECLIPH110S11383   6.330   2.096   4.822
    1ECLIP C11111384   6.336   1.908   4.714
    1ECLIPH111R11385   6.432   1.919   4.658
    1ECLIPH111S11386   6.324   1.800   4.736
    1ECLIP C11211387   6.221   1.953   4.622
    1ECLIPH112R11388   6.124   1.924   4.667
    1ECLIPH112S11389   6.222   2.064   4.615
    1ECLIP C11311390   6.233   1.897   4.479
    1ECLIPH113R11391   6.334   1.921   4.440
    1ECLIPH113S11392   6.225   1.786   4.484
    1ECLIP C11411393   6.128   1.953   4.382
    1ECLIPH114R11394   6.026   1.927   4.417
    1ECLIPH114S11395   6.136   2.063   4.377
    1ECLIPH114T11396   6.143   1.911   4.280
    2AKDO    C111397   6.141   2.706   6.870
    2AKDO   O1111398   6.044   2.784   6.889
    2AKDO   O1211399   6.259   2.740   6.837
    2AKDO    C211400   6.123   2.557   6.913
    2AKDO    C611401   5.966   2.406   7.016
    2AKDO    H611402   5.980   2.341   6.925
    2AKDO    O611403   5.995   2.541   6.977
    2AKDO    C311404   6.228   2.506   7.013
    2AKDO   H3111405   6.226   2.572   7.102
    2AKDO   H3211406   6.328   2.514   6.966
    2AKDO    C411407   6.202   2.364   7.056
    2AKDO    H411408   6.201   2.301   6.964
    2AKDO    O411409   6.303   2.317   7.145
    2AKDO    C511410   6.064   2.351   7.120
    2AKDO    H511411   6.045   2.242   7.130
    2AKDO    O511412   6.062   2.412   7.252
    2AKDO    C711413   5.816   2.404   7.040
    2AKDO    H711414   5.790   2.472   7.124
    2AKDO    O711415   5.770   2.271   7.068
    2AKDO   HO711416   5.683   2.270   7.028
    2AKDO    C811417   5.748   2.453   6.912
    2AKDO   H8111418   5.783   2.556   6.889
    2AKDO   H8211419   5.781   2.389   6.827
    2AKDO    O811420   5.605   2.458   6.910
    2AKDO   HO811421   5.592   2.509   6.830
    3AKDO    C111422   6.405   2.152   6.988
    3AKDO   O1111423   6.448   2.173   6.872
    3AKDO   O1211424   6.324   2.059   7.016
    3AKDO    C211425   6.425   2.262   7.098
    3AKDO    C611426   6.547   2.465   7.153
    3AKDO    H611427   6.451   2.516   7.175
    3AKDO    O611428   6.522   2.361   7.056
    3AKDO    C311429   6.476   2.200   7.228
    3AKDO   H3111430   6.570   2.145   7.207
    3AKDO   H3211431   6.402   2.125   7.263
    3AKDO    C411432   6.499   2.302   7.335
    3AKDO    H411433   6.405   2.356   7.358
    3AKDO    O411434   6.541   2.237   7.454
    3AKDO   HO411435   6.465   2.216   7.509
    3AKDO    C511436   6.600   2.403   7.282
    3AKDO    H511437   6.610   2.485   7.358
    3AKDO    O511438   6.730   2.347   7.261
    3AKDO   HO511439   6.735   2.328   7.167
    3AKDO    C711440   6.642   2.569   7.095
    3AKDO    H711441   6.743   2.525   7.080
    3AKDO    O711442   6.654   2.681   7.183
    3AKDO   HO711443   6.648   2.754   7.122
    3AKDO    C811444   6.595   2.621   6.960
    3AKDO   H8111445   6.581   2.536   6.891
    3AKDO   H8211446   6.497   2.672   6.970
    3AKDO    O811447   6.691   2.713   6.906
    3AKDO   HO811448   6.730   2.674   6.827
    4AHEP    C111449   5.976   2.348   7.345
    4AHEP    H111450   5.872   2.360   7.307
    4AHEP    C511451   6.128   2.176   7.417
    4AHEP    H511452   6.204   2.227   7.354
    4AHEP    O511453   5.999   2.207   7.359
    4AHEP    C211454   5.981   2.412   7.484
    4AHEP    H211455   5.975   2.522   7.469
    4AHEP    O211456   5.871   2.377   7.568
    4AHEP   HO211457   5.912   2.377   7.655
    4AHEP    C311458   6.112   2.382   7.554
    4AHEP    H311459   6.195   2.436   7.502
    4AHEP    O311460   6.100   2.422   7.691
    4AHEP    C411461   6.136   2.233   7.558
    4AHEP    H411462   6.056   2.186   7.620
    4AHEP    O411463   6.267   2.211   7.611
    4AHEP    P411464   6.296   2.105   7.734
    4AHEP  OP4211465   6.425   2.152   7.800
    4AHEP  OP4311466   6.312   1.969   7.667
    4AHEP  OP4411467   6.178   2.107   7.827
    4AHEP    C611468   6.159   2.025   7.405
    4AHEP    H611469   6.268   2.012   7.418
    4AHEP    O611470   6.095   1.952   7.511
    4AHEP   HO611471   6.159   1.963   7.582
    4AHEP    C711472   6.120   1.965   7.270
    4AHEP   H7111473   6.146   1.857   7.267
    4AHEP   H7211474   6.181   2.016   7.193
    4AHEP    O711475   5.982   1.981   7.236
    4AHEP   HO711476   5.959   2.062   7.282
    5AHEP    C111477   6.209   2.488   7.750
    5AHEP    H111478   6.303   2.461   7.698
    5AHEP    C511479   6.068   2.673   7.809
    5AHEP    H511480   5.981   2.624   7.760
    5AHEP    O511481   6.190   2.630   7.747
    5AHEP    C211482   6.220   2.447   7.898
    5AHEP    H211483   6.225   2.336   7.901
    5AHEP    O211484   6.342   2.495   7.957
    5AHEP   HO211485   6.411   2.435   7.929
    5AHEP    C311486   6.094   2.486   7.971
    5AHEP    H311487   6.009   2.430   7.929
    5AHEP    O311488   6.104   2.462   8.112
    5AHEP    C411489   6.071   2.634   7.957
    5AHEP    H411490   6.151   2.689   8.010
    5AHEP    O411491   5.939   2.660   8.006
    5AHEP    P411492   5.914   2.763   8.132
    5AHEP  OP4211493   5.762   2.770   8.143
    5AHEP  OP4311494   5.981   2.893   8.089
    5AHEP  OP4411495   5.978   2.697   8.252
    5AHEP    C611496   6.055   2.825   7.788
    5AHEP    H611497   5.964   2.860   7.841
    5AHEP    O611498   6.169   2.890   7.846
    5AHEP   HO611499   6.146   2.881   7.938
    5AHEP    C711500   6.038   2.860   7.641
    5AHEP   H7111501   5.969   2.947   7.637
    5AHEP   H7211502   5.985   2.779   7.585
    5AHEP    O711503   6.158   2.900   7.573
    6AHEP    C111504   6.222   2.793   7.506
    6AHEP    H111505   6.170   2.697   7.526
    6AHEP    C511506   6.283   2.930   7.319
    6AHEP    H511507   6.232   3.017   7.365
    6AHEP    O511508   6.219   2.809   7.365
    6AHEP    C211509   6.366   2.783   7.554
    6AHEP    H211510   6.365   2.773   7.664
    6AHEP    O211511   6.432   2.668   7.499
    6AHEP   HO211512   6.410   2.665   7.406
    6AHEP    C311513   6.437   2.912   7.518
    6AHEP    H311514   6.381   2.997   7.563
    6AHEP    O311515   6.572   2.920   7.569
    6AHEP   HO311516   6.625   2.901   7.491
    6AHEP    C411517   6.429   2.927   7.367
    6AHEP    H411518   6.478   2.841   7.318
    6AHEP    O411519   6.501   3.042   7.326
    6AHEP   HO411520   6.457   3.121   7.358
    6AHEP    C611521   6.270   2.945   7.167
    6AHEP    H611522   6.331   3.033   7.134
    6AHEP    O611523   6.325   2.829   7.101
    6AHEP   HO611524   6.277   2.814   7.020
    6AHEP    C711525   6.127   2.972   7.120
    6AHEP   H7111526   6.128   2.994   7.011
    6AHEP   H7211527   6.090   3.064   7.170
    6AHEP    O711528   6.032   2.867   7.144
    6AHEP   HO711529   6.036   2.813   7.065
    7AGLC    C111530   6.040   2.348   8.164
    7AGLC    H111531   5.942   2.332   8.115
    7AGLC    C511532   6.254   2.252   8.207
    7AGLC    H511533   6.300   2.343   8.162
    7AGLC    O511534   6.124   2.233   8.149
    7AGLC    C211535   6.021   2.369   8.314
    7AGLC    H211536   5.982   2.273   8.354
    7AGLC    O211537   5.918   2.463   8.342
    7AGLC   HO211538   5.942   2.549   8.307
    7AGLC    C311539   6.152   2.398   8.384
    7AGLC    H311540   6.197   2.488   8.337
    7AGLC    O311541   6.137   2.421   8.528
    7AGLC    C411542   6.240   2.276   8.358
    7AGLC    H411543   6.187   2.187   8.398
    7AGLC    O411544   6.367   2.282   8.421
    7AGLC   HO411545   6.356   2.258   8.513
    7AGLC    C611546   6.341   2.135   8.163
    7AGLC   H6111547   6.307   2.099   8.064
    7AGLC   H6211548   6.445   2.170   8.150
    7AGLC    O611549   6.341   2.026   8.257
    7AGLC   HO611550   6.375   2.063   8.339
    8AGLC    C111551   6.182   2.547   8.576
    8AGLC    H111552   6.277   2.576   8.525
    8AGLC    C511553   5.960   2.632   8.615
    8AGLC    H511554   5.918   2.537   8.575
    8AGLC    O511555   6.089   2.654   8.556
    8AGLC    C211556   6.203   2.539   8.727
    8AGLC    H211557   6.241   2.638   8.760
    8AGLC    O211558   6.295   2.438   8.768
    8AGLC    C311559   6.072   2.511   8.799
    8AGLC    H311560   6.032   2.415   8.759
    8AGLC    O311561   6.103   2.490   8.938
    8AGLC    C411562   5.974   2.621   8.766
    8AGLC    H411563   6.013   2.717   8.806
    8AGLC    O411564   5.847   2.594   8.826
    8AGLC   HO411565   5.792   2.546   8.764
    8AGLC    C611566   5.869   2.746   8.568
    8AGLC   H6111567   5.902   2.781   8.469
    8AGLC   H6211568   5.765   2.708   8.556
    8AGLC    O611569   5.867   2.857   8.660
    8AGLC   HO611570   5.815   2.833   8.736
    9AGAL    C111571   6.424   2.439   8.714
    9AGAL    H111572   6.421   2.441   8.602
    9AGAL    C511573   6.518   2.555   8.900
    9AGAL    H511574   6.416   2.559   8.944
    9AGAL    O511575   6.503   2.550   8.757
    9AGAL    C211576   6.485   2.307   8.759
    9AGAL    H211577   6.586   2.299   8.714
    9AGAL    O211578   6.401   2.205   8.700
    9AGAL    C311579   6.501   2.310   8.912
    9AGAL    H311580   6.400   2.325   8.957
    9AGAL    O311581   6.552   2.189   8.969
    9AGAL   HO311582   6.479   2.126   8.964
    9AGAL    C411583   6.587   2.429   8.951
    9AGAL    H411584   6.593   2.435   9.061
    9AGAL    O411585   6.721   2.419   8.901
    9AGAL   HO411586   6.749   2.509   8.881
    9AGAL    C611587   6.585   2.686   8.938
    9AGAL   H6111588   6.523   2.771   8.903
    9AGAL   H6211589   6.593   2.694   9.049
    9AGAL    O611590   6.717   2.698   8.882
    9AGAL   HO611591   6.710   2.712   8.787
   10AGAL    C111592   6.398   2.075   8.753
   10AGAL    H111593   6.503   2.038   8.766
   10AGAL    C511594   6.192   2.114   8.870
   10AGAL    H511595   6.190   2.214   8.819
   10AGAL    O511596   6.330   2.073   8.880
   10AGAL    C211597   6.326   1.980   8.660
   10AGAL    H211598   6.330   1.879   8.704
   10AGAL    O211599   6.390   1.971   8.532
   10AGAL   HO211600   6.328   1.928   8.474
   10AGAL    C311601   6.179   2.018   8.643
   10AGAL    H311602   6.174   2.122   8.605
   10AGAL    O311603   6.112   1.934   8.549
   10AGAL   HO311604   6.023   1.967   8.535
   10AGAL    C411605   6.114   2.017   8.780
   10AGAL    H411606   6.009   2.053   8.773
   10AGAL    O411607   6.112   1.887   8.839
   10AGAL   HO411608   6.132   1.898   8.932
   10AGAL    C611609   6.134   2.138   9.009
   10AGAL   H6111610   6.201   2.207   9.063
   10AGAL   H6211611   6.036   2.190   8.998
   10AGAL    O611612   6.116   2.019   9.085
   10AGAL   HO611613   6.023   2.002   9.097
   11BGLC    C111614   6.086   2.594   9.033
   11BGLC    H111615   5.978   2.611   9.051
   11BGLC    C511616   6.140   2.820   9.094
   11BGLC    H511617   6.033   2.833   9.120
   11BGLC    O511618   6.151   2.716   8.995
   11BGLC    C211619   6.154   2.543   9.160
   11BGLC    H211620   6.261   2.526   9.134
   11BGLC    O211621   6.102   2.418   9.207
   11BGLC   HO211622   6.008   2.426   9.221
   11BGLC    C311623   6.150   2.647   9.271
   11BGLC    H311624   6.044   2.666   9.297
   11BGLC    O311625   6.226   2.604   9.386
   11BGLC    C411626   6.213   2.774   9.220
   11BGLC    H411627   6.319   2.754   9.193
   11BGLC    O411628   6.215   2.875   9.321
   11BGLC   HO411629   6.127   2.881   9.361
   11BGLC    C611630   6.193   2.950   9.035
   11BGLC   H6111631   6.242   3.011   9.113
   11BGLC   H6211632   6.269   2.929   8.957
   11BGLC    O611633   6.087   3.030   8.981
   11BGLC   HO611634   6.089   3.026   8.885
   12BGLCN   C111635   6.151   2.586   9.504
   12BGLCN   H111636   6.089   2.495   9.492
   12BGLCN   C511637   5.986   2.679   9.646
   12BGLCN   H511638   5.927   2.586   9.634
   12BGLCN   O511639   6.068   2.699   9.530
   12BGLCN   C211640   6.250   2.567   9.620
   12BGLCN   H211641   6.305   2.663   9.629
   12BGLCN    N11642   6.347   2.464   9.583
   12BGLCN   HN11643   6.316   2.395   9.518
   12BGLCN    C11644   6.477   2.465   9.613
   12BGLCN    O11645   6.530   2.546   9.689
   12BGLCN   CT11646   6.561   2.357   9.549
   12BGLCN  HT111647   6.639   2.323   9.622
   12BGLCN  HT211648   6.610   2.397   9.458
   12BGLCN  HT311649   6.496   2.270   9.523
   12BGLCN   C311650   6.172   2.544   9.748
   12BGLCN   H311651   6.112   2.451   9.737
   12BGLCN   O311652   6.261   2.532   9.862
   12BGLCN   C411653   6.077   2.663   9.768
   12BGLCN   H411654   6.139   2.755   9.780
   12BGLCN   O411655   5.997   2.651   9.885
   12BGLCN  HO411656   5.925   2.589   9.870
   12BGLCN   C611657   5.889   2.796   9.653
   12BGLCN  H6111658   5.833   2.796   9.749
   12BGLCN  H6211659   5.946   2.891   9.648
   12BGLCN   O611660   5.794   2.793   9.545
   12BGLCN  HO611661   5.713   2.748   9.570
   13AGAL    C111662   6.219   2.444   9.966
   13AGAL    H111663   6.111   2.458   9.988
   13AGAL    C511664   6.382   2.278   9.906
   13AGAL    H511665   6.419   2.355   9.837
   13AGAL    O511666   6.242   2.306   9.929
   13AGAL    C211667   6.297   2.469  10.095
   13AGAL    H211668   6.262   2.391  10.167
   13AGAL    O211669   6.271   2.598  10.156
   13AGAL    C311670   6.446   2.444  10.075
   13AGAL    H311671   6.479   2.507   9.990
   13AGAL    O311672   6.526   2.480  10.186
   13AGAL   HO311673   6.542   2.574  10.181
   13AGAL    C411674   6.463   2.298  10.035
   13AGAL    H411675   6.570   2.280  10.012
   13AGAL    O411676   6.425   2.205  10.137
   13AGAL   HO411677   6.329   2.209  10.148
   13AGAL    C611678   6.404   2.146   9.833
   13AGAL   H6111679   6.330   2.135   9.752
   13AGAL   H6211680   6.505   2.148   9.787
   13AGAL    O611681   6.396   2.033   9.919
   13AGAL   HO611682   6.428   2.061  10.006
   14ARHM    C111683   6.206   2.598  10.282
   14ARHM    H111684   6.149   2.503  10.294
   14ARHM    C511685   6.164   2.832  10.286
   14ARHM    H511686   6.216   2.845  10.189
   14ARHM    O511687   6.107   2.700  10.293
   14ARHM    C211688   6.309   2.610  10.393
   14ARHM    H211689   6.388   2.533  10.377
   14ARHM    O211690   6.260   2.590  10.528
   14ARHM    C311691   6.373   2.746  10.388
   14ARHM    H311692   6.422   2.759  10.289
   14ARHM    O311693   6.475   2.761  10.487
   14ARHM   HO311694   6.434   2.790  10.569
   14ARHM    C411695   6.263   2.851  10.400
   14ARHM    H411696   6.209   2.834  10.495
   14ARHM    O411697   6.314   2.984  10.403
   14ARHM   HO411698   6.348   3.000  10.491
   14ARHM    C611699   6.044   2.929  10.290
   14ARHM   H6111700   5.977   2.908  10.204
   14ARHM   H6211701   5.988   2.916  10.385
   14ARHM   H6311702   6.079   3.034  10.283
   15ARHM    C111703   6.198   2.467  10.554
   15ARHM    H111704   6.227   2.391  10.478
   15ARHM    C511705   6.015   2.583  10.653
   15ARHM    H511706   6.061   2.680  10.627
   15ARHM    O511707   6.056   2.483  10.557
   15ARHM    C211708   6.244   2.420  10.689
   15ARHM    H211709   6.354   2.406  10.688
   15ARHM    O211710   6.181   2.292  10.708
   15ARHM    C311711   6.209   2.524  10.793
   15ARHM    H311712   6.257   2.620  10.761
   15ARHM    O311713   6.265   2.489  10.920
   15ARHM    C411714   6.059   2.544  10.794
   15ARHM    H411715   6.010   2.448  10.819
   15ARHM    O411716   6.019   2.641  10.891
   15ARHM   HO411717   5.924   2.652  10.891
   15ARHM    C611718   5.863   2.597  10.636
   15ARHM   H6111719   5.823   2.677  10.702
   15ARHM   H6211720   5.839   2.623  10.530
   15ARHM   H6311721   5.812   2.501  10.660
   16BMANN   C111722   6.192   2.227  10.832
   16BMANN   H111723   6.138   2.287  10.909
   16BMANN   C511724   6.334   2.150  11.005
   16BMANN   H511725   6.282   2.218  11.075
   16BMANN   O511726   6.328   2.207  10.873
   16BMANN   C211727   6.121   2.093  10.820
   16BMANN   H211728   6.015   2.114  10.795
   16BMANN    N11729   6.174   2.007  10.714
   16BMANN   HN11730   6.235   1.933  10.745
   16BMANN    C11731   6.136   2.012  10.587
   16BMANN    O11732   6.055   2.094  10.542
   16BMANN   CT11733   6.200   1.912  10.495
   16BMANN  HT111734   6.143   1.817  10.497
   16BMANN  HT211735   6.305   1.892  10.525
   16BMANN  HT311736   6.200   1.951  10.391
   16BMANN   C311737   6.122   2.029  10.957
   16BMANN   H311738   6.067   2.094  11.029
   16BMANN   O311739   6.054   1.904  10.951
   16BMANN  HO311740   6.071   1.850  11.029
   16BMANN   C411741   6.266   2.014  11.005
   16BMANN   H411742   6.321   1.944  10.939
   16BMANN   O411743   6.270   1.965  11.140
   16BMANN  HO411744   6.243   1.872  11.141
   16BMANN   C611745   6.480   2.143  11.045
   16BMANN  H6111746   6.488   2.112  11.152
   16BMANN  H6211747   6.532   2.066  10.984
   16BMANN   O611748   6.546   2.269  11.029
   16BMANN  HO611749   6.492   2.321  10.970
   17BGLCN   C111750   6.313   2.599  10.993
   17BGLCN   H111751   6.253   2.690  10.971
   17BGLCN   C511752   6.503   2.733  11.043
   17BGLCN   H511753   6.442   2.823  11.022
   17BGLCN   O511754   6.451   2.622  10.967
   17BGLCN   C211755   6.297   2.560  11.140
   17BGLCN   H211756   6.367   2.476  11.158
   17BGLCN    N11757   6.163   2.509  11.165
   17BGLCN   HN11758   6.094   2.535  11.097
   17BGLCN    C11759   6.131   2.424  11.262
   17BGLCN    O11760   6.213   2.382  11.345
   17BGLCN   CT11761   5.987   2.380  11.269
   17BGLCN  HT111762   5.974   2.288  11.210
   17BGLCN  HT211763   5.921   2.460  11.229
   17BGLCN  HT311764   5.960   2.359  11.374
   17BGLCN   C311765   6.341   2.679  11.224
   17BGLCN   H311766   6.286   2.768  11.186
   17BGLCN   O311767   6.307   2.662  11.363
   17BGLCN   C411768   6.489   2.702  11.193
   17BGLCN   H411769   6.544   2.607  11.215
   17BGLCN   O411770   6.548   2.804  11.272
   17BGLCN  HO411771   6.638   2.779  11.293
   17BGLCN   C611772   6.644   2.761  10.996
   17BGLCN  H6111773   6.690   2.840  11.058
   17BGLCN  H6211774   6.707   2.670  11.006
   17BGLCN   O611775   6.647   2.806  10.860
   17BGLCN  HO611776   6.670   2.732  10.802
   18AGAL    C111777   6.277   2.779  11.436
   18AGAL    H111778   6.369   2.841  11.446
   18AGAL    C511779   6.049   2.791  11.359
   18AGAL    H511780   6.070   2.697  11.304
   18AGAL    O511781   6.175   2.860  11.373
   18AGAL    C211782   6.225   2.744  11.575
   18AGAL    H211783   6.200   2.842  11.621
   18AGAL    O211784   6.325   2.681  11.658
   18AGAL    C311785   6.097   2.663  11.564
   18AGAL    H311786   6.120   2.574  11.500
   18AGAL    O311787   6.051   2.611  11.689
   18AGAL   HO311788   6.009   2.526  11.675
   18AGAL    C411789   5.992   2.748  11.495
   18AGAL    H411790   5.902   2.687  11.475
   18AGAL    O411791   5.953   2.859  11.576
   18AGAL   HO411792   5.890   2.826  11.641
   18AGAL    C611793   5.957   2.869  11.269
   18AGAL   H6111794   6.011   2.896  11.175
   18AGAL   H6211795   5.870   2.806  11.239
   18AGAL    O611796   5.907   2.989  11.328
   18AGAL   HO611797   5.972   3.019  11.391
   19ARHM    C111798   6.316   2.722  11.791
   19ARHM    H111799   6.213   2.753  11.818
   19ARHM    C511800   6.541   2.802  11.798
   19ARHM    H511801   6.556   2.771  11.693
   19ARHM    O511802   6.403   2.833  11.821
   19ARHM    C211803   6.354   2.604  11.880
   19ARHM    H211804   6.295   2.517  11.842
   19ARHM    O211805   6.324   2.626  12.019
   19ARHM    C311806   6.499   2.566  11.860
   19ARHM    H311807   6.514   2.537  11.755
   19ARHM    O311808   6.532   2.454  11.943
   19ARHM   HO311809   6.539   2.487  12.033
   19ARHM    C411810   6.585   2.688  11.891
   19ARHM    H411811   6.565   2.721  11.995
   19ARHM    O411812   6.724   2.661  11.878
   19ARHM   HO411813   6.742   2.614  11.797
   19ARHM    C611814   6.616   2.935  11.821
   19ARHM   H6111815   6.584   3.010  11.745
   19ARHM   H6211816   6.594   2.975  11.922
   19ARHM   H6311817   6.726   2.920  11.809
   20ARHM    C111818   6.187   2.613  12.048
   20ARHM    H111819   6.134   2.557  11.968
   20ARHM    C511820   6.171   2.820  12.168
   20ARHM    H511821   6.279   2.841  12.149
   20ARHM    O511822   6.119   2.739  12.062
   20ARHM    C211823   6.175   2.535  12.179
   20ARHM    H211824   6.239   2.445  12.170
   20ARHM    O211825   6.040   2.493  12.203
   20ARHM    C311826   6.229   2.615  12.293
   20ARHM    H311827   6.338   2.632  12.277
   20ARHM    O311828   6.208   2.537  12.412
   20ARHM    C411829   6.157   2.747  12.301
   20ARHM    H411830   6.049   2.727  12.319
   20ARHM    O411831   6.204   2.827  12.409
   20ARHM   HO411832   6.292   2.858  12.387
   20ARHM    C611833   6.094   2.953  12.162
   20ARHM   H6111834   5.986   2.935  12.179
   20ARHM   H6211835   6.131   3.023  12.241
   20ARHM   H6311836   6.108   3.001  12.064
   21BMANN   C111837   6.001   2.384  12.123
   21BMANN   H111838   6.084   2.349  12.058
   21BMANN   C511839   5.850   2.311  11.954
   21BMANN   H511840   5.939   2.279  11.894
   21BMANN   O511841   5.890   2.420  12.040
   21BMANN   C211842   5.961   2.272  12.217
   21BMANN   H211843   6.053   2.242  12.272
   21BMANN    N11844   5.865   2.317  12.318
   21BMANN   HN11845   5.827   2.408  12.301
   21BMANN    C11846   5.839   2.253  12.432
   21BMANN    O11847   5.883   2.142  12.457
   21BMANN   CT11848   5.749   2.325  12.530
   21BMANN  HT111849   5.644   2.293  12.516
   21BMANN  HT211850   5.757   2.435  12.516
   21BMANN  HT311851   5.782   2.301  12.634
   21BMANN   C311852   5.918   2.153  12.131
   21BMANN   H311853   6.004   2.125  12.066
   21BMANN   O311854   5.888   2.039  12.210
   21BMANN  HO311855   5.875   2.067  12.300
   21BMANN   C411856   5.804   2.193  12.040
   21BMANN   H411857   5.717   2.224  12.100
   21BMANN   O411858   5.763   2.087  11.954
   21BMANN  HO411859   5.777   2.004  12.002
   21BMANN   C611860   5.748   2.362  11.856
   21BMANN  H6111861   5.725   2.284  11.780
   21BMANN  H6211862   5.653   2.387  11.908
   21BMANN   O611863   5.796   2.480  11.790
   21BMANN  HO611864   5.834   2.536  11.856
   22BGLCN   C111865   6.305   2.550  12.512
   22BGLCN   H111866   6.355   2.649  12.509
   22BGLCN   C511867   6.494   2.446  12.609
   22BGLCN   H511868   6.542   2.546  12.616
   22BGLCN   O511869   6.400   2.444  12.502
   22BGLCN   C211870   6.226   2.534  12.641
   22BGLCN   H211871   6.177   2.434  12.637
   22BGLCN    N11872   6.120   2.634  12.648
   22BGLCN   HN11873   6.135   2.717  12.595
   22BGLCN    C11874   6.001   2.614  12.707
   22BGLCN    O11875   5.970   2.508  12.760
   22BGLCN   CT11876   5.904   2.728  12.703
   22BGLCN  HT111877   5.837   2.715  12.614
   22BGLCN  HT211878   5.958   2.825  12.693
   22BGLCN  HT311879   5.843   2.728  12.795
   22BGLCN   C311880   6.320   2.534  12.760
   22BGLCN   H311881   6.376   2.630  12.760
   22BGLCN   O311882   6.242   2.527  12.883
   22BGLCN   C411883   6.419   2.420  12.739
   22BGLCN   H411884   6.362   2.325  12.728
   22BGLCN   O411885   6.510   2.403  12.847
   22BGLCN  HO411886   6.480   2.329  12.899
   22BGLCN   C611887   6.602   2.346  12.574
   22BGLCN  H6111888   6.668   2.325  12.661
   22BGLCN  H6211889   6.557   2.250  12.540
   22BGLCN   O611890   6.685   2.399  12.470
   22BGLCN  HO611891   6.629   2.444  12.406
   23AGAL    C111892   6.301   2.570  13.003
   23AGAL    H111893   6.381   2.497  13.033
   23AGAL    C511894   6.266   2.804  12.967
   23AGAL    H511895   6.211   2.778  12.874
   23AGAL    O511896   6.362   2.700  12.993
   23AGAL    C211897   6.198   2.570  13.116
   23AGAL    H211898   6.251   2.596  13.210
   23AGAL    O211899   6.134   2.442  13.134
   23AGAL    C311900   6.094   2.677  13.092
   23AGAL    H311901   6.043   2.654  12.995
   23AGAL    O311902   5.993   2.678  13.193
   23AGAL   HO311903   6.032   2.704  13.276
   23AGAL    C411904   6.163   2.812  13.079
   23AGAL    H411905   6.087   2.889  13.054
   23AGAL    O411906   6.225   2.851  13.201
   23AGAL   HO411907   6.302   2.903  13.176
   23AGAL    C611908   6.338   2.935  12.939
   23AGAL   H6111909   6.408   2.921  12.852
   23AGAL   H6211910   6.264   3.012  12.906
   23AGAL    O611911   6.413   2.988  13.050
   23AGAL   HO611912   6.506   2.969  13.036
   24ARHM    C111913   6.200   2.350  13.215
   24ARHM    H111914   6.307   2.379  13.224
   24ARHM    C511915   6.069   2.166  13.144
   24ARHM    H511916   6.009   2.234  13.078
   24ARHM    O511917   6.202   2.219  13.158
   24ARHM    C211918   6.137   2.347  13.353
   24ARHM    H211919   6.128   2.452  13.390
   24ARHM    O211920   6.213   2.270  13.449
   24ARHM    C311921   5.997   2.291  13.345
   24ARHM    H311922   5.934   2.357  13.281
   24ARHM    O311923   5.939   2.285  13.475
   24ARHM   HO311924   5.996   2.230  13.529
   24ARHM    C411925   6.002   2.153  13.280
   24ARHM    H411926   6.065   2.085  13.342
   24ARHM    O411927   5.872   2.094  13.267
   24ARHM   HO411928   5.873   2.032  13.193
   24ARHM    C611929   6.086   2.032  13.069
   24ARHM   H6111930   5.988   1.985  13.047
   24ARHM   H6211931   6.139   2.049  12.974
   24ARHM   H6311932   6.148   1.962  13.130
   25ARHM    C111933   6.323   2.336  13.505
   25ARHM    H111934   6.361   2.413  13.433
   25ARHM    C511935   6.400   2.149  13.630
   25ARHM    H511936   6.313   2.091  13.595
   25ARHM    O511937   6.433   2.248  13.530
   25ARHM    C211938   6.280   2.408  13.630
   25ARHM    H211939   6.187   2.465  13.610
   25ARHM    O211940   6.381   2.498  13.679
   25ARHM    C311941   6.245   2.308  13.738
   25ARHM    H311942   6.159   2.247  13.703
   25ARHM    O311943   6.207   2.381  13.854
   25ARHM    C411944   6.365   2.218  13.762
   25ARHM    H411945   6.451   2.281  13.793
   25ARHM    O411946   6.340   2.123  13.866
   25ARHM   HO411947   6.422   2.085  13.898
   25ARHM    C611948   6.520   2.053  13.638
   25ARHM   H6111949   6.540   2.008  13.540
   25ARHM   H6211950   6.611   2.107  13.672
   25ARHM   H6311951   6.498   1.970  13.710
   26BMANN   C111952   6.379   2.625  13.618
   26BMANN   H111953   6.278   2.650  13.581
   26BMANN   C511954   6.479   2.764  13.453
   26BMANN   H511955   6.377   2.785  13.412
   26BMANN   O511956   6.477   2.633  13.513
   26BMANN   C211957   6.419   2.722  13.727
   26BMANN   H211958   6.340   2.715  13.805
   26BMANN    N11959   6.546   2.686  13.788
   26BMANN   HN11960   6.603   2.626  13.734
   26BMANN    C11961   6.585   2.727  13.909
   26BMANN    O11962   6.517   2.804  13.977
   26BMANN   CT11963   6.717   2.676  13.960
   26BMANN  HT111964   6.783   2.649  13.875
   26BMANN  HT211965   6.701   2.588  14.026
   26BMANN  HT311966   6.766   2.756  14.020
   26BMANN   C311967   6.415   2.862  13.668
   26BMANN   H311968   6.313   2.879  13.627
   26BMANN   O311969   6.436   2.962  13.767
   26BMANN  HO311970   6.465   2.920  13.849
   26BMANN   C411971   6.514   2.871  13.554
   26BMANN   H411972   6.616   2.853  13.593
   26BMANN   O411973   6.510   3.001  13.496
   26BMANN  HO411974   6.495   3.060  13.571
   26BMANN   C611975   6.573   2.759  13.332
   26BMANN  H6111976   6.548   2.670  13.270
   26BMANN  H6211977   6.557   2.849  13.269
   26BMANN   O611978   6.711   2.752  13.370
   26BMANN  HO611979   6.750   2.840  13.364
   27BGLCN   C111980   6.108   2.320  13.932
   27BGLCN   H111981   6.111   2.210  13.922
   27BGLCN   C511982   5.876   2.309  13.977
   27BGLCN   H511983   5.877   2.199  13.963
   27BGLCN   O511984   5.978   2.369  13.898
   27BGLCN   C211985   6.137   2.361  14.075
   27BGLCN   H211986   6.124   2.471  14.081
   27BGLCN    N11987   6.275   2.329  14.107
   27BGLCN   HN11988   6.314   2.253  14.057
   27BGLCN    C11989   6.353   2.402  14.187
   27BGLCN    O11990   6.312   2.502  14.248
   27BGLCN   CT11991   6.496   2.357  14.200
   27BGLCN  HT111992   6.514   2.266  14.138
   27BGLCN  HT211993   6.518   2.336  14.307
   27BGLCN  HT311994   6.562   2.439  14.165
   27BGLCN   C311995   6.036   2.296  14.166
   27BGLCN   H311996   6.044   2.186  14.155
   27BGLCN   O311997   6.074   2.333  14.301
   27BGLCN   C411998   5.898   2.341  14.125
   27BGLCN   H411999   5.889   2.451  14.141
   27BGLCN   O412000   5.798   2.275  14.201
   27BGLCN  HO412001   5.837   2.202  14.250
   27BGLCN   C612002   5.744   2.363  13.926
   27BGLCN  H6112003   5.660   2.317  13.981
   27BGLCN  H6212004   5.740   2.473  13.943
   27BGLCN   O612005   5.727   2.339  13.786
   27BGLCN  HO612006   5.801   2.379  13.739
   28AGAL    C112007   6.014   2.266  14.410
   28AGAL    H112008   5.910   2.302  14.422
   28AGAL    C512009   6.150   2.071  14.384
   28AGAL    H512010   6.202   2.121  14.300
   28AGAL    O512011   6.016   2.124  14.392
   28AGAL    C212012   6.087   2.296  14.540
   28AGAL    H212013   6.035   2.230  14.613
   28AGAL    O212014   6.074   2.432  14.587
   28AGAL    C312015   6.232   2.252  14.531
   28AGAL    H312016   6.279   2.303  14.445
   28AGAL    O312017   6.306   2.288  14.648
   28AGAL   HO312018   6.383   2.339  14.622
   28AGAL    C412019   6.233   2.102  14.510
   28AGAL    H412020   6.338   2.071  14.490
   28AGAL    O412021   6.191   2.036  14.629
   28AGAL   HO412022   6.207   2.099  14.700
   28AGAL    C612023   6.141   1.924  14.345
   28AGAL   H6112024   6.086   1.917  14.248
   28AGAL   H6212025   6.243   1.883  14.328
   28AGAL    O612026   6.073   1.843  14.441
   28AGAL   HO612027   5.996   1.891  14.472
   29ARHM    C112028   6.034   2.441  14.722
   29ARHM    H112029   6.055   2.346  14.775
   29ARHM    C512030   5.862   2.599  14.673
   29ARHM    H512031   5.894   2.597  14.567
   29ARHM    O512032   5.894   2.472  14.734
   29ARHM    C212033   6.114   2.547  14.795
   29ARHM    H212034   6.222   2.525  14.776
   29ARHM    O212035   6.087   2.541  14.937
   29ARHM    C312036   6.086   2.684  14.737
   29ARHM    H312037   6.116   2.684  14.630
   29ARHM    O312038   6.163   2.783  14.805
   29ARHM   HO312039   6.152   2.867  14.759
   29ARHM    C412040   5.937   2.711  14.745
   29ARHM    H412041   5.907   2.711  14.852
   29ARHM    O412042   5.903   2.839  14.690
   29ARHM   HO412043   5.907   2.834  14.594
   29ARHM    C612044   5.709   2.612  14.675
   29ARHM   H6112045   5.662   2.525  14.624
   29ARHM   H6212046   5.670   2.616  14.779
   29ARHM   H6312047   5.677   2.705  14.622
   30ARHM    C112048   6.192   2.484  15.012
   30ARHM    H112049   6.288   2.533  14.983
   30ARHM    C512050   6.086   2.270  15.031
   30ARHM    H512051   5.997   2.307  14.976
   30ARHM    O512052   6.203   2.343  14.990
   30ARHM    C212053   6.170   2.509  15.161
   30ARHM    H212054   6.154   2.617  15.177
   30ARHM    O212055   6.286   2.464  15.234
   30ARHM    C312056   6.047   2.435  15.209
   30ARHM    H312057   5.961   2.472  15.149
   30ARHM    O312058   6.017   2.469  15.346
   30ARHM    C412059   6.061   2.287  15.179
   30ARHM    H412060   6.147   2.245  15.235
   30ARHM    O412061   5.944   2.213  15.215
   30ARHM   HO412062   5.874   2.226  15.150
   30ARHM    C612063   6.110   2.123  14.989
   30ARHM   H6112064   6.022   2.060  15.014
   30ARHM   H6212065   6.127   2.117  14.880
   30ARHM   H6312066   6.198   2.082  15.042
   31BMANN   C112067   6.386   2.559  15.263
   31BMANN   H112068   6.343   2.659  15.283
   31BMANN   C512069   6.595   2.654  15.192
   31BMANN   H512070   6.552   2.753  15.217
   31BMANN   O512071   6.486   2.564  15.159
   31BMANN   C212072   6.453   2.502  15.387
   31BMANN   H212073   6.377   2.505  15.469
   31BMANN    N12074   6.487   2.361  15.369
   31BMANN   HN12075   6.478   2.327  15.276
   31BMANN    C12076   6.519   2.274  15.465
   31BMANN    O12077   6.539   2.307  15.581
   31BMANN   CT12078   6.531   2.130  15.422
   31BMANN  HT112079   6.612   2.119  15.347
   31BMANN  HT212080   6.435   2.095  15.378
   31BMANN  HT312081   6.554   2.067  15.511
   31BMANN   C312082   6.565   2.595  15.429
   31BMANN   H312083   6.523   2.697  15.442
   31BMANN   O312084   6.622   2.561  15.555
   31BMANN  HO312085   6.599   2.470  15.575
   31BMANN   C412086   6.667   2.603  15.317
   31BMANN   H412087   6.710   2.503  15.297
   31BMANN   O412088   6.773   2.692  15.351
   31BMANN  HO412089   6.802   2.672  15.441
   31BMANN   C612090   6.687   2.674  15.073
   31BMANN  H6112091   6.779   2.727  15.105
   31BMANN  H6212092   6.719   2.576  15.030
   31BMANN   O612093   6.626   2.754  14.971
   31BMANN  HO612094   6.575   2.701  14.910
   32BGLCN   C112095   6.081   2.399  15.450
   32BGLCN   H112096   6.188   2.383  15.427
   32BGLCN   C512097   6.084   2.200  15.583
   32BGLCN   H512098   6.191   2.187  15.557
   32BGLCN   O512099   6.018   2.273  15.478
   32BGLCN   C212100   6.068   2.485  15.576
   32BGLCN   H212101   5.960   2.486  15.602
   32BGLCN    N12102   6.110   2.623  15.553
   32BGLCN   HN12103   6.193   2.638  15.500
   32BGLCN    C12104   6.039   2.731  15.590
   32BGLCN    O12105   5.934   2.724  15.652
   32BGLCN   CT12106   6.096   2.864  15.550
   32BGLCN  HT112107   6.144   2.857  15.450
   32BGLCN  HT212108   6.170   2.898  15.625
   32BGLCN  HT312109   6.013   2.938  15.545
   32BGLCN   C312110   6.144   2.415  15.687
   32BGLCN   H312111   6.246   2.395  15.648
   32BGLCN   O312112   6.157   2.491  15.809
   32BGLCN   C412113   6.075   2.282  15.711
   32BGLCN   H412114   5.968   2.300  15.734
   32BGLCN   O412115   6.131   2.213  15.821
   32BGLCN  HO412116   6.104   2.259  15.901
   32BGLCN   C612117   6.022   2.062  15.590
   32BGLCN  H6112118   6.067   2.004  15.672
   32BGLCN  H6212119   5.913   2.071  15.610
   32BGLCN   O612120   6.041   1.992  15.467
   32BGLCN  HO612121   6.001   2.044  15.397
   33AGAL    C112122   6.286   2.480  15.866
   33AGAL    H112123   6.327   2.377  15.850
   33AGAL    C512124   6.342   2.710  15.830
   33AGAL    H512125   6.240   2.730  15.791
   33AGAL    O512126   6.376   2.573  15.803
   33AGAL    C212127   6.286   2.506  16.015
   33AGAL    H212128   6.392   2.495  16.047
   33AGAL    O212129   6.211   2.406  16.085
   33AGAL    C312130   6.242   2.648  16.046
   33AGAL    H312131   6.141   2.664  16.003
   33AGAL    O312132   6.233   2.676  16.186
   33AGAL   HO312133   6.321   2.705  16.212
   33AGAL    C412134   6.341   2.742  15.979
   33AGAL    H412135   6.307   2.847  15.994
   33AGAL    O412136   6.472   2.731  16.034
   33AGAL   HO412137   6.530   2.733  15.959
   33AGAL    C612138   6.438   2.799  15.752
   33AGAL   H6112139   6.419   2.787  15.643
   33AGAL   H6212140   6.419   2.905  15.777
   33AGAL    O612141   6.576   2.768  15.778
   33AGAL   HO612142   6.604   2.696  15.721
   34ARHM    C112143   6.268   2.365  16.207
   34ARHM    H112144   6.305   2.454  16.263
   34ARHM    C512145   6.340   2.156  16.116
   34ARHM    H512146   6.303   2.185  16.016
   34ARHM    O512147   6.379   2.275  16.187
   34ARHM    C212148   6.159   2.297  16.287
   34ARHM    H212149   6.073   2.367  16.294
   34ARHM    O212150   6.200   2.261  16.421
   34ARHM    C312151   6.112   2.174  16.211
   34ARHM    H312152   6.077   2.206  16.111
   34ARHM    O312153   6.001   2.110  16.274
   34ARHM   HO312154   5.932   2.101  16.209
   34ARHM    C412155   6.231   2.081  16.191
   34ARHM    H412156   6.270   2.052  16.290
   34ARHM    O412157   6.196   1.962  16.120
   34ARHM   HO412158   6.134   1.911  16.173
   34ARHM    C612159   6.469   2.074  16.095
   34ARHM   H6112160   6.513   2.045  16.193
   34ARHM   H6212161   6.447   1.983  16.036
   34ARHM   H6312162   6.544   2.134  16.039
   35ARHM    C112163   6.234   2.368  16.506
   35ARHM    H112164   6.171   2.457  16.484
   35ARHM    C512165   6.462   2.295  16.522
   35ARHM    H512166   6.443   2.214  16.449
   35ARHM    O512167   6.373   2.404  16.495
   35ARHM    C212168   6.209   2.322  16.649
   35ARHM    H212169   6.103   2.290  16.656
   35ARHM    O212170   6.233   2.424  16.748
   35ARHM    C312171   6.296   2.201  16.680
   35ARHM    H312172   6.273   2.121  16.606
   35ARHM    O312173   6.268   2.147  16.810
   35ARHM   HO312174   6.189   2.189  16.845
   35ARHM    C412175   6.441   2.243  16.664
   35ARHM    H412176   6.462   2.326  16.734
   35ARHM    O412177   6.534   2.138  16.695
   35ARHM   HO412178   6.525   2.066  16.632
   35ARHM    C612179   6.603   2.351  16.497
   35ARHM   H6112180   6.610   2.393  16.395
   35ARHM   H6212181   6.625   2.433  16.570
   35ARHM   H6312182   6.680   2.271  16.509
   36BMANN   C112183   6.143   2.532  16.749
   36BMANN   H112184   6.042   2.498  16.718
   36BMANN   C512185   6.096   2.753  16.668
   36BMANN   H512186   5.998   2.715  16.632
   36BMANN   O512187   6.188   2.641  16.667
   36BMANN   C212188   6.138   2.583  16.893
   36BMANN   H212189   6.101   2.498  16.955
   36BMANN    N12190   6.269   2.625  16.943
   36BMANN   HN12191   6.327   2.673  16.878
   36BMANN    C12192   6.310   2.612  17.070
   36BMANN    O12193   6.249   2.548  17.155
   36BMANN   CT12194   6.441   2.677  17.104
   36BMANN  HT112195   6.435   2.786  17.083
   36BMANN  HT212196   6.523   2.632  17.043
   36BMANN  HT312197   6.463   2.662  17.212
   36BMANN   C312198   6.034   2.694  16.900
   36BMANN   H312199   5.937   2.656  16.861
   36BMANN   O312200   6.012   2.738  17.034
   36BMANN  HO312201   5.942   2.686  17.074
   36BMANN   C412202   6.079   2.807  16.809
   36BMANN   H412203   6.178   2.845  16.845
   36BMANN   O412204   5.989   2.918  16.810
   36BMANN  HO412205   6.004   2.966  16.892
   36BMANN   C612206   6.141   2.857  16.566
   36BMANN  H6112207   6.174   2.806  16.473
   36BMANN  H6212208   6.055   2.922  16.540
   36BMANN   O612209   6.247   2.940  16.614
   36BMANN  HO612210   6.219   2.984  16.695
    1ECLIP HB6S12211   3.202   1.602   6.651
    1ECLIP  OB612212   3.046   1.566   6.785
    1ECLIP  CB612213   3.143   1.516   6.689
    1ECLIP HB6R12214   3.215   1.448   6.740
    1ECLIP  CB512215   3.088   1.442   6.568
    1ECLIP  OB512216   2.991   1.530   6.511
    1ECLIP  HB512217   3.037   1.349   6.599
    1ECLIP  CB112218   2.925   1.472   6.398
    1ECLIP  HB112219   2.882   1.375   6.431
    1ECLIP  OA612220   2.818   1.549   6.352
    1ECLIP  CA612221   2.835   1.689   6.370
    1ECLIP HA6R12222   2.941   1.717   6.388
    1ECLIP HA6S12223   2.774   1.722   6.457
    1ECLIP  CB412224   3.196   1.409   6.462
    1ECLIP  HB412225   3.254   1.500   6.436
    1ECLIP  OB412226   3.276   1.312   6.530
    1ECLIP   PB12227   3.434   1.295   6.568
    1ECLIP OPB412228   3.428   1.169   6.653
    1ECLIP OPB312229   3.499   1.413   6.636
    1ECLIP OPB212230   3.493   1.245   6.438
    1ECLIP  CB312231   3.127   1.352   6.337
    1ECLIP  OB312232   3.217   1.338   6.227
    1ECLIP  HB312233   3.076   1.256   6.360
    1ECLIP  C7112234   3.284   1.229   6.205
    1ECLIP  O7112235   3.284   1.129   6.278
    1ECLIP  C7212236   3.336   1.229   6.061
    1ECLIP H72R12237   3.251   1.246   5.991
    1ECLIP H72S12238   3.382   1.130   6.040
    1ECLIP  CB212239   3.021   1.449   6.285
    1ECLIP  HB212240   3.069   1.545   6.259
    1ECLIP  NB212241   2.944   1.405   6.165
    1ECLIP HNB212242   2.850   1.380   6.184
    1ECLIP  CA412243   2.660   1.709   6.186
    1ECLIP  HA412244   2.674   1.603   6.158
    1ECLIP  OA412245   2.554   1.718   6.282
    1ECLIP HOA412246   2.476   1.752   6.237
    1ECLIP  CA512247   2.791   1.759   6.245
    1ECLIP  HA512248   2.783   1.867   6.266
    1ECLIP  OA512249   2.894   1.737   6.148
    1ECLIP  CA112250   2.875   1.812   6.026
    1ECLIP  HA112251   2.958   1.781   5.960
    1ECLIP  OA112252   2.883   1.952   6.050
    1ECLIP OPA212253   3.012   2.117   6.209
    1ECLIP OPA312254   3.133   1.925   6.150
    1ECLIP OPA412255   3.101   2.096   5.993
    1ECLIP   PA12256   3.025   2.017   6.097
    1ECLIP  CA312257   2.630   1.788   6.061
    1ECLIP  HA312258   2.628   1.895   6.090
    1ECLIP  OA312259   2.495   1.753   6.028
    1ECLIP  C3112260   2.462   1.654   5.945
    1ECLIP  O3112261   2.531   1.614   5.853
    1ECLIP  C3212262   2.350   1.572   6.009
    1ECLIP H32R12263   2.270   1.561   5.933
    1ECLIP H32S12264   2.308   1.629   6.094
    1ECLIP  CA212265   2.744   1.771   5.960
    1ECLIP  HA212266   2.752   1.663   5.936
    1ECLIP  NA212267   2.718   1.842   5.835
    1ECLIP HNA212268   2.627   1.883   5.828
    1ECLIP  C7312269   3.441   1.341   6.042
    1ECLIP H73R12270   3.510   1.339   6.130
    1ECLIP  O7312271   3.370   1.464   6.035
    1ECLIP  C8112272   3.434   1.572   6.072
    1ECLIP  O8112273   3.551   1.576   6.106
    1ECLIP  C8212274   3.356   1.696   6.028
    1ECLIP H82R12275   3.411   1.785   6.068
    1ECLIP H82S12276   3.255   1.693   6.075
    1ECLIP  C8312277   3.343   1.705   5.874
    1ECLIP H83R12278   3.268   1.630   5.842
    1ECLIP H83S12279   3.440   1.680   5.825
    1ECLIP  C8412280   3.299   1.843   5.825
    1ECLIP H84R12281   3.379   1.918   5.844
    1ECLIP H84S12282   3.208   1.874   5.881
    1ECLIP  C8512283   3.263   1.839   5.676
    1ECLIP H85R12284   3.174   1.774   5.664
    1ECLIP H85S12285   3.347   1.793   5.620
    1ECLIP  C8612286   3.231   1.977   5.617
    1ECLIP H86R12287   3.324   2.037   5.609
    1ECLIP H86S12288   3.162   2.030   5.688
    1ECLIP  C8712289   3.162   1.969   5.479
    1ECLIP H87R12290   3.154   2.071   5.436
    1ECLIP H87S12291   3.059   1.931   5.497
    1ECLIP  C8812292   3.231   1.873   5.380
    1ECLIP H88R12293   3.221   1.771   5.421
    1ECLIP H88S12294   3.340   1.897   5.374
    1ECLIP  C8912295   3.169   1.874   5.240
    1ECLIP H89R12296   3.059   1.879   5.248
    1ECLIP H89S12297   3.194   1.776   5.194
    1ECLIP C81012298   3.222   1.987   5.150
    1ECLIPH810R12299   3.333   1.994   5.163
    1ECLIPH810S12300   3.179   2.082   5.188
    1ECLIP C81112301   3.189   1.971   5.000
    1ECLIPH811R12302   3.222   2.063   4.947
    1ECLIPH811S12303   3.079   1.964   4.990
    1ECLIP C81212304   3.254   1.849   4.932
    1ECLIPH812R12305   3.211   1.838   4.830
    1ECLIPH812S12306   3.227   1.756   4.987
    1ECLIP C81312307   3.407   1.858   4.919
    1ECLIPH813R12308   3.432   1.945   4.856
    1ECLIPH813S12309   3.450   1.876   5.020
    1ECLIP C81412310   3.470   1.731   4.861
    1ECLIPH814R12311   3.425   1.707   4.762
    1ECLIPH814S12312   3.453   1.646   4.929
    1ECLIPH814T12313   3.580   1.745   4.848
    1ECLIP  C7412314   3.528   1.324   5.914
    1ECLIP H74R12315   3.566   1.220   5.908
    1ECLIP H74S12316   3.616   1.390   5.931
    1ECLIP  C7512317   3.470   1.368   5.778
    1ECLIP H75R12318   3.554   1.406   5.716
    1ECLIP H75S12319   3.398   1.452   5.790
    1ECLIP  C7612320   3.401   1.258   5.694
    1ECLIP H76R12321   3.301   1.239   5.737
    1ECLIP H76S12322   3.461   1.165   5.700
    1ECLIP  C7712323   3.384   1.297   5.545
    1ECLIP H77R12324   3.484   1.322   5.502
    1ECLIP H77S12325   3.321   1.388   5.539
    1ECLIP  C7812326   3.320   1.184   5.464
    1ECLIP H78R12327   3.388   1.097   5.462
    1ECLIP H78S12328   3.227   1.154   5.517
    1ECLIP  C7912329   3.278   1.221   5.320
    1ECLIP H79R12330   3.207   1.307   5.325
    1ECLIP H79S12331   3.223   1.135   5.276
    1ECLIP C71012332   3.393   1.259   5.226
    1ECLIPH710R12333   3.439   1.354   5.261
    1ECLIPH710S12334   3.471   1.180   5.228
    1ECLIP C71112335   3.342   1.277   5.082
    1ECLIPH711R12336   3.305   1.179   5.044
    1ECLIPH711S12337   3.255   1.346   5.085
    1ECLIP C71212338   3.447   1.335   4.985
    1ECLIPH712R12339   3.530   1.262   4.973
    1ECLIPH712S12340   3.489   1.427   5.031
    1ECLIP C71312341   3.389   1.372   4.847
    1ECLIPH713R12342   3.309   1.448   4.862
    1ECLIPH713S12343   3.469   1.419   4.787
    1ECLIP C71412344   3.330   1.254   4.769
    1ECLIPH714R12345   3.408   1.177   4.752
    1ECLIPH714S12346   3.247   1.207   4.825
    1ECLIPH714T12347   3.291   1.289   4.671
    1ECLIP  C5112348   2.976   1.423   6.035
    1ECLIP  O5112349   3.085   1.463   5.999
    1ECLIP  C5212350   2.866   1.386   5.932
    1ECLIP H52R12351   2.867   1.276   5.920
    1ECLIP H52S12352   2.769   1.415   5.977
    1ECLIP  C5312353   2.873   1.451   5.790
    1ECLIP H53R12354   2.878   1.562   5.802
    1ECLIP  O5312355   2.751   1.410   5.726
    1ECLIP  C6112356   2.689   1.496   5.644
    1ECLIP  O6112357   2.741   1.593   5.594
    1ECLIP  C6212358   2.567   1.425   5.582
    1ECLIP H62R12359   2.502   1.388   5.665
    1ECLIP H62S12360   2.606   1.338   5.526
    1ECLIP  C6312361   2.482   1.512   5.485
    1ECLIP H63R12362   2.549   1.581   5.429
    1ECLIP H63S12363   2.413   1.575   5.545
    1ECLIP  C6412364   2.404   1.433   5.378
    1ECLIP H64R12365   2.327   1.499   5.333
    1ECLIP H64S12366   2.351   1.349   5.429
    1ECLIP  C6512367   2.495   1.381   5.266
    1ECLIP H65R12368   2.576   1.322   5.315
    1ECLIP H65S12369   2.546   1.467   5.217
    1ECLIP  C6612370   2.429   1.289   5.162
    1ECLIP H66R12371   2.353   1.226   5.214
    1ECLIP H66S12372   2.507   1.221   5.123
    1ECLIP  C6712373   2.367   1.361   5.042
    1ECLIP H67R12374   2.278   1.418   5.075
    1ECLIP H67S12375   2.332   1.283   4.969
    1ECLIP  C6812376   2.462   1.457   4.969
    1ECLIP H68R12377   2.563   1.413   4.962
    1ECLIP H68S12378   2.469   1.550   5.030
    1ECLIP  C6912379   2.411   1.492   4.828
    1ECLIP H69R12380   2.301   1.503   4.832
    1ECLIP H69S12381   2.435   1.408   4.759
    1ECLIP C61012382   2.470   1.623   4.774
    1ECLIPH610R12383   2.581   1.623   4.783
    1ECLIPH610S12384   2.432   1.706   4.837
    1ECLIP C61112385   2.430   1.648   4.628
    1ECLIPH611R12386   2.323   1.621   4.615
    1ECLIPH611S12387   2.438   1.757   4.610
    1ECLIP C61212388   2.517   1.574   4.526
    1ECLIPH612R12389   2.623   1.603   4.538
    1ECLIPH612S12390   2.509   1.464   4.542
    1ECLIPH612T12391   2.485   1.597   4.422
    1ECLIP  C5412392   2.995   1.405   5.707
    1ECLIP H54R12393   2.979   1.301   5.671
    1ECLIP H54S12394   3.084   1.403   5.773
    1ECLIP  C5512395   3.035   1.497   5.589
    1ECLIP H55R12396   3.146   1.506   5.587
    1ECLIP H55S12397   2.996   1.599   5.606
    1ECLIP  C5612398   2.988   1.446   5.451
    1ECLIP H56R12399   2.877   1.445   5.450
    1ECLIP H56S12400   3.022   1.341   5.439
    1ECLIP  C5712401   3.039   1.531   5.334
    1ECLIP H57R12402   3.150   1.537   5.339
    1ECLIP H57S12403   2.999   1.634   5.344
    1ECLIP  C5812404   2.994   1.468   5.201
    1ECLIP H58R12405   3.027   1.362   5.202
    1ECLIP H58S12406   2.883   1.470   5.198
    1ECLIP  C5912407   3.048   1.535   5.073
    1ECLIP H59R12408   3.158   1.547   5.079
    1ECLIP H59S12409   3.003   1.636   5.068
    1ECLIP C51012410   3.009   1.452   4.950
    1ECLIPH510R12411   2.908   1.410   4.972
    1ECLIPH510S12412   3.081   1.369   4.936
    1ECLIP C51112413   2.992   1.531   4.820
    1ECLIPH511R12414   2.911   1.603   4.841
    1ECLIPH511S12415   3.086   1.586   4.799
    1ECLIP C51212416   2.950   1.445   4.700
    1ECLIPH512R12417   2.961   1.506   4.608
    1ECLIPH512S12418   3.019   1.358   4.691
    1ECLIP C51312419   2.805   1.396   4.707
    1ECLIPH513R12420   2.738   1.485   4.715
    1ECLIPH513S12421   2.790   1.337   4.801
    1ECLIP C51412422   2.761   1.311   4.589
    1ECLIPH514R12423   2.824   1.219   4.582
    1ECLIPH514S12424   2.655   1.279   4.601
    1ECLIPH514T12425   2.770   1.369   4.495
    1ECLIP  C3312426   2.388   1.431   6.061
    1ECLIP H33R12427   2.297   1.385   6.106
    1ECLIP  O3312428   2.489   1.441   6.160
    1ECLIP HO3312429   2.475   1.511   6.222
    1ECLIP  C3412430   2.437   1.340   5.947
    1ECLIP H34R12431   2.525   1.391   5.901
    1ECLIP H34S12432   2.358   1.334   5.870
    1ECLIP  C3512433   2.486   1.198   5.981
    1ECLIP H35R12434   2.401   1.131   6.003
    1ECLIP H35S12435   2.553   1.202   6.070
    1ECLIP  C3612436   2.566   1.152   5.859
    1ECLIP H36R12437   2.644   1.229   5.844
    1ECLIP H36S12438   2.498   1.155   5.771
    1ECLIP  C3712439   2.639   1.018   5.863
    1ECLIP H37R12440   2.564   0.936   5.849
    1ECLIP H37S12441   2.689   1.004   5.962
    1ECLIP  C3812442   2.746   1.011   5.752
    1ECLIP H38R12443   2.836   1.065   5.787
    1ECLIP H38S12444   2.775   0.905   5.733
    1ECLIP  C3912445   2.699   1.078   5.622
    1ECLIP H39R12446   2.684   1.186   5.641
    1ECLIP H39S12447   2.602   1.035   5.590
    1ECLIP C31012448   2.799   1.071   5.507
    1ECLIPH310R12449   2.815   0.964   5.480
    1ECLIPH310S12450   2.896   1.114   5.539
    1ECLIP C31112451   2.751   1.146   5.382
    1ECLIPH311R12452   2.646   1.117   5.361
    1ECLIPH311S12453   2.756   1.255   5.401
    1ECLIP C31212454   2.838   1.112   5.262
    1ECLIPH312R12455   2.942   1.143   5.285
    1ECLIPH312S12456   2.835   1.002   5.250
    1ECLIP C31312457   2.796   1.174   5.129
    1ECLIPH313R12458   2.703   1.125   5.094
    1ECLIPH313S12459   2.775   1.282   5.142
    1ECLIP C31412460   2.907   1.156   5.025
    1ECLIPH314R12461   2.939   1.050   5.019
    1ECLIPH314S12462   2.875   1.189   4.924
    1ECLIPH314T12463   2.998   1.213   5.056
    1ECLIP  C1112464   2.806   1.859   5.735
    1ECLIP  O1112465   2.914   1.801   5.729
    1ECLIP  C1212466   2.770   1.959   5.627
    1ECLIP H12R12467   2.847   2.038   5.634
    1ECLIP H12S12468   2.671   2.005   5.649
    1ECLIP  C1312469   2.771   1.894   5.486
    1ECLIP H13R12470   2.833   1.802   5.485
    1ECLIP  O1312471   2.831   1.985   5.395
    1ECLIP HO1312472   2.783   2.068   5.391
    1ECLIP  C1412473   2.629   1.862   5.433
    1ECLIP H14R12474   2.562   1.947   5.459
    1ECLIP H14S12475   2.592   1.774   5.490
    1ECLIP  C1512476   2.616   1.839   5.280
    1ECLIP H15R12477   2.634   1.936   5.230
    1ECLIP H15S12478   2.511   1.810   5.259
    1ECLIP  C1612479   2.710   1.734   5.219
    1ECLIP H16R12480   2.675   1.633   5.247
    1ECLIP H16S12481   2.813   1.746   5.260
    1ECLIP  C1712482   2.721   1.746   5.064
    1ECLIP H17R12483   2.620   1.769   5.024
    1ECLIP H17S12484   2.754   1.649   5.023
    1ECLIP  C1812485   2.821   1.855   5.023
    1ECLIP H18R12486   2.805   1.940   5.094
    1ECLIP H18S12487   2.925   1.821   5.042
    1ECLIP  C1912488   2.809   1.913   4.881
    1ECLIP H19R12489   2.866   2.008   4.884
    1ECLIP H19S12490   2.703   1.936   4.859
    1ECLIP C11012491   2.874   1.836   4.766
    1ECLIPH110R12492   2.973   1.798   4.799
    1ECLIPH110S12493   2.809   1.752   4.736
    1ECLIP C11112494   2.899   1.928   4.645
    1ECLIPH111R12495   2.804   1.982   4.625
    1ECLIPH111S12496   2.974   2.005   4.671
    1ECLIP C11212497   2.940   1.856   4.516
    1ECLIPH112R12498   3.050   1.844   4.513
    1ECLIPH112S12499   2.895   1.754   4.516
    1ECLIP C11312500   2.890   1.932   4.392
    1ECLIPH113R12501   2.779   1.934   4.396
    1ECLIPH113S12502   2.926   2.037   4.399
    1ECLIP C11412503   2.933   1.873   4.259
    1ECLIPH114R12504   3.042   1.890   4.242
    1ECLIPH114S12505   2.914   1.763   4.255
    1ECLIPH114T12506   2.878   1.921   4.175
    2AKDO    C112507   2.970   1.347   6.852
    2AKDO   O1112508   3.052   1.252   6.837
    2AKDO   O1212509   2.844   1.336   6.858
    2AKDO    C212510   3.028   1.485   6.899
    2AKDO    C612511   3.215   1.585   7.013
    2AKDO    H612512   3.221   1.654   6.926
    2AKDO    O612513   3.153   1.464   6.969
    2AKDO    C312514   2.940   1.561   7.002
    2AKDO   H3112515   2.926   1.495   7.090
    2AKDO   H3212516   2.841   1.581   6.954
    2AKDO    C412517   2.996   1.689   7.056
    2AKDO    H412518   3.008   1.765   6.976
    2AKDO    O412519   2.914   1.738   7.162
    2AKDO    C512520   3.131   1.657   7.120
    2AKDO    H512521   3.179   1.756   7.137
    2AKDO    O512522   3.120   1.589   7.249
    2AKDO    C712523   3.356   1.541   7.045
    2AKDO    H712524   3.351   1.464   7.124
    2AKDO    O712525   3.438   1.650   7.091
    2AKDO   HO712526   3.404   1.730   7.050
    2AKDO    C812527   3.417   1.478   6.919
    2AKDO   H8112528   3.353   1.394   6.885
    2AKDO   H8212529   3.417   1.553   6.837
    2AKDO    O812530   3.548   1.423   6.932
    2AKDO   HO812531   3.571   1.417   6.839
    3AKDO    C112532   2.821   1.941   7.054
    3AKDO   O1112533   2.735   1.963   6.964
    3AKDO   O1212534   2.896   2.029   7.106
    3AKDO    C212535   2.795   1.814   7.143
    3AKDO    C612536   2.650   1.619   7.181
    3AKDO    H612537   2.738   1.551   7.181
    3AKDO    O612538   2.681   1.735   7.098
    3AKDO    C312539   2.765   1.856   7.288
    3AKDO   H3112540   2.678   1.925   7.288
    3AKDO   H3212541   2.851   1.915   7.327
    3AKDO    C412542   2.740   1.739   7.377
    3AKDO    H412543   2.827   1.671   7.375
    3AKDO    O412544   2.721   1.782   7.511
    3AKDO   HO412545   2.804   1.817   7.543
    3AKDO    C512546   2.621   1.663   7.322
    3AKDO    H512547   2.604   1.573   7.385
    3AKDO    O512548   2.502   1.741   7.323
    3AKDO   HO512549   2.512   1.800   7.248
    3AKDO    C712550   2.532   1.544   7.120
    3AKDO    H712551   2.441   1.609   7.120
    3AKDO    O712552   2.503   1.424   7.194
    3AKDO   HO712553   2.469   1.371   7.122
    3AKDO    C812554   2.557   1.504   6.976
    3AKDO   H8112555   2.580   1.593   6.915
    3AKDO   H8212556   2.644   1.435   6.969
    3AKDO    O812557   2.440   1.439   6.922
    3AKDO   HO812558   2.405   1.500   6.858
    4AHEP    C112559   3.220   1.623   7.346
    4AHEP    H112560   3.316   1.585   7.307
    4AHEP    C512561   3.123   1.828   7.425
    4AHEP    H512562   3.035   1.798   7.365
    4AHEP    O512563   3.237   1.764   7.363
    4AHEP    C212564   3.204   1.562   7.486
    4AHEP    H212565   3.180   1.454   7.472
    4AHEP    O212566   3.326   1.567   7.561
    4AHEP   HO212567   3.350   1.660   7.563
    4AHEP    C312568   3.088   1.625   7.561
    4AHEP    H312569   2.992   1.596   7.512
    4AHEP    O312570   3.090   1.588   7.701
    4AHEP    C412571   3.106   1.774   7.566
    4AHEP    H412572   3.196   1.799   7.627
    4AHEP    O412573   2.986   1.828   7.622
    4AHEP    P412574   2.983   1.920   7.757
    4AHEP  OP4212575   2.841   1.902   7.811
    4AHEP  OP4312576   3.016   2.060   7.710
    4AHEP  OP4412577   3.089   1.864   7.851
    4AHEP    C612578   3.130   1.981   7.414
    4AHEP    H612579   3.028   2.020   7.432
    4AHEP    O612580   3.214   2.036   7.517
    4AHEP   HO612581   3.155   2.042   7.592
    4AHEP    C712582   3.175   2.029   7.276
    4AHEP   H7112583   3.160   2.139   7.270
    4AHEP   H7212584   3.109   1.982   7.201
    4AHEP    O712585   3.310   1.999   7.240
    4AHEP   HO712586   3.359   2.081   7.248
    5AHEP    C112587   2.971   1.540   7.759
    5AHEP    H112588   2.883   1.587   7.712
    5AHEP    C512589   3.090   1.336   7.793
    5AHEP    H512590   3.180   1.380   7.743
    5AHEP    O512591   2.970   1.398   7.742
    5AHEP    C212592   2.971   1.565   7.910
    5AHEP    H212593   2.976   1.675   7.924
    5AHEP    O212594   2.848   1.523   7.970
    5AHEP   HO212595   2.791   1.599   7.960
    5AHEP    C312596   3.095   1.507   7.974
    5AHEP    H312597   3.184   1.559   7.931
    5AHEP    O312598   3.091   1.523   8.118
    5AHEP    C412599   3.101   1.358   7.945
    5AHEP    H412600   3.019   1.308   7.999
    5AHEP    O412601   3.231   1.319   7.992
    5AHEP    P412602   3.265   1.175   8.061
    5AHEP  OP4212603   3.401   1.182   8.124
    5AHEP  OP4312604   3.271   1.066   7.955
    5AHEP  OP4412605   3.174   1.146   8.177
    5AHEP    C612606   3.074   1.195   7.741
    5AHEP    H612607   3.171   1.142   7.749
    5AHEP    O612608   2.977   1.126   7.821
    5AHEP   HO612609   2.914   1.196   7.837
    5AHEP    C712610   3.032   1.192   7.592
    5AHEP   H7112611   3.109   1.140   7.533
    5AHEP   H7212612   3.034   1.294   7.549
    5AHEP    O712613   2.904   1.129   7.569
    6AHEP    C112614   2.808   1.222   7.524
    6AHEP    H112615   2.810   1.312   7.590
    6AHEP    C512616   2.827   1.156   7.295
    6AHEP    H512617   2.892   1.074   7.332
    6AHEP    O512618   2.834   1.264   7.391
    6AHEP    C212619   2.669   1.162   7.530
    6AHEP    H212620   2.658   1.120   7.631
    6AHEP    O212621   2.564   1.258   7.509
    6AHEP   HO212622   2.595   1.320   7.443
    6AHEP    C312623   2.655   1.050   7.429
    6AHEP    H312624   2.731   0.972   7.448
    6AHEP    O312625   2.525   0.988   7.436
    6AHEP   HO312626   2.527   0.929   7.360
    6AHEP    C412627   2.683   1.105   7.292
    6AHEP    H412628   2.617   1.191   7.269
    6AHEP    O412629   2.658   1.007   7.193
    6AHEP   HO412630   2.648   1.049   7.108
    6AHEP    C612631   2.882   1.195   7.161
    6AHEP    H612632   2.870   1.112   7.089
    6AHEP    O612633   2.802   1.302   7.115
    6AHEP   HO612634   2.821   1.312   7.021
    6AHEP    C712635   3.032   1.225   7.169
    6AHEP   H7112636   3.071   1.258   7.071
    6AHEP   H7212637   3.085   1.130   7.193
    6AHEP    O712638   3.073   1.319   7.269
    6AHEP   HO712639   3.056   1.405   7.230
    7AGLC    C112640   3.148   1.641   8.169
    7AGLC    H112641   3.247   1.659   8.120
    7AGLC    C512642   2.940   1.751   8.214
    7AGLC    H512643   2.888   1.659   8.179
    7AGLC    O512644   3.069   1.758   8.151
    7AGLC    C212645   3.169   1.622   8.319
    7AGLC    H212646   3.226   1.709   8.358
    7AGLC    O212647   3.248   1.505   8.339
    7AGLC   HO212648   3.221   1.446   8.268
    7AGLC    C312649   3.037   1.613   8.396
    7AGLC    H312650   2.980   1.526   8.358
    7AGLC    O312651   3.055   1.601   8.540
    7AGLC    C412652   2.959   1.739   8.365
    7AGLC    H412653   3.020   1.826   8.398
    7AGLC    O412654   2.834   1.745   8.433
    7AGLC   HO412655   2.823   1.837   8.457
    7AGLC    C612656   2.860   1.870   8.165
    7AGLC   H6112657   2.891   1.897   8.062
    7AGLC   H6212658   2.752   1.842   8.160
    7AGLC    O612659   2.871   1.984   8.252
    7AGLC   HO612660   2.936   2.044   8.214
    8AGLC    C112661   3.008   1.480   8.598
    8AGLC    H112662   2.911   1.451   8.554
    8AGLC    C512663   3.234   1.401   8.628
    8AGLC    H512664   3.266   1.500   8.590
    8AGLC    O512665   3.102   1.374   8.575
    8AGLC    C212666   2.995   1.488   8.750
    8AGLC    H212667   2.963   1.386   8.781
    8AGLC    O212668   2.897   1.580   8.802
    8AGLC    C312669   3.130   1.522   8.815
    8AGLC    H312670   3.164   1.615   8.766
    8AGLC    O312671   3.124   1.556   8.957
    8AGLC    C412672   3.229   1.412   8.781
    8AGLC    H412673   3.193   1.316   8.822
    8AGLC    O412674   3.360   1.441   8.834
    8AGLC   HO412675   3.387   1.518   8.782
    8AGLC    C612676   3.331   1.298   8.570
    8AGLC   H6112677   3.383   1.347   8.485
    8AGLC   H6212678   3.409   1.269   8.644
    8AGLC    O612679   3.264   1.182   8.520
    8AGLC   HO612680   3.171   1.203   8.528
    9AGAL    C112681   2.771   1.597   8.741
    9AGAL    H112682   2.778   1.601   8.630
    9AGAL    C512683   2.654   1.488   8.920
    9AGAL    H512684   2.752   1.464   8.967
    9AGAL    O512685   2.675   1.497   8.778
    9AGAL    C212686   2.725   1.732   8.792
    9AGAL    H212687   2.627   1.757   8.747
    9AGAL    O212688   2.823   1.820   8.735
    9AGAL    C312689   2.711   1.728   8.943
    9AGAL    H312690   2.809   1.697   8.986
    9AGAL    O312691   2.681   1.854   9.003
    9AGAL   HO312692   2.752   1.915   8.979
    9AGAL    C412693   2.608   1.622   8.980
    9AGAL    H412694   2.609   1.611   9.090
    9AGAL    O412695   2.474   1.657   8.946
    9AGAL   HO412696   2.458   1.648   8.852
    9AGAL    C612697   2.562   1.370   8.948
    9AGAL   H6112698   2.612   1.276   8.915
    9AGAL   H6212699   2.542   1.362   9.057
    9AGAL    O612700   2.437   1.376   8.878
    9AGAL   HO612701   2.456   1.371   8.785
   10AGAL    C112702   2.835   1.953   8.775
   10AGAL    H112703   2.734   1.998   8.781
   10AGAL    C512704   3.033   1.896   8.894
   10AGAL    H512705   3.019   1.791   8.858
   10AGAL    O512706   2.904   1.960   8.901
   10AGAL    C212707   2.916   2.026   8.669
   10AGAL    H212708   2.926   2.132   8.698
   10AGAL    O212709   2.847   2.020   8.544
   10AGAL   HO212710   2.846   2.105   8.500
   10AGAL    C312711   3.055   1.964   8.658
   10AGAL    H312712   3.044   1.858   8.627
   10AGAL    O312713   3.137   2.029   8.562
   10AGAL   HO312714   3.089   2.044   8.480
   10AGAL    C412715   3.123   1.967   8.794
   10AGAL    H412716   3.218   1.911   8.786
   10AGAL    O412717   3.154   2.100   8.835
   10AGAL   HO412718   3.185   2.147   8.757
   10AGAL    C612719   3.091   1.883   9.035
   10AGAL   H6112720   3.018   1.830   9.099
   10AGAL   H6212721   3.183   1.822   9.030
   10AGAL    O612722   3.121   2.010   9.092
   10AGAL   HO612723   3.134   2.069   9.017
   11BGLC    C112724   3.104   1.454   9.052
   11BGLC    H112725   3.199   1.399   9.069
   11BGLC    C512726   2.984   1.250   9.089
   11BGLC    H512727   3.079   1.195   9.105
   11BGLC    O512728   3.007   1.363   9.004
   11BGLC    C212729   3.052   1.510   9.184
   11BGLC    H212730   2.958   1.565   9.163
   11BGLC    O212731   3.147   1.601   9.241
   11BGLC   HO212732   3.101   1.662   9.299
   11BGLC    C312733   3.024   1.398   9.283
   11BGLC    H312734   3.118   1.347   9.312
   11BGLC    O312735   2.954   1.448   9.398
   11BGLC    C412736   2.928   1.300   9.220
   11BGLC    H412737   2.831   1.350   9.201
   11BGLC    O412738   2.906   1.190   9.307
   11BGLC   HO412739   2.913   1.221   9.398
   11BGLC    C612740   2.891   1.163   9.007
   11BGLC   H6112741   2.862   1.072   9.064
   11BGLC   H6212742   2.799   1.219   8.983
   11BGLC    O612743   2.953   1.125   8.884
   11BGLC   HO612744   2.957   1.030   8.877
   12BGLCN   C112745   3.010   1.434   9.526
   12BGLCN   H112746   3.097   1.501   9.535
   12BGLCN   C512747   3.104   1.285   9.688
   12BGLCN   H512748   3.189   1.356   9.700
   12BGLCN   O512749   3.049   1.299   9.554
   12BGLCN   C212750   2.899   1.475   9.623
   12BGLCN   H212751   2.819   1.398   9.613
   12BGLCN    N12752   2.845   1.605   9.589
   12BGLCN   HN12753   2.912   1.678   9.580
   12BGLCN    C12754   2.715   1.628   9.562
   12BGLCN    O12755   2.626   1.545   9.582
   12BGLCN   CT12756   2.679   1.764   9.509
   12BGLCN  HT112757   2.606   1.813   9.577
   12BGLCN  HT212758   2.632   1.754   9.410
   12BGLCN  HT312759   2.770   1.828   9.500
   12BGLCN   C312760   2.950   1.465   9.767
   12BGLCN   H312761   3.038   1.532   9.775
   12BGLCN   O312762   2.852   1.505   9.865
   12BGLCN   C412763   2.997   1.322   9.789
   12BGLCN   H412764   2.910   1.254   9.774
   12BGLCN   O412765   3.042   1.300   9.922
   12BGLCN  HO412766   3.100   1.370   9.953
   12BGLCN   C612767   3.160   1.144   9.702
   12BGLCN  H6112768   3.170   1.118   9.809
   12BGLCN  H6212769   3.090   1.070   9.656
   12BGLCN   O612770   3.289   1.129   9.642
   12BGLCN  HO612771   3.344   1.074   9.700
   13AGAL    C112772   2.903   1.594   9.964
   13AGAL    H112773   3.006   1.564   9.993
   13AGAL    C512774   2.773   1.781   9.885
   13AGAL    H512775   2.725   1.710   9.815
   13AGAL    O512776   2.905   1.729   9.915
   13AGAL    C212777   2.819   1.598  10.092
   13AGAL    H212778   2.865   1.678  10.155
   13AGAL    O212779   2.823   1.475  10.167
   13AGAL    C312780   2.677   1.643  10.063
   13AGAL    H312781   2.635   1.575   9.986
   13AGAL    O312782   2.593   1.634  10.179
   13AGAL   HO312783   2.513   1.587  10.155
   13AGAL    C412784   2.683   1.785  10.009
   13AGAL    H412785   2.581   1.815   9.978
   13AGAL    O412786   2.730   1.879  10.105
   13AGAL   HO412787   2.825   1.873  10.109
   13AGAL    C612788   2.785   1.913   9.811
   13AGAL   H6112789   2.845   1.897   9.719
   13AGAL   H6212790   2.685   1.948   9.780
   13AGAL    O612791   2.849   2.016   9.888
   13AGAL   HO612792   2.789   2.042   9.959
   14ARHM    C112793   2.889   1.481  10.292
   14ARHM    H112794   2.953   1.572  10.299
   14ARHM    C512795   2.914   1.247  10.297
   14ARHM    H512796   2.866   1.237  10.197
   14ARHM    O512797   2.980   1.373  10.306
   14ARHM    C212798   2.787   1.479  10.405
   14ARHM    H212799   2.717   1.564  10.389
   14ARHM    O212800   2.841   1.487  10.536
   14ARHM    C312801   2.709   1.350  10.398
   14ARHM    H312802   2.658   1.343  10.299
   14ARHM    O312803   2.608   1.344  10.499
   14ARHM   HO312804   2.645   1.295  10.573
   14ARHM    C412805   2.809   1.235  10.408
   14ARHM    H412806   2.863   1.245  10.505
   14ARHM    O412807   2.743   1.109  10.413
   14ARHM   HO412808   2.719   1.083  10.325
   14ARHM    C612809   3.034   1.152  10.304
   14ARHM   H6112810   3.120   1.194  10.247
   14ARHM   H6212811   3.067   1.138  10.410
   14ARHM   H6312812   3.011   1.054  10.259
   15ARHM    C112813   2.942   1.583  10.557
   15ARHM    H112814   2.928   1.670  10.490
   15ARHM    C512815   3.104   1.419  10.629
   15ARHM    H512816   3.034   1.336  10.609
   15ARHM    O512817   3.074   1.528  10.540
   15ARHM    C212818   2.927   1.630  10.700
   15ARHM    H212819   2.824   1.669  10.714
   15ARHM    O212820   3.020   1.738  10.714
   15ARHM    C312821   2.949   1.514  10.794
   15ARHM    H312822   2.879   1.432  10.764
   15ARHM    O312823   2.918   1.551  10.929
   15ARHM    C412824   3.090   1.463  10.774
   15ARHM    H412825   3.162   1.546  10.792
   15ARHM    O412826   3.123   1.359  10.866
   15ARHM   HO412827   3.218   1.345  10.859
   15ARHM    C612828   3.246   1.371  10.594
   15ARHM   H6112829   3.275   1.283  10.653
   15ARHM   H6212830   3.249   1.343  10.485
   15ARHM   H6312831   3.320   1.452  10.609
   16BMANN   C112832   3.032   1.795  10.839
   16BMANN   H112833   3.083   1.722  10.906
   16BMANN   C512834   2.914   1.876  11.029
   16BMANN   H512835   2.960   1.797  11.092
   16BMANN   O512836   2.903   1.828  10.894
   16BMANN   C212837   3.119   1.918  10.828
   16BMANN   H212838   3.218   1.886  10.790
   16BMANN    N12839   3.065   2.020  10.737
   16BMANN   HN12840   3.011   2.092  10.778
   16BMANN    C12841   3.089   2.026  10.605
   16BMANN    O12842   3.157   1.944  10.545
   16BMANN   CT12843   3.025   2.141  10.532
   16BMANN  HT112844   3.100   2.222  10.517
   16BMANN  HT212845   2.939   2.181  10.589
   16BMANN  HT312846   2.989   2.106  10.433
   16BMANN   C312847   3.138   1.969  10.970
   16BMANN   H312848   3.186   1.888  11.030
   16BMANN   O312849   3.226   2.081  10.972
   16BMANN  HO312850   3.262   2.089  11.061
   16BMANN   C412851   3.002   2.000  11.030
   16BMANN   H412852   2.953   2.077  10.967
   16BMANN   O412853   3.013   2.051  11.163
   16BMANN  HO412854   2.928   2.080  11.196
   16BMANN   C612855   2.771   1.899  11.075
   16BMANN  H6112856   2.769   1.938  11.179
   16BMANN  H6212857   2.723   1.974  11.009
   16BMANN   O612858   2.693   1.779  11.069
   16BMANN  HO612859   2.710   1.736  10.985
   17BGLCN   C112860   2.851   1.451  11.002
   17BGLCN   H112861   2.893   1.351  10.977
   17BGLCN   C512862   2.640   1.353  11.050
   17BGLCN   H512863   2.684   1.254  11.026
   17BGLCN   O512864   2.711   1.454  10.975
   17BGLCN   C212865   2.875   1.483  11.148
   17BGLCN   H212866   2.824   1.580  11.170
   17BGLCN    N12867   3.017   1.506  11.168
   17BGLCN   HN12868   3.076   1.478  11.092
   17BGLCN    C12869   3.071   1.573  11.270
   17BGLCN    O12870   3.007   1.620  11.363
   17BGLCN   CT12871   3.221   1.587  11.266
   17BGLCN  HT112872   3.248   1.689  11.231
   17BGLCN  HT212873   3.265   1.512  11.197
   17BGLCN  HT312874   3.263   1.572  11.367
   17BGLCN   C312875   2.807   1.373  11.231
   17BGLCN   H312876   2.844   1.277  11.189
   17BGLCN   O312877   2.839   1.379  11.371
   17BGLCN   C412878   2.658   1.381  11.199
   17BGLCN   H412879   2.622   1.484  11.220
   17BGLCN   O412880   2.580   1.292  11.277
   17BGLCN  HO412881   2.566   1.334  11.363
   17BGLCN   C612882   2.496   1.350  11.000
   17BGLCN  H6112883   2.441   1.269  11.054
   17BGLCN  H6212884   2.447   1.446  11.024
   17BGLCN   O612885   2.488   1.328  10.859
   17BGLCN  HO612886   2.536   1.250  10.832
   18AGAL    C112887   2.848   1.255  11.439
   18AGAL    H112888   2.746   1.213  11.453
   18AGAL    C512889   3.062   1.202  11.350
   18AGAL    H512890   3.059   1.305  11.308
   18AGAL    O512891   2.926   1.158  11.366
   18AGAL    C212892   2.910   1.269  11.578
   18AGAL    H212893   2.912   1.167  11.621
   18AGAL    O212894   2.826   1.350  11.663
   18AGAL    C312895   3.054   1.319  11.565
   18AGAL    H312896   3.051   1.416  11.510
   18AGAL    O312897   3.118   1.344  11.691
   18AGAL   HO312898   3.178   1.418  11.684
   18AGAL    C412899   3.134   1.218  11.484
   18AGAL    H412900   3.236   1.259  11.464
   18AGAL    O412901   3.149   1.096  11.555
   18AGAL   HO412902   3.148   1.117  11.648
   18AGAL    C612903   3.131   1.123  11.241
   18AGAL   H6112904   3.065   1.119  11.151
   18AGAL   H6212905   3.224   1.176  11.210
   18AGAL    O612906   3.165   0.991  11.279
   18AGAL   HO612907   3.093   0.954  11.329
   19ARHM    C112908   2.831   1.313  11.800
   19ARHM    H112909   2.932   1.277  11.828
   19ARHM    C512910   2.603   1.240  11.811
   19ARHM    H512911   2.590   1.268  11.703
   19ARHM    O512912   2.740   1.207  11.835
   19ARHM    C212913   2.798   1.436  11.883
   19ARHM    H212914   2.856   1.520  11.838
   19ARHM    O212915   2.837   1.425  12.022
   19ARHM    C312916   2.653   1.476  11.863
   19ARHM    H312917   2.637   1.500  11.755
   19ARHM    O312918   2.622   1.592  11.939
   19ARHM   HO312919   2.678   1.595  12.016
   19ARHM    C412920   2.564   1.358  11.898
   19ARHM    H412921   2.583   1.330  12.005
   19ARHM    O412922   2.424   1.387  11.887
   19ARHM   HO412923   2.398   1.397  11.797
   19ARHM    C612924   2.521   1.112  11.835
   19ARHM   H6112925   2.556   1.031  11.769
   19ARHM   H6212926   2.531   1.080  11.941
   19ARHM   H6312927   2.413   1.131  11.814
   20ARHM    C112928   2.976   1.442  12.043
   20ARHM    H112929   3.021   1.504  11.963
   20ARHM    C512930   3.008   1.230  12.151
   20ARHM    H512931   2.902   1.199  12.135
   20ARHM    O512932   3.048   1.317  12.045
   20ARHM    C212933   2.995   1.513  12.175
   20ARHM    H212934   2.934   1.606  12.176
   20ARHM    O212935   3.132   1.548  12.200
   20ARHM    C312936   2.949   1.426  12.290
   20ARHM    H312937   2.840   1.407  12.277
   20ARHM    O312938   2.976   1.494  12.412
   20ARHM    C412939   3.025   1.296  12.286
   20ARHM    H412940   3.133   1.318  12.300
   20ARHM    O412941   2.984   1.209  12.392
   20ARHM   HO412942   2.888   1.202  12.392
   20ARHM    C612943   3.100   1.107  12.134
   20ARHM   H6112944   3.206   1.140  12.135
   20ARHM   H6212945   3.085   1.035  12.217
   20ARHM   H6312946   3.081   1.057  12.036
   21BMANN   C112947   3.189   1.646  12.116
   21BMANN   H112948   3.111   1.694  12.051
   21BMANN   C512949   3.359   1.681  11.950
   21BMANN   H512950   3.284   1.734  11.887
   21BMANN   O512951   3.291   1.586  12.034
   21BMANN   C212952   3.252   1.747  12.208
   21BMANN   H212953   3.167   1.798  12.258
   21BMANN    N12954   3.334   1.685  12.312
   21BMANN   HN12955   3.381   1.600  12.287
   21BMANN    C12956   3.338   1.727  12.439
   21BMANN    O12957   3.278   1.826  12.478
   21BMANN   CT12958   3.421   1.646  12.534
   21BMANN  HT112959   3.529   1.670  12.522
   21BMANN  HT212960   3.403   1.538  12.517
   21BMANN  HT312961   3.390   1.671  12.638
   21BMANN   C312962   3.324   1.850  12.123
   21BMANN   H312963   3.250   1.892  12.054
   21BMANN   O312964   3.367   1.962  12.200
   21BMANN  HO312965   3.444   1.942  12.255
   21BMANN   C412966   3.431   1.784  12.037
   21BMANN   H412967   3.504   1.731  12.103
   21BMANN   O412968   3.504   1.877  11.957
   21BMANN  HO412969   3.592   1.844  11.939
   21BMANN   C612970   3.450   1.604  11.856
   21BMANN  H6112971   3.498   1.675  11.784
   21BMANN  H6212972   3.532   1.554  11.911
   21BMANN   O612973   3.377   1.506  11.780
   21BMANN  HO612974   3.381   1.424  11.831
   22BGLCN   C112975   2.873   1.495  12.506
   22BGLCN   H112976   2.809   1.404  12.498
   22BGLCN   C512977   2.693   1.625  12.592
   22BGLCN   H512978   2.629   1.534  12.590
   22BGLCN   O512979   2.795   1.614  12.492
   22BGLCN   C212980   2.945   1.498  12.641
   22BGLCN   H212981   3.005   1.591  12.641
   22BGLCN    N12982   3.036   1.385  12.655
   22BGLCN   HN12983   3.009   1.300  12.609
   22BGLCN    C12984   3.155   1.391  12.715
   22BGLCN    O12985   3.203   1.495  12.759
   22BGLCN   CT12986   3.231   1.262  12.728
   22BGLCN  HT112987   3.328   1.271  12.675
   22BGLCN  HT212988   3.173   1.178  12.686
   22BGLCN  HT312989   3.251   1.242  12.836
   22BGLCN   C312990   2.843   1.508  12.752
   22BGLCN   H312991   2.775   1.420  12.746
   22BGLCN   O312992   2.915   1.501  12.877
   22BGLCN   C412993   2.761   1.634  12.728
   22BGLCN   H412994   2.830   1.721  12.727
   22BGLCN   O412995   2.665   1.659  12.831
   22BGLCN  HO412996   2.683   1.745  12.868
   22BGLCN   C612997   2.604   1.743  12.557
   22BGLCN  H6112998   2.528   1.757  12.637
   22BGLCN  H6212999   2.664   1.836  12.550
   22BGLCN   O613000   2.534   1.722  12.433
   22BGLCN  HO613001   2.577   1.770  12.363
   23AGAL    C113002   2.844   1.471  12.995
   23AGAL    H113003   2.776   1.555  13.019
   23AGAL    C513004   2.847   1.233  12.965
   23AGAL    H513005   2.907   1.249  12.873
   23AGAL    O513006   2.766   1.350  12.985
   23AGAL    C213007   2.943   1.458  13.109
   23AGAL    H213008   2.885   1.446  13.203
   23AGAL    O213009   3.025   1.576  13.117
   23AGAL    C313010   3.032   1.337  13.092
   23AGAL    H313011   3.092   1.350  12.999
   23AGAL    O313012   3.123   1.325  13.201
   23AGAL   HO313013   3.079   1.270  13.266
   23AGAL    C413014   2.945   1.214  13.082
   23AGAL    H413015   3.011   1.127  13.058
   23AGAL    O413016   2.878   1.186  13.203
   23AGAL   HO413017   2.801   1.134  13.179
   23AGAL    C613018   2.756   1.114  12.937
   23AGAL   H6113019   2.682   1.144  12.860
   23AGAL   H6213020   2.816   1.031  12.894
   23AGAL    O613021   2.686   1.065  13.052
   23AGAL   HO613022   2.616   1.004  13.027
   24ARHM    C113023   2.983   1.675  13.207
   24ARHM    H113024   2.873   1.673  13.214
   24ARHM    C513025   3.159   1.822  13.147
   24ARHM    H513026   3.200   1.746  13.076
   24ARHM    O513027   3.017   1.806  13.158
   24ARHM    C213028   3.045   1.648  13.342
   24ARHM    H213029   3.025   1.543  13.370
   24ARHM    O213030   2.990   1.736  13.440
   24ARHM    C313031   3.195   1.664  13.335
   24ARHM    H313032   3.236   1.590  13.262
   24ARHM    O313033   3.253   1.640  13.461
   24ARHM   HO313034   3.347   1.659  13.453
   24ARHM    C413035   3.226   1.804  13.283
   24ARHM    H413036   3.183   1.878  13.353
   24ARHM    O413037   3.367   1.827  13.276
   24ARHM   HO413038   3.383   1.922  13.274
   24ARHM    C613039   3.179   1.961  13.085
   24ARHM   H6113040   3.287   1.981  13.068
   24ARHM   H6213041   3.127   1.966  12.986
   24ARHM   H6313042   3.137   2.039  13.152
   25ARHM    C113043   2.875   1.686  13.503
   25ARHM    H113044   2.824   1.616  13.433
   25ARHM    C513045   2.831   1.885  13.624
   25ARHM    H513046   2.922   1.932  13.582
   25ARHM    O513047   2.780   1.789  13.531
   25ARHM    C213048   2.914   1.611  13.628
   25ARHM    H213049   2.997   1.540  13.606
   25ARHM    O213050   2.803   1.538  13.682
   25ARHM    C313051   2.970   1.708  13.731
   25ARHM    H313052   3.064   1.752  13.691
   25ARHM    O313053   2.997   1.632  13.849
   25ARHM    C413054   2.867   1.816  13.756
   25ARHM    H413055   2.775   1.768  13.797
   25ARHM    O413056   2.912   1.912  13.852
   25ARHM   HO413057   2.978   1.969  13.811
   25ARHM    C613058   2.722   1.993  13.635
   25ARHM   H6113059   2.699   2.034  13.536
   25ARHM   H6213060   2.629   1.949  13.679
   25ARHM   H6313061   2.757   2.075  13.701
   26BMANN   C113062   2.775   1.417  13.616
   26BMANN   H113063   2.868   1.369  13.581
   26BMANN   C513064   2.649   1.315  13.440
   26BMANN   H513065   2.744   1.269  13.406
   26BMANN   O513066   2.683   1.438  13.509
   26BMANN   C213067   2.707   1.329  13.718
   26BMANN   H213068   2.782   1.310  13.798
   26BMANN    N13069   2.593   1.396  13.783
   26BMANN   HN13070   2.559   1.476  13.734
   26BMANN    C13071   2.542   1.358  13.899
   26BMANN    O13072   2.587   1.261  13.960
   26BMANN   CT13073   2.427   1.437  13.954
   26BMANN  HT113074   2.381   1.500  13.875
   26BMANN  HT213075   2.462   1.500  14.038
   26BMANN  HT313076   2.350   1.366  13.993
   26BMANN   C313077   2.674   1.196  13.654
   26BMANN   H313078   2.768   1.152  13.614
   26BMANN   O313079   2.619   1.103  13.746
   26BMANN  HO313080   2.618   1.144  13.833
   26BMANN   C413081   2.580   1.219  13.536
   26BMANN   H413082   2.486   1.265  13.574
   26BMANN   O413083   2.547   1.097  13.470
   26BMANN  HO413084   2.536   1.032  13.540
   26BMANN   C613085   2.569   1.348  13.315
   26BMANN  H6113086   2.616   1.433  13.262
   26BMANN  H6213087   2.570   1.261  13.246
   26BMANN   O613088   2.432   1.381  13.345
   26BMANN  HO613089   2.385   1.298  13.357
   27BGLCN   C113090   3.099   1.677  13.933
   27BGLCN   H113091   3.112   1.787  13.926
   27BGLCN   C513092   3.328   1.651  13.995
   27BGLCN   H513093   3.340   1.762  13.991
   27BGLCN   O513094   3.223   1.611  13.905
   27BGLCN   C213095   3.054   1.636  14.072
   27BGLCN   H213096   3.047   1.525  14.074
   27BGLCN    N13097   2.921   1.689  14.102
   27BGLCN   HN13098   2.895   1.772  14.052
   27BGLCN    C13099   2.830   1.626  14.177
   27BGLCN    O13100   2.849   1.518  14.231
   27BGLCN   CT13101   2.697   1.696  14.194
   27BGLCN  HT113102   2.691   1.786  14.128
   27BGLCN  HT213103   2.686   1.728  14.300
   27BGLCN  HT313104   2.616   1.626  14.169
   27BGLCN   C313105   3.159   1.677  14.175
   27BGLCN   H313106   3.173   1.787  14.163
   27BGLCN   O313107   3.110   1.648  14.307
   27BGLCN   C413108   3.290   1.611  14.137
   27BGLCN   H413109   3.276   1.501  14.140
   27BGLCN   O413110   3.396   1.644  14.227
   27BGLCN  HO413111   3.422   1.736  14.214
   27BGLCN   C613112   3.458   1.588  13.949
   27BGLCN  H6113113   3.537   1.596  14.026
   27BGLCN  H6213114   3.441   1.480  13.929
   27BGLCN   O613115   3.509   1.650  13.829
   27BGLCN  HO613116   3.531   1.580  13.769
   28AGAL    C113117   3.175   1.709  14.417
   28AGAL    H113118   3.271   1.657  14.436
   28AGAL    C513119   3.080   1.925  14.375
   28AGAL    H513120   3.021   1.883  14.291
   28AGAL    O513121   3.202   1.849  14.392
   28AGAL    C213122   3.095   1.701  14.546
   28AGAL    H213123   3.155   1.760  14.618
   28AGAL    O213124   3.081   1.567  14.599
   28AGAL    C313125   2.962   1.772  14.530
   28AGAL    H313126   2.908   1.726  14.444
   28AGAL    O313127   2.878   1.756  14.645
   28AGAL   HO313128   2.786   1.771  14.623
   28AGAL    C413129   2.991   1.918  14.499
   28AGAL    H413130   2.895   1.967  14.473
   28AGAL    O413131   3.046   1.989  14.611
   28AGAL   HO413132   2.971   2.014  14.665
   28AGAL    C613133   3.119   2.067  14.335
   28AGAL   H6113134   3.167   2.066  14.234
   28AGAL   H6213135   3.028   2.130  14.329
   28AGAL    O613136   3.211   2.125  14.428
   28AGAL   HO613137   3.186   2.089  14.513
   29ARHM    C113138   3.114   1.561  14.736
   29ARHM    H113139   3.092   1.659  14.784
   29ARHM    C513140   3.287   1.400  14.698
   29ARHM    H513141   3.265   1.400  14.589
   29ARHM    O513142   3.254   1.529  14.754
   29ARHM    C213143   3.031   1.457  14.809
   29ARHM    H213144   2.924   1.481  14.791
   29ARHM    O213145   3.059   1.460  14.951
   29ARHM    C313146   3.059   1.320  14.752
   29ARHM    H313147   3.032   1.320  14.644
   29ARHM    O313148   2.981   1.220  14.817
   29ARHM   HO313149   3.020   1.137  14.791
   29ARHM    C413150   3.206   1.291  14.767
   29ARHM    H413151   3.232   1.292  14.875
   29ARHM    O413152   3.239   1.162  14.715
   29ARHM   HO413153   3.296   1.170  14.639
   29ARHM    C613154   3.439   1.383  14.717
   29ARHM   H6113155   3.494   1.466  14.668
   29ARHM   H6213156   3.465   1.382  14.825
   29ARHM   H6313157   3.474   1.287  14.671
   30ARHM    C113158   2.965   1.531  15.028
   30ARHM    H113159   2.863   1.498  15.001
   30ARHM    C513160   3.105   1.727  15.041
   30ARHM    H513161   3.184   1.675  14.982
   30ARHM    O513162   2.975   1.673  15.008
   30ARHM    C213163   2.991   1.501  15.174
   30ARHM    H213164   2.994   1.391  15.187
   30ARHM    O213165   2.889   1.556  15.259
   30ARHM    C313166   3.127   1.556  15.216
   30ARHM    H313167   3.202   1.507  15.150
   30ARHM    O313168   3.160   1.515  15.350
   30ARHM    C413169   3.134   1.705  15.189
   30ARHM    H413170   3.055   1.758  15.247
   30ARHM    O413171   3.260   1.762  15.224
   30ARHM   HO413172   3.328   1.694  15.218
   30ARHM    C613173   3.103   1.874  14.998
   30ARHM   H6113174   3.203   1.921  15.015
   30ARHM   H6213175   3.078   1.882  14.891
   30ARHM   H6313176   3.027   1.931  15.057
   31BMANN   C113177   2.771   1.480  15.275
   31BMANN   H113178   2.792   1.371  15.279
   31BMANN   C513179   2.550   1.442  15.191
   31BMANN   H513180   2.570   1.333  15.198
   31BMANN   O513181   2.675   1.512  15.173
   31BMANN   C213182   2.713   1.529  15.407
   31BMANN   H213183   2.784   1.498  15.487
   31BMANN    N13184   2.707   1.675  15.411
   31BMANN   HN13185   2.719   1.720  15.323
   31BMANN    C13186   2.696   1.748  15.522
   31BMANN    O13187   2.682   1.697  15.632
   31BMANN   CT13188   2.703   1.897  15.506
   31BMANN  HT113189   2.623   1.932  15.437
   31BMANN  HT213190   2.803   1.925  15.465
   31BMANN  HT313191   2.690   1.946  15.605
   31BMANN   C313192   2.582   1.457  15.433
   31BMANN   H313193   2.601   1.348  15.431
   31BMANN   O313194   2.530   1.485  15.564
   31BMANN  HO313195   2.573   1.564  15.598
   31BMANN   C413196   2.484   1.487  15.321
   31BMANN   H413197   2.465   1.596  15.316
   31BMANN   O413198   2.359   1.422  15.340
   31BMANN  HO413199   2.315   1.461  15.416
   31BMANN   C613200   2.464   1.461  15.067
   31BMANN  H6113201   2.366   1.410  15.082
   31BMANN  H6213202   2.444   1.568  15.048
   31BMANN   O613203   2.527   1.404  14.952
   31BMANN  HO613204   2.461   1.368  14.892
   32BGLCN   C113205   3.111   1.592  15.456
   32BGLCN   H113206   3.012   1.635  15.432
   32BGLCN   C513207   3.147   1.779  15.597
   32BGLCN   H513208   3.046   1.815  15.569
   32BGLCN   O513209   3.200   1.698  15.491
   32BGLCN   C213210   3.099   1.500  15.576
   32BGLCN   H213211   3.201   1.469  15.606
   32BGLCN    N13212   3.025   1.383  15.536
   32BGLCN   HN13213   2.970   1.392  15.454
   32BGLCN    C13214   3.043   1.261  15.587
   32BGLCN    O13215   3.117   1.236  15.681
   32BGLCN   CT13216   2.964   1.153  15.520
   32BGLCN  HT113217   2.904   1.193  15.435
   32BGLCN  HT213218   2.896   1.106  15.595
   32BGLCN  HT313219   3.034   1.076  15.481
   32BGLCN   C313220   3.037   1.581  15.689
   32BGLCN   H313221   2.943   1.624  15.650
   32BGLCN   O313222   3.005   1.505  15.808
   32BGLCN   C413223   3.134   1.693  15.722
   32BGLCN   H413224   3.233   1.650  15.747
   32BGLCN   O413225   3.090   1.770  15.833
   32BGLCN  HO413226   3.079   1.710  15.907
   32BGLCN   C613227   3.236   1.901  15.605
   32BGLCN  H6113228   3.200   1.970  15.685
   32BGLCN  H6213229   3.340   1.872  15.629
   32BGLCN   O613230   3.233   1.970  15.480
   32BGLCN  HO613231   3.261   1.906  15.413
   33AGAL    C113232   2.879   1.539  15.863
   33AGAL    H113233   2.855   1.646  15.846
   33AGAL    C513234   2.789   1.318  15.834
   33AGAL    H513235   2.888   1.285  15.794
   33AGAL    O513236   2.774   1.459  15.806
   33AGAL    C213237   2.882   1.515  16.014
   33AGAL    H213238   2.780   1.542  16.050
   33AGAL    O213239   2.976   1.604  16.078
   33AGAL    C313240   2.905   1.368  16.044
   33AGAL    H313241   3.001   1.339  15.996
   33AGAL    O313242   2.918   1.341  16.183
   33AGAL   HO313243   2.829   1.333  16.217
   33AGAL    C413244   2.793   1.288  15.983
   33AGAL    H413245   2.814   1.180  15.997
   33AGAL    O413246   2.667   1.316  16.044
   33AGAL   HO413247   2.600   1.309  15.976
   33AGAL    C613248   2.683   1.240  15.758
   33AGAL   H6113249   2.699   1.253  15.648
   33AGAL   H6213250   2.692   1.132  15.781
   33AGAL    O613251   2.549   1.282  15.788
   33AGAL   HO613252   2.531   1.361  15.737
   34ARHM    C113253   2.928   1.655  16.201
   34ARHM    H113254   2.879   1.574  16.259
   34ARHM    C513255   2.882   1.872  16.109
   34ARHM    H513256   2.916   1.840  16.008
   34ARHM    O513257   2.830   1.759  16.180
   34ARHM    C213258   3.045   1.710  16.281
   34ARHM    H213259   3.122   1.631  16.289
   34ARHM    O213260   3.010   1.752  16.414
   34ARHM    C313261   3.106   1.828  16.208
   34ARHM    H313262   3.143   1.793  16.109
   34ARHM    O313263   3.217   1.884  16.279
   34ARHM   HO313264   3.242   1.963  16.231
   34ARHM    C413265   2.999   1.932  16.186
   34ARHM    H413266   2.961   1.966  16.285
   34ARHM    O413267   3.051   2.046  16.117
   34ARHM   HO413268   3.013   2.126  16.154
   34ARHM    C613269   2.764   1.968  16.091
   34ARHM   H6113270   2.728   2.002  16.191
   34ARHM   H6213271   2.794   2.057  16.032
   34ARHM   H6313272   2.681   1.917  16.038
   35ARHM    C113273   2.958   1.654  16.500
   35ARHM    H113274   3.005   1.556  16.478
   35ARHM    C513275   2.750   1.770  16.508
   35ARHM    H513276   2.787   1.843  16.434
   35ARHM    O513277   2.815   1.643  16.488
   35ARHM    C213278   2.992   1.699  16.641
   35ARHM    H213279   3.102   1.714  16.645
   35ARHM    O213280   2.956   1.604  16.744
   35ARHM    C313281   2.927   1.832  16.669
   35ARHM    H313282   2.967   1.908  16.598
   35ARHM    O313283   2.961   1.876  16.801
   35ARHM   HO313284   3.012   1.807  16.843
   35ARHM    C413285   2.777   1.822  16.649
   35ARHM    H413286   2.735   1.751  16.723
   35ARHM    O413287   2.714   1.949  16.664
   35ARHM   HO413288   2.742   1.988  16.747
   35ARHM    C613289   2.601   1.743  16.479
   35ARHM   H6113290   2.589   1.707  16.375
   35ARHM   H6213291   2.562   1.666  16.549
   35ARHM   H6313292   2.542   1.837  16.492
   36BMANN   C113293   3.030   1.484  16.740
   36BMANN   H113294   3.134   1.503  16.707
   36BMANN   C513295   3.034   1.264  16.646
   36BMANN   H513296   3.136   1.283  16.608
   36BMANN   O513297   2.964   1.389  16.655
   36BMANN   C213298   3.030   1.425  16.881
   36BMANN   H213299   3.082   1.498  16.946
   36BMANN    N13300   2.894   1.410  16.932
   36BMANN   HN13301   2.822   1.421  16.864
   36BMANN    C13302   2.861   1.387  17.060
   36BMANN    O13303   2.946   1.370  17.147
   36BMANN   CT13304   2.715   1.380  17.093
   36BMANN  HT113305   2.671   1.286  17.053
   36BMANN  HT213306   2.662   1.467  17.049
   36BMANN  HT313307   2.702   1.382  17.204
   36BMANN   C313308   3.112   1.297  16.876
   36BMANN   H313309   3.211   1.322  16.834
   36BMANN   O313310   3.137   1.244  17.006
   36BMANN  HO313311   3.073   1.284  17.067
   36BMANN   C413312   3.044   1.198  16.784
   36BMANN   H413313   2.942   1.175  16.822
   36BMANN   O413314   3.117   1.076  16.776
   36BMANN  HO413315   3.152   1.060  16.864
   36BMANN   C613316   2.963   1.179  16.543
   36BMANN  H6113317   2.949   1.239  16.450
   36BMANN  H6213318   3.026   1.092  16.515
   36BMANN   O613319   2.834   1.133  16.587
   36BMANN  HO613320   2.842   1.061  16.650
    1ECLIP HB6S13321   1.271   3.864   6.653
    1ECLIP  OB613322   1.376   3.756   6.792
    1ECLIP  CB613323   1.375   3.860   6.690
    1ECLIP HB6R13324   1.399   3.958   6.735
    1ECLIP  CB513325   1.465   3.845   6.569
    1ECLIP  OB513326   1.439   3.717   6.514
    1ECLIP  HB513327   1.571   3.851   6.603
    1ECLIP  CB113328   1.518   3.683   6.400
    1ECLIP  HB113329   1.623   3.661   6.429
    1ECLIP  OA613330   1.458   3.571   6.339
    1ECLIP  CA613331   1.316   3.561   6.366
    1ECLIP HA6R13332   1.269   3.657   6.398
    1ECLIP HA6S13333   1.302   3.488   6.450
    1ECLIP  CB413334   1.440   3.949   6.457
    1ECLIP  HB413335   1.345   3.914   6.411
    1ECLIP  OB413336   1.423   4.084   6.505
    1ECLIP   PB13337   1.269   4.151   6.493
    1ECLIP OPB413338   1.259   4.283   6.569
    1ECLIP OPB313339   1.172   4.047   6.545
    1ECLIP OPB213340   1.232   4.153   6.346
    1ECLIP  CB313341   1.546   3.922   6.346
    1ECLIP  OB313342   1.555   4.019   6.240
    1ECLIP  HB313343   1.641   3.914   6.403
    1ECLIP  C7113344   1.681   4.027   6.188
    1ECLIP  O7113345   1.772   3.954   6.220
    1ECLIP  C7213346   1.689   4.101   6.054
    1ECLIP H72R13347   1.668   4.028   5.973
    1ECLIP H72S13348   1.794   4.136   6.043
    1ECLIP  CB213349   1.507   3.785   6.289
    1ECLIP  HB213350   1.400   3.792   6.261
    1ECLIP  NB213351   1.576   3.742   6.167
    1ECLIP HNB213352   1.666   3.701   6.179
    1ECLIP  CA413353   1.303   3.411   6.165
    1ECLIP  HA413354   1.397   3.454   6.124
    1ECLIP  OA413355   1.335   3.300   6.248
    1ECLIP HOA413356   1.430   3.287   6.241
    1ECLIP  CA513357   1.237   3.519   6.245
    1ECLIP  HA513358   1.139   3.483   6.282
    1ECLIP  OA513359   1.216   3.634   6.162
    1ECLIP  CA113360   1.126   3.608   6.054
    1ECLIP  HA113361   1.125   3.699   5.990
    1ECLIP  OA113362   0.995   3.584   6.102
    1ECLIP OPA213363   0.825   3.633   6.278
    1ECLIP OPA313364   0.997   3.815   6.227
    1ECLIP OPA413365   0.804   3.748   6.071
    1ECLIP   PA13366   0.909   3.704   6.172
    1ECLIP  CA313367   1.212   3.372   6.052
    1ECLIP  HA313368   1.114   3.342   6.096
    1ECLIP  OA313369   1.262   3.257   5.983
    1ECLIP  C3113370   1.383   3.271   5.926
    1ECLIP  O3113371   1.399   3.327   5.819
    1ECLIP  C3213372   1.476   3.160   5.976
    1ECLIP H32R13373   1.490   3.089   5.891
    1ECLIP H32S13374   1.429   3.106   6.059
    1ECLIP  CA213375   1.184   3.495   5.966
    1ECLIP  HA213376   1.280   3.533   5.925
    1ECLIP  NA213377   1.101   3.458   5.853
    1ECLIP HNA213378   1.068   3.363   5.855
    1ECLIP  C7313379   1.594   4.220   6.043
    1ECLIP H73R13380   1.604   4.283   6.134
    1ECLIP  O7313381   1.464   4.164   6.032
    1ECLIP  C8113382   1.363   4.242   6.063
    1ECLIP  O8113383   1.367   4.363   6.075
    1ECLIP  C8213384   1.236   4.164   6.025
    1ECLIP H82R13385   1.149   4.228   6.051
    1ECLIP H82S13386   1.235   4.072   6.089
    1ECLIP  C8313387   1.236   4.124   5.877
    1ECLIP H83R13388   1.319   4.052   5.858
    1ECLIP H83S13389   1.255   4.214   5.814
    1ECLIP  C8413390   1.105   4.058   5.830
    1ECLIP H84R13391   1.022   4.131   5.842
    1ECLIP H84S13392   1.084   3.970   5.893
    1ECLIP  C8513393   1.117   4.013   5.684
    1ECLIP H85R13394   1.189   3.929   5.681
    1ECLIP H85S13395   1.160   4.097   5.625
    1ECLIP  C8613396   0.985   3.968   5.620
    1ECLIP H86R13397   0.918   4.056   5.611
    1ECLIP H86S13398   0.936   3.895   5.688
    1ECLIP  C8713399   1.005   3.903   5.483
    1ECLIP H87R13400   0.906   3.887   5.436
    1ECLIP H87S13401   1.050   3.802   5.499
    1ECLIP  C8813402   1.098   3.982   5.391
    1ECLIP H88R13403   1.199   3.983   5.436
    1ECLIP H88S13404   1.064   4.087   5.384
    1ECLIP  C8913405   1.114   3.923   5.249
    1ECLIP H89R13406   1.130   3.813   5.256
    1ECLIP H89S13407   1.206   3.967   5.207
    1ECLIP C81013408   0.996   3.954   5.155
    1ECLIPH810R13409   0.968   4.061   5.167
    1ECLIPH810S13410   0.909   3.893   5.188
    1ECLIP C81113411   1.026   3.925   5.007
    1ECLIPH811R13412   0.932   3.936   4.950
    1ECLIPH811S13413   1.058   3.818   5.000
    1ECLIP C81213414   1.135   4.013   4.943
    1ECLIPH812R13415   1.151   3.979   4.839
    1ECLIPH812S13416   1.230   3.999   4.998
    1ECLIP C81313417   1.101   4.163   4.943
    1ECLIPH813R13418   1.006   4.178   4.886
    1ECLIPH813S13419   1.085   4.198   5.046
    1ECLIP C81413420   1.211   4.249   4.879
    1ECLIPH814R13421   1.234   4.215   4.775
    1ECLIPH814S13422   1.304   4.242   4.939
    1ECLIPH814T13423   1.180   4.356   4.877
    1ECLIP  C7413424   1.626   4.308   5.919
    1ECLIP H74R13425   1.731   4.345   5.927
    1ECLIP H74S13426   1.561   4.398   5.926
    1ECLIP  C7513427   1.604   4.245   5.780
    1ECLIP H75R13428   1.559   4.323   5.715
    1ECLIP H75S13429   1.531   4.162   5.787
    1ECLIP  C7613430   1.732   4.196   5.709
    1ECLIP H76R13431   1.773   4.108   5.762
    1ECLIP H76S13432   1.808   4.277   5.714
    1ECLIP  C7713433   1.707   4.162   5.561
    1ECLIP H77R13434   1.656   4.248   5.513
    1ECLIP H77S13435   1.637   4.075   5.556
    1ECLIP  C7813436   1.835   4.129   5.483
    1ECLIP H78R13437   1.899   4.220   5.480
    1ECLIP H78S13438   1.891   4.050   5.537
    1ECLIP  C7913439   1.812   4.080   5.339
    1ECLIP H79R13440   1.766   3.980   5.341
    1ECLIP H79S13441   1.911   4.069   5.288
    1ECLIP C71013442   1.723   4.172   5.252
    1ECLIPH710R13443   1.622   4.178   5.299
    1ECLIPH710S13444   1.766   4.274   5.252
    1ECLIP C71113445   1.708   4.121   5.108
    1ECLIPH711R13446   1.809   4.117   5.061
    1ECLIPH711S13447   1.668   4.018   5.110
    1ECLIP C71213448   1.614   4.209   5.023
    1ECLIPH712R13449   1.658   4.310   5.013
    1ECLIPH712S13450   1.518   4.219   5.078
    1ECLIP C71313451   1.584   4.152   4.884
    1ECLIPH713R13452   1.534   4.053   4.896
    1ECLIPH713S13453   1.512   4.219   4.832
    1ECLIP C71413454   1.707   4.134   4.794
    1ECLIPH714R13455   1.759   4.231   4.781
    1ECLIPH714S13456   1.778   4.061   4.839
    1ECLIPH714T13457   1.677   4.096   4.693
    1ECLIP  C5113458   1.525   3.753   6.042
    1ECLIP  O5113459   1.420   3.813   6.019
    1ECLIP  C5213460   1.601   3.683   5.931
    1ECLIP H52R13461   1.702   3.728   5.921
    1ECLIP H52S13462   1.611   3.577   5.960
    1ECLIP  C5313463   1.529   3.690   5.794
    1ECLIP H53R13464   1.421   3.668   5.808
    1ECLIP  O5313465   1.594   3.592   5.712
    1ECLIP  C6113466   1.516   3.518   5.634
    1ECLIP  O6113467   1.402   3.546   5.601
    1ECLIP  C6213468   1.609   3.432   5.545
    1ECLIP H62R13469   1.675   3.373   5.613
    1ECLIP H62S13470   1.672   3.503   5.487
    1ECLIP  C6313471   1.532   3.336   5.451
    1ECLIP H63R13472   1.448   3.391   5.403
    1ECLIP H63S13473   1.489   3.255   5.512
    1ECLIP  C6413474   1.619   3.276   5.339
    1ECLIP H64R13475   1.559   3.196   5.289
    1ECLIP H64S13476   1.709   3.228   5.384
    1ECLIP  C6513477   1.660   3.379   5.233
    1ECLIP H65R13478   1.723   3.455   5.282
    1ECLIP H65S13479   1.570   3.431   5.194
    1ECLIP  C6613480   1.742   3.321   5.115
    1ECLIP H66R13481   1.828   3.265   5.156
    1ECLIP H66S13482   1.782   3.406   5.056
    1ECLIP  C6713483   1.663   3.229   5.019
    1ECLIP H67R13484   1.635   3.136   5.072
    1ECLIP H67S13485   1.730   3.202   4.936
    1ECLIP  C6813486   1.536   3.294   4.962
    1ECLIP H68R13487   1.558   3.398   4.931
    1ECLIP H68S13488   1.460   3.300   5.043
    1ECLIP  C6913489   1.477   3.217   4.844
    1ECLIP H69R13490   1.472   3.109   4.870
    1ECLIP H69S13491   1.547   3.228   4.757
    1ECLIP C61013492   1.337   3.266   4.806
    1ECLIPH610R13493   1.339   3.377   4.792
    1ECLIPH610S13494   1.269   3.244   4.891
    1ECLIP C61113495   1.279   3.201   4.679
    1ECLIPH611R13496   1.291   3.091   4.688
    1ECLIPH611S13497   1.170   3.222   4.675
    1ECLIP C61213498   1.344   3.250   4.550
    1ECLIPH612R13499   1.329   3.360   4.538
    1ECLIPH612S13500   1.453   3.229   4.551
    1ECLIPH612T13501   1.301   3.198   4.462
    1ECLIP  C5413502   1.543   3.830   5.728
    1ECLIP H54R13503   1.651   3.852   5.712
    1ECLIP H54S13504   1.506   3.904   5.802
    1ECLIP  C5513505   1.463   3.853   5.598
    1ECLIP H55R13506   1.437   3.961   5.591
    1ECLIP H55S13507   1.368   3.797   5.604
    1ECLIP  C5613508   1.539   3.815   5.470
    1ECLIP H56R13509   1.572   3.708   5.476
    1ECLIP H56S13510   1.632   3.875   5.464
    1ECLIP  C5713511   1.454   3.832   5.344
    1ECLIP H57R13512   1.431   3.940   5.332
    1ECLIP H57S13513   1.358   3.778   5.359
    1ECLIP  C5813514   1.522   3.777   5.219
    1ECLIP H58R13515   1.623   3.823   5.210
    1ECLIP H58S13516   1.537   3.667   5.230
    1ECLIP  C5913517   1.441   3.806   5.092
    1ECLIP H59R13518   1.421   3.915   5.087
    1ECLIP H59S13519   1.343   3.754   5.099
    1ECLIP C51013520   1.514   3.764   4.964
    1ECLIPH510R13521   1.541   3.656   4.971
    1ECLIPH510S13522   1.609   3.822   4.958
    1ECLIP C51113523   1.431   3.788   4.837
    1ECLIPH511R13524   1.352   3.710   4.832
    1ECLIPH511S13525   1.380   3.886   4.847
    1ECLIP C51213526   1.514   3.789   4.709
    1ECLIPH512R13527   1.447   3.803   4.622
    1ECLIPH512S13528   1.583   3.877   4.714
    1ECLIP C51313529   1.600   3.663   4.689
    1ECLIPH513R13530   1.533   3.575   4.681
    1ECLIPH513S13531   1.664   3.648   4.780
    1ECLIP C51413532   1.691   3.673   4.568
    1ECLIPH514R13533   1.752   3.765   4.571
    1ECLIPH514S13534   1.760   3.586   4.566
    1ECLIPH514T13535   1.631   3.672   4.473
    1ECLIP  C3313536   1.616   3.212   6.019
    1ECLIP H33R13537   1.678   3.126   6.051
    1ECLIP  O3313538   1.599   3.299   6.129
    1ECLIP HO3313539   1.682   3.329   6.167
    1ECLIP  C3413540   1.690   3.288   5.906
    1ECLIP H34R13541   1.625   3.370   5.870
    1ECLIP H34S13542   1.705   3.217   5.822
    1ECLIP  C3513543   1.825   3.353   5.941
    1ECLIP H35R13544   1.900   3.278   5.974
    1ECLIP H35S13545   1.811   3.426   6.023
    1ECLIP  C3613546   1.878   3.429   5.818
    1ECLIP H36R13547   1.792   3.484   5.774
    1ECLIP H36S13548   1.913   3.356   5.741
    1ECLIP  C3713549   1.987   3.535   5.844
    1ECLIP H37R13550   2.085   3.485   5.851
    1ECLIP H37S13551   1.967   3.584   5.941
    1ECLIP  C3813552   1.989   3.644   5.734
    1ECLIP H38R13553   1.897   3.705   5.745
    1ECLIP H38S13554   2.076   3.711   5.752
    1ECLIP  C3913555   1.995   3.589   5.590
    1ECLIP H39R13556   1.906   3.525   5.573
    1ECLIP H39S13557   2.085   3.524   5.580
    1ECLIP C31013558   1.997   3.697   5.483
    1ECLIPH310R13559   2.095   3.749   5.483
    1ECLIPH310S13560   1.918   3.773   5.505
    1ECLIP C31113561   1.969   3.639   5.342
    1ECLIPH311R13562   2.041   3.556   5.323
    1ECLIPH311S13563   1.867   3.596   5.344
    1ECLIP C31213564   1.978   3.741   5.228
    1ECLIPH312R13565   1.915   3.829   5.253
    1ECLIPH312S13566   2.083   3.776   5.219
    1ECLIP C31313567   1.930   3.683   5.094
    1ECLIPH313R13568   1.989   3.592   5.071
    1ECLIPH313S13569   1.824   3.652   5.106
    1ECLIP C31413570   1.940   3.781   4.977
    1ECLIPH314R13571   2.046   3.811   4.962
    1ECLIPH314S13572   1.902   3.735   4.884
    1ECLIPH314T13573   1.882   3.873   4.998
    1ECLIP  C1113574   1.070   3.536   5.749
    1ECLIP  O1113575   1.112   3.650   5.735
    1ECLIP  C1213576   0.972   3.477   5.649
    1ECLIP H12R13577   0.880   3.538   5.655
    1ECLIP H12S13578   0.947   3.372   5.676
    1ECLIP  C1313579   1.028   3.483   5.506
    1ECLIP H13R13580   1.070   3.584   5.486
    1ECLIP  O1313581   0.919   3.462   5.417
    1ECLIP HO1313582   0.946   3.470   5.325
    1ECLIP  C1413583   1.134   3.375   5.474
    1ECLIP H14R13584   1.099   3.278   5.514
    1ECLIP H14S13585   1.228   3.401   5.528
    1ECLIP  C1513586   1.166   3.356   5.323
    1ECLIP H15R13587   1.075   3.313   5.275
    1ECLIP H15S13588   1.245   3.279   5.313
    1ECLIP  C1613589   1.210   3.483   5.248
    1ECLIP H16R13590   1.317   3.502   5.271
    1ECLIP H16S13591   1.154   3.572   5.283
    1ECLIP  C1713592   1.191   3.471   5.096
    1ECLIP H17R13593   1.228   3.371   5.063
    1ECLIP H17S13594   1.255   3.548   5.047
    1ECLIP  C1813595   1.045   3.492   5.051
    1ECLIP H18R13596   0.981   3.421   5.108
    1ECLIP H18S13597   1.014   3.595   5.079
    1ECLIP  C1913598   1.021   3.470   4.900
    1ECLIP H19R13599   0.913   3.483   4.880
    1ECLIP H19S13600   1.049   3.366   4.874
    1ECLIP C11013601   1.100   3.567   4.812
    1ECLIPH110R13602   1.075   3.672   4.841
    1ECLIPH110S13603   1.209   3.552   4.830
    1ECLIP C11113604   1.074   3.550   4.661
    1ECLIPH111R13605   1.102   3.447   4.631
    1ECLIPH111S13606   0.966   3.563   4.642
    1ECLIP C11213607   1.154   3.651   4.578
    1ECLIPH112R13608   1.130   3.754   4.615
    1ECLIPH112S13609   1.263   3.635   4.596
    1ECLIP C11313610   1.126   3.643   4.429
    1ECLIPH113R13611   1.161   3.544   4.391
    1ECLIPH113S13612   1.016   3.647   4.412
    1ECLIP C11413613   1.193   3.754   4.348
    1ECLIPH114R13614   1.155   3.853   4.380
    1ECLIPH114S13615   1.303   3.752   4.365
    1ECLIPH114T13616   1.173   3.742   4.240
    2AKDO    C113617   1.612   3.712   6.839
    2AKDO   O1113618   1.715   3.772   6.878
    2AKDO   O1213619   1.605   3.593   6.794
    2AKDO    C213620   1.476   3.768   6.893
    2AKDO    C613621   1.355   3.948   7.002
    2AKDO    H613622   1.279   3.935   6.921
    2AKDO    O613623   1.482   3.902   6.950
    2AKDO    C313624   1.426   3.677   7.007
    2AKDO   H3113625   1.504   3.678   7.087
    2AKDO   H3213626   1.418   3.574   6.967
    2AKDO    C413627   1.295   3.720   7.063
    2AKDO    H413628   1.219   3.719   6.983
    2AKDO    O413629   1.255   3.632   7.169
    2AKDO    C513630   1.304   3.861   7.120
    2AKDO    H513631   1.198   3.892   7.135
    2AKDO    O513632   1.372   3.868   7.247
    2AKDO    C713633   1.364   4.098   7.023
    2AKDO    H713634   1.442   4.120   7.099
    2AKDO    O713635   1.237   4.150   7.064
    2AKDO   HO713636   1.244   4.238   7.025
    2AKDO    C813637   1.401   4.170   6.894
    2AKDO   H8113638   1.502   4.136   6.862
    2AKDO   H8213639   1.330   4.143   6.813
    2AKDO    O813640   1.401   4.313   6.908
    2AKDO   HO813641   1.449   4.342   6.830
    3AKDO    C113642   1.082   3.509   7.038
    3AKDO   O1113643   1.062   3.405   6.970
    3AKDO   O1213644   0.998   3.601   7.061
    3AKDO    C213645   1.199   3.504   7.141
    3AKDO    C613646   1.406   3.391   7.202
    3AKDO    H613647   1.457   3.489   7.210
    3AKDO    O613648   1.297   3.402   7.108
    3AKDO    C313649   1.145   3.472   7.281
    3AKDO   H3113650   1.089   3.376   7.276
    3AKDO   H3213651   1.073   3.551   7.311
    3AKDO    C413652   1.254   3.463   7.384
    3AKDO    H413653   1.312   3.558   7.385
    3AKDO    O413654   1.196   3.447   7.512
    3AKDO   HO413655   1.179   3.536   7.545
    3AKDO    C513656   1.351   3.353   7.340
    3AKDO    H513657   1.435   3.350   7.413
    3AKDO    O513658   1.291   3.223   7.337
    3AKDO   HO513659   1.242   3.221   7.254
    3AKDO    C713660   1.509   3.292   7.148
    3AKDO    H713661   1.459   3.195   7.125
    3AKDO    O713662   1.613   3.269   7.242
    3AKDO   HO713663   1.688   3.260   7.183
    3AKDO    C813664   1.575   3.342   7.019
    3AKDO   H8113665   1.498   3.359   6.940
    3AKDO   H8213666   1.626   3.439   7.036
    3AKDO    O813667   1.670   3.245   6.971
    3AKDO   HO813668   1.719   3.289   6.901
    4AHEP    C113669   1.325   3.970   7.335
    4AHEP    H113670   1.349   4.067   7.288
    4AHEP    C513671   1.139   3.851   7.431
    4AHEP    H513672   1.182   3.764   7.377
    4AHEP    O513673   1.183   3.968   7.358
    4AHEP    C213674   1.396   3.970   7.471
    4AHEP    H213675   1.503   3.955   7.450
    4AHEP    O213676   1.387   4.094   7.542
    4AHEP   HO213677   1.451   4.086   7.613
    4AHEP    C313678   1.352   3.852   7.557
    4AHEP    H313679   1.387   3.759   7.507
    4AHEP    O313680   1.412   3.868   7.688
    4AHEP    C413681   1.200   3.851   7.572
    4AHEP    H413682   1.168   3.943   7.627
    4AHEP    O413683   1.162   3.732   7.642
    4AHEP    P413684   1.049   3.718   7.760
    4AHEP  OP4213685   1.099   3.603   7.847
    4AHEP  OP4313686   0.919   3.681   7.689
    4AHEP  OP4413687   1.032   3.849   7.834
    4AHEP    C613688   0.987   3.832   7.420
    4AHEP    H613689   0.965   3.725   7.438
    4AHEP    O613690   0.918   3.908   7.521
    4AHEP   HO613691   0.925   3.850   7.597
    4AHEP    C713692   0.931   3.868   7.282
    4AHEP   H7113693   0.824   3.839   7.278
    4AHEP   H7213694   0.985   3.809   7.205
    4AHEP    O713695   0.943   4.008   7.250
    4AHEP   HO713696   1.036   4.025   7.262
    5AHEP    C113697   1.452   3.749   7.753
    5AHEP    H113698   1.409   3.663   7.700
    5AHEP    C513699   1.665   3.831   7.830
    5AHEP    H513700   1.633   3.931   7.796
    5AHEP    O513701   1.595   3.731   7.752
    5AHEP    C213702   1.403   3.742   7.898
    5AHEP    H213703   1.299   3.781   7.895
    5AHEP    O213704   1.391   3.608   7.945
    5AHEP   HO213705   1.300   3.587   7.924
    5AHEP    C313706   1.476   3.841   7.986
    5AHEP    H313707   1.454   3.944   7.952
    5AHEP    O313708   1.445   3.825   8.127
    5AHEP    C413709   1.625   3.818   7.977
    5AHEP    H413710   1.651   3.716   8.013
    5AHEP    O413711   1.688   3.922   8.052
    5AHEP    P413712   1.789   3.898   8.179
    5AHEP  OP4213713   1.778   4.023   8.263
    5AHEP  OP4313714   1.930   3.888   8.123
    5AHEP  OP4413715   1.749   3.773   8.255
    5AHEP    C613716   1.815   3.823   7.806
    5AHEP    H613717   1.867   3.895   7.873
    5AHEP    O613718   1.865   3.691   7.832
    5AHEP   HO613719   1.898   3.668   7.745
    5AHEP    C713720   1.849   3.861   7.662
    5AHEP   H7113721   1.938   3.929   7.665
    5AHEP   H7213722   1.769   3.921   7.615
    5AHEP    O713723   1.887   3.748   7.582
    6AHEP    C113724   1.779   3.697   7.507
    6AHEP    H113725   1.682   3.742   7.538
    6AHEP    C513726   1.913   3.670   7.309
    6AHEP    H513727   2.002   3.718   7.355
    6AHEP    O513728   1.792   3.723   7.367
    6AHEP    C213729   1.775   3.548   7.530
    6AHEP    H213730   1.768   3.531   7.641
    6AHEP    O213731   1.658   3.489   7.472
    6AHEP   HO213732   1.658   3.508   7.378
    6AHEP    C313733   1.905   3.487   7.480
    6AHEP    H313734   1.990   3.536   7.533
    6AHEP    O313735   1.916   3.346   7.503
    6AHEP   HO313736   1.973   3.322   7.431
    6AHEP    C413737   1.918   3.518   7.332
    6AHEP    H413738   1.835   3.469   7.276
    6AHEP    O413739   2.042   3.461   7.286
    6AHEP   HO413740   2.058   3.478   7.193
    6AHEP    C613741   1.910   3.703   7.160
    6AHEP    H613742   1.997   3.655   7.111
    6AHEP    O613743   1.791   3.646   7.102
    6AHEP   HO613744   1.766   3.701   7.028
    6AHEP    C713745   1.920   3.853   7.129
    6AHEP   H7113746   1.911   3.868   7.020
    6AHEP   H7213747   2.021   3.889   7.160
    6AHEP    O713748   1.822   3.936   7.193
    6AHEP   HO713749   1.838   3.928   7.288
    7AGLC    C113750   1.339   3.901   8.175
    7AGLC    H113751   1.331   3.998   8.122
    7AGLC    C513752   1.224   3.699   8.226
    7AGLC    H513753   1.308   3.641   8.181
    7AGLC    O513754   1.216   3.829   8.164
    7AGLC    C213755   1.365   3.924   8.323
    7AGLC    H213756   1.277   3.978   8.365
    7AGLC    O213757   1.477   4.011   8.345
    7AGLC   HO213758   1.556   3.973   8.307
    7AGLC    C313759   1.379   3.793   8.398
    7AGLC    H313760   1.465   3.737   8.356
    7AGLC    O313761   1.397   3.815   8.542
    7AGLC    C413762   1.251   3.715   8.374
    7AGLC    H413763   1.166   3.774   8.415
    7AGLC    O413764   1.252   3.587   8.436
    7AGLC   HO413765   1.177   3.583   8.497
    7AGLC    C613766   1.095   3.626   8.193
    7AGLC   H6113767   1.088   3.615   8.083
    7AGLC   H6213768   1.097   3.523   8.237
    7AGLC    O613769   0.979   3.695   8.240
    7AGLC   HO613770   0.966   3.764   8.175
    8AGLC    C113771   1.524   3.781   8.592
    8AGLC    H113772   1.561   3.688   8.543
    8AGLC    C513773   1.591   4.008   8.637
    8AGLC    H513774   1.490   4.039   8.604
    8AGLC    O513775   1.623   3.884   8.572
    8AGLC    C213776   1.516   3.757   8.743
    8AGLC    H213777   1.615   3.719   8.775
    8AGLC    O213778   1.415   3.664   8.782
    8AGLC    C313779   1.483   3.884   8.819
    8AGLC    H313780   1.387   3.922   8.780
    8AGLC    O313781   1.463   3.856   8.960
    8AGLC    C413782   1.589   3.988   8.788
    8AGLC    H413783   1.688   3.949   8.818
    8AGLC    O413784   1.567   4.112   8.855
    8AGLC   HO413785   1.637   4.170   8.821
    8AGLC    C613786   1.686   4.118   8.590
    8AGLC   H6113787   1.706   4.105   8.481
    8AGLC   H6213788   1.636   4.217   8.601
    8AGLC    O613789   1.809   4.122   8.662
    8AGLC   HO613790   1.876   4.085   8.604
    9AGAL    C113791   1.414   3.535   8.729
    9AGAL    H113792   1.416   3.537   8.618
    9AGAL    C513793   1.530   3.451   8.919
    9AGAL    H513794   1.529   3.556   8.957
    9AGAL    O513795   1.524   3.456   8.776
    9AGAL    C213796   1.282   3.475   8.776
    9AGAL    H213797   1.272   3.372   8.735
    9AGAL    O213798   1.181   3.559   8.714
    9AGAL    C313799   1.284   3.465   8.929
    9AGAL    H313800   1.296   3.567   8.970
    9AGAL    O313801   1.163   3.413   8.984
    9AGAL   HO313802   1.098   3.483   8.980
    9AGAL    C413803   1.405   3.383   8.976
    9AGAL    H413804   1.409   3.388   9.087
    9AGAL    O413805   1.396   3.245   8.940
    9AGAL   HO413806   1.439   3.231   8.855
    9AGAL    C613807   1.667   3.400   8.962
    9AGAL   H6113808   1.744   3.454   8.905
    9AGAL   H6213809   1.682   3.424   9.070
    9AGAL    O613810   1.687   3.259   8.945
    9AGAL   HO613811   1.654   3.234   8.859
   10AGAL    C113812   1.053   3.578   8.770
   10AGAL    H113813   1.005   3.478   8.783
   10AGAL    C513814   1.115   3.778   8.885
   10AGAL    H513815   1.212   3.770   8.832
   10AGAL    O513816   1.060   3.645   8.898
   10AGAL    C213817   0.966   3.660   8.675
   10AGAL    H213818   0.864   3.665   8.719
   10AGAL    O213819   0.955   3.596   8.547
   10AGAL   HO213820   0.912   3.658   8.488
   10AGAL    C313821   1.019   3.802   8.661
   10AGAL    H313822   1.123   3.797   8.620
   10AGAL    O313823   0.939   3.880   8.571
   10AGAL   HO313824   0.990   3.946   8.523
   10AGAL    C413825   1.027   3.867   8.799
   10AGAL    H413826   1.076   3.966   8.787
   10AGAL    O413827   0.899   3.887   8.858
   10AGAL   HO413828   0.842   3.927   8.792
   10AGAL    C613829   1.148   3.834   9.023
   10AGAL   H6113830   1.225   3.770   9.069
   10AGAL   H6213831   1.191   3.936   9.010
   10AGAL    O613832   1.035   3.840   9.109
   10AGAL   HO613833   0.960   3.860   9.052
   11BGLC    C113834   1.573   3.862   9.047
   11BGLC    H113835   1.608   3.967   9.058
   11BGLC    C513836   1.797   3.784   9.085
   11BGLC    H513837   1.830   3.890   9.095
   11BGLC    O513838   1.681   3.779   9.000
   11BGLC    C213839   1.528   3.809   9.182
   11BGLC    H213840   1.491   3.705   9.168
   11BGLC    O213841   1.421   3.888   9.235
   11BGLC   HO213842   1.344   3.876   9.179
   11BGLC    C313843   1.643   3.808   9.280
   11BGLC    H313844   1.675   3.912   9.304
   11BGLC    O313845   1.606   3.735   9.398
   11BGLC    C413846   1.758   3.729   9.221
   11BGLC    H413847   1.727   3.623   9.209
   11BGLC    O413848   1.869   3.735   9.311
   11BGLC   HO413849   1.833   3.736   9.399
   11BGLC    C613850   1.910   3.705   9.021
   11BGLC   H6113851   2.004   3.718   9.079
   11BGLC   H6213852   1.884   3.597   9.023
   11BGLC    O613853   1.935   3.742   8.884
   11BGLC   HO613854   1.993   3.818   8.878
   12BGLCN   C113855   1.578   3.810   9.512
   12BGLCN   H113856   1.490   3.876   9.495
   12BGLCN   C513857   1.673   3.963   9.667
   12BGLCN   H513858   1.585   4.030   9.653
   12BGLCN   O513859   1.693   3.885   9.549
   12BGLCN   C213860   1.548   3.708   9.622
   12BGLCN   H213861   1.640   3.647   9.634
   12BGLCN    N13862   1.441   3.619   9.576
   12BGLCN   HN13863   1.380   3.653   9.506
   12BGLCN    C13864   1.432   3.489   9.608
   12BGLCN    O13865   1.504   3.435   9.691
   12BGLCN   CT13866   1.325   3.412   9.536
   12BGLCN  HT113867   1.301   3.320   9.592
   12BGLCN  HT213868   1.361   3.383   9.434
   12BGLCN  HT313869   1.233   3.474   9.525
   12BGLCN   C313870   1.523   3.781   9.754
   12BGLCN   H313871   1.433   3.844   9.745
   12BGLCN   O313872   1.504   3.685   9.862
   12BGLCN   C413873   1.646   3.867   9.783
   12BGLCN   H413874   1.734   3.801   9.794
   12BGLCN   O413875   1.634   3.941   9.903
   12BGLCN  HO413876   1.554   3.996   9.901
   12BGLCN   C613877   1.797   4.050   9.681
   12BGLCN  H6113878   1.793   4.106   9.778
   12BGLCN  H6213879   1.887   3.985   9.684
   12BGLCN   O613880   1.810   4.144   9.575
   12BGLCN  HO613881   1.901   4.172   9.565
   13AGAL    C113882   1.422   3.724   9.972
   13AGAL    H113883   1.441   3.829  10.002
   13AGAL    C513884   1.248   3.571   9.908
   13AGAL    H513885   1.315   3.539   9.826
   13AGAL    O513886   1.282   3.708   9.941
   13AGAL    C213887   1.448   3.637  10.096
   13AGAL    H213888   1.372   3.667  10.170
   13AGAL    O213889   1.578   3.661  10.155
   13AGAL    C313890   1.422   3.491  10.063
   13AGAL    H313891   1.486   3.462   9.977
   13AGAL    O313892   1.453   3.404  10.172
   13AGAL   HO313893   1.371   3.387  10.219
   13AGAL    C413894   1.276   3.477  10.025
   13AGAL    H413895   1.259   3.373   9.990
   13AGAL    O413896   1.188   3.499  10.136
   13AGAL   HO413897   1.193   3.590  10.164
   13AGAL    C613898   1.107   3.563   9.853
   13AGAL   H6113899   1.099   3.625   9.761
   13AGAL   H6213900   1.084   3.458   9.825
   13AGAL    O613901   1.008   3.607   9.946
   13AGAL   HO613902   1.018   3.554  10.026
   14ARHM    C113903   1.579   3.725  10.282
   14ARHM    H113904   1.492   3.793  10.289
   14ARHM    C513905   1.816   3.735  10.301
   14ARHM    H513906   1.829   3.680  10.207
   14ARHM    O513907   1.693   3.810  10.299
   14ARHM    C213908   1.569   3.621  10.393
   14ARHM    H213909   1.483   3.554  10.373
   14ARHM    O213910   1.555   3.671  10.528
   14ARHM    C313911   1.696   3.539  10.395
   14ARHM    H313912   1.709   3.490  10.296
   14ARHM    O313913   1.691   3.436  10.493
   14ARHM   HO313914   1.668   3.476  10.577
   14ARHM    C413915   1.812   3.636  10.417
   14ARHM    H413916   1.792   3.694  10.509
   14ARHM    O413917   1.937   3.571  10.438
   14ARHM   HO413918   1.926   3.478  10.414
   14ARHM    C613919   1.929   3.839  10.312
   14ARHM   H6113920   1.928   3.907  10.224
   14ARHM   H6213921   1.916   3.901  10.405
   14ARHM   H6313922   2.028   3.789  10.316
   15ARHM    C113923   1.445   3.753  10.554
   15ARHM    H113924   1.366   3.738  10.477
   15ARHM    C513925   1.579   3.924  10.660
   15ARHM    H513926   1.673   3.868  10.641
   15ARHM    O513927   1.483   3.892  10.557
   15ARHM    C213928   1.389   3.713  10.689
   15ARHM    H213929   1.366   3.604  10.688
   15ARHM    O213930   1.266   3.785  10.700
   15ARHM    C313931   1.492   3.739  10.796
   15ARHM    H313932   1.584   3.683  10.768
   15ARHM    O313933   1.447   3.691  10.923
   15ARHM    C413934   1.525   3.887  10.797
   15ARHM    H413935   1.431   3.945  10.811
   15ARHM    O413936   1.611   3.923  10.905
   15ARHM   HO413937   1.702   3.931  10.874
   15ARHM    C613938   1.609   4.074  10.646
   15ARHM   H6113939   1.686   4.105  10.720
   15ARHM   H6213940   1.648   4.096  10.544
   15ARHM   H6313941   1.517   4.133  10.663
   16BMANN   C113942   1.199   3.790  10.822
   16BMANN   H113943   1.261   3.841  10.898
   16BMANN   C513944   1.094   3.669  10.998
   16BMANN   H513945   1.162   3.716  11.072
   16BMANN   O513946   1.161   3.660  10.871
   16BMANN   C213947   1.075   3.873  10.796
   16BMANN   H213948   1.110   3.974  10.766
   16BMANN    N13949   0.990   3.822  10.689
   16BMANN   HN13950   0.915   3.762  10.716
   16BMANN    C13951   1.002   3.854  10.561
   16BMANN    O13952   1.088   3.931  10.517
   16BMANN   CT13953   0.904   3.790  10.465
   16BMANN  HT113954   0.813   3.854  10.457
   16BMANN  HT213955   0.877   3.689  10.502
   16BMANN  HT313956   0.950   3.781  10.365
   16BMANN   C313957   1.003   3.889  10.929
   16BMANN   H313958   1.073   3.939  10.998
   16BMANN   O313959   0.887   3.971  10.915
   16BMANN  HO313960   0.910   4.064  10.920
   16BMANN   C413961   0.968   3.753  10.984
   16BMANN   H413962   0.899   3.700  10.915
   16BMANN   O413963   0.903   3.766  11.110
   16BMANN  HO413964   0.820   3.811  11.093
   16BMANN   C613965   1.065   3.528  11.044
   16BMANN  H6113966   1.006   3.529  11.140
   16BMANN  H6213967   1.003   3.476  10.967
   16BMANN   O613968   1.184   3.453  11.066
   16BMANN  HO613969   1.230   3.449  10.982
   17BGLCN   C113970   1.549   3.631  10.999
   17BGLCN   H113971   1.648   3.675  10.977
   17BGLCN   C513972   1.652   3.424  11.059
   17BGLCN   H513973   1.751   3.468  11.036
   17BGLCN   O513974   1.551   3.490  10.979
   17BGLCN   C213975   1.513   3.660  11.144
   17BGLCN   H213976   1.419   3.606  11.165
   17BGLCN    N13977   1.485   3.801  11.163
   17BGLCN   HN13978   1.524   3.861  11.093
   17BGLCN    C13979   1.406   3.852  11.259
   17BGLCN    O13980   1.347   3.784  11.342
   17BGLCN   CT13981   1.391   4.001  11.259
   17BGLCN  HT113982   1.320   4.031  11.179
   17BGLCN  HT213983   1.489   4.050  11.241
   17BGLCN  HT313984   1.351   4.035  11.356
   17BGLCN   C313985   1.624   3.601  11.231
   17BGLCN   H313986   1.720   3.639  11.189
   17BGLCN   O313987   1.614   3.645  11.367
   17BGLCN   C413988   1.621   3.451  11.207
   17BGLCN   H413989   1.518   3.415  11.227
   17BGLCN   O413990   1.708   3.377  11.290
   17BGLCN  HO413991   1.659   3.300  11.321
   17BGLCN   C613992   1.656   3.277  11.023
   17BGLCN  H6113993   1.732   3.225  11.085
   17BGLCN  H6213994   1.558   3.231  11.043
   17BGLCN   O613995   1.688   3.256  10.884
   17BGLCN  HO613996   1.778   3.284  10.866
   18AGAL    C113997   1.738   3.654  11.436
   18AGAL    H113998   1.784   3.554  11.444
   18AGAL    C513999   1.784   3.878  11.359
   18AGAL    H514000   1.688   3.874  11.304
   18AGAL    O514001   1.832   3.742  11.370
   18AGAL    C214002   1.715   3.710  11.575
   18AGAL    H214003   1.817   3.719  11.618
   18AGAL    O214004   1.641   3.620  11.659
   18AGAL    C314005   1.654   3.849  11.566
   18AGAL    H314006   1.561   3.842  11.506
   18AGAL    O314007   1.617   3.901  11.694
   18AGAL   HO314008   1.555   3.974  11.684
   18AGAL    C414009   1.754   3.939  11.496
   18AGAL    H414010   1.708   4.039  11.481
   18AGAL    O414011   1.873   3.957  11.574
   18AGAL   HO414012   1.852   3.984  11.662
   18AGAL    C614013   1.879   3.959  11.272
   18AGAL   H6114014   1.897   3.904  11.176
   18AGAL   H6214015   1.832   4.056  11.246
   18AGAL    O614016   2.004   3.984  11.335
   18AGAL   HO614017   1.994   3.951  11.425
   19ARHM    C114018   1.688   3.619  11.793
   19ARHM    H114019   1.729   3.719  11.819
   19ARHM    C514020   1.747   3.388  11.790
   19ARHM    H514021   1.712   3.379  11.684
   19ARHM    O514022   1.792   3.522  11.814
   19ARHM    C214023   1.569   3.591  11.881
   19ARHM    H214024   1.487   3.657  11.849
   19ARHM    O214025   1.598   3.617  12.020
   19ARHM    C314026   1.518   3.451  11.859
   19ARHM    H314027   1.486   3.441  11.752
   19ARHM    O314028   1.406   3.422  11.941
   19ARHM   HO314029   1.407   3.327  11.957
   19ARHM    C414030   1.632   3.354  11.884
   19ARHM    H414031   1.669   3.369  11.988
   19ARHM    O414032   1.590   3.218  11.873
   19ARHM   HO414033   1.561   3.197  11.784
   19ARHM    C614034   1.869   3.296  11.807
   19ARHM   H6114035   1.949   3.326  11.735
   19ARHM   H6214036   1.909   3.302  11.909
   19ARHM   H6314037   1.842   3.190  11.784
   20ARHM    C114038   1.590   3.754  12.054
   20ARHM    H114039   1.532   3.810  11.975
   20ARHM    C514040   1.800   3.767  12.165
   20ARHM    H514041   1.814   3.658  12.151
   20ARHM    O514042   1.718   3.819  12.061
   20ARHM    C214043   1.517   3.769  12.186
   20ARHM    H214044   1.426   3.705  12.182
   20ARHM    O214045   1.476   3.904  12.211
   20ARHM    C314046   1.600   3.718  12.300
   20ARHM    H314047   1.617   3.609  12.286
   20ARHM    O314048   1.528   3.744  12.420
   20ARHM    C414049   1.732   3.791  12.300
   20ARHM    H414050   1.711   3.900  12.309
   20ARHM    O414051   1.815   3.753  12.409
   20ARHM   HO414052   1.886   3.817  12.415
   20ARHM    C614053   1.937   3.836  12.152
   20ARHM   H6114054   1.927   3.945  12.168
   20ARHM   H6214055   2.010   3.794  12.225
   20ARHM   H6314056   1.978   3.819  12.050
   21BMANN   C114057   1.367   3.947  12.134
   21BMANN   H114058   1.320   3.863  12.079
   21BMANN   C514059   1.304   4.098  11.961
   21BMANN   H514060   1.258   4.014  11.905
   21BMANN   O514061   1.411   4.048  12.043
   21BMANN   C214062   1.269   4.008  12.231
   21BMANN   H214063   1.232   3.925  12.295
   21BMANN    N14064   1.336   4.102  12.321
   21BMANN   HN14065   1.432   4.118  12.297
   21BMANN    C14066   1.287   4.148  12.436
   21BMANN    O14067   1.170   4.135  12.468
   21BMANN   CT14068   1.383   4.219  12.529
   21BMANN  HT114069   1.339   4.316  12.561
   21BMANN  HT214070   1.480   4.237  12.477
   21BMANN  HT314071   1.400   4.156  12.618
   21BMANN   C314072   1.151   4.061  12.151
   21BMANN   H314073   1.108   3.976  12.095
   21BMANN   O314074   1.047   4.110  12.234
   21BMANN  HO314075   1.087   4.132  12.319
   21BMANN   C414076   1.199   4.164  12.050
   21BMANN   H414077   1.244   4.250  12.103
   21BMANN   O414078   1.090   4.211  11.971
   21BMANN  HO414079   1.013   4.210  12.029
   21BMANN   C614080   1.367   4.193  11.861
   21BMANN  H6114081   1.290   4.233  11.793
   21BMANN  H6214082   1.412   4.280  11.915
   21BMANN   O614083   1.467   4.127  11.783
   21BMANN  HO614084   1.541   4.109  11.842
   22BGLCN   C114085   1.532   3.643  12.516
   22BGLCN   H114086   1.627   3.587  12.512
   22BGLCN   C514087   1.413   3.456  12.602
   22BGLCN   H514088   1.508   3.399  12.602
   22BGLCN   O514089   1.419   3.557  12.500
   22BGLCN   C214090   1.519   3.717  12.648
   22BGLCN   H214091   1.423   3.772  12.645
   22BGLCN    N14092   1.627   3.815  12.658
   22BGLCN   HN14093   1.708   3.795  12.602
   22BGLCN    C14094   1.619   3.933  12.720
   22BGLCN    O14095   1.519   3.974  12.777
   22BGLCN   CT14096   1.743   4.018  12.714
   22BGLCN  HT114097   1.737   4.085  12.625
   22BGLCN  HT214098   1.833   3.954  12.707
   22BGLCN  HT314099   1.748   4.080  12.807
   22BGLCN   C314100   1.514   3.617  12.762
   22BGLCN   H314101   1.608   3.557  12.759
   22BGLCN   O314102   1.509   3.693  12.884
   22BGLCN   C414103   1.397   3.522  12.738
   22BGLCN   H414104   1.303   3.582  12.739
   22BGLCN   O414105   1.389   3.421  12.838
   22BGLCN  HO414106   1.299   3.389  12.849
   22BGLCN   C614107   1.302   3.362  12.561
   22BGLCN  H6114108   1.300   3.274  12.630
   22BGLCN  H6214109   1.204   3.413  12.569
   22BGLCN   O614110   1.320   3.317  12.427
   22BGLCN  HO614111   1.315   3.393  12.370
   23AGAL    C114112   1.539   3.628  13.005
   23AGAL    H114113   1.458   3.557  13.030
   23AGAL    C514114   1.777   3.644  12.975
   23AGAL    H514115   1.759   3.697  12.880
   23AGAL    O514116   1.664   3.557  13.000
   23AGAL    C214117   1.545   3.733  13.114
   23AGAL    H214118   1.563   3.681  13.210
   23AGAL    O214119   1.422   3.807  13.123
   23AGAL    C314120   1.660   3.829  13.090
   23AGAL    H314121   1.643   3.881  12.995
   23AGAL    O314122   1.667   3.928  13.193
   23AGAL   HO314123   1.725   3.892  13.260
   23AGAL    C414124   1.790   3.751  13.085
   23AGAL    H414125   1.872   3.820  13.055
   23AGAL    O414126   1.824   3.694  13.210
   23AGAL   HO414127   1.874   3.615  13.189
   23AGAL    C614128   1.901   3.558  12.954
   23AGAL   H6114129   1.881   3.484  12.874
   23AGAL   H6214130   1.985   3.622  12.922
   23AGAL    O614131   1.942   3.487  13.072
   23AGAL   HO614132   2.004   3.417  13.050
   24ARHM    C114133   1.323   3.753  13.207
   24ARHM    H114134   1.339   3.644  13.217
   24ARHM    C514135   1.159   3.907  13.133
   24ARHM    H514136   1.233   3.952  13.064
   24ARHM    O514137   1.192   3.769  13.152
   24ARHM    C214138   1.334   3.821  13.342
   24ARHM    H214139   1.439   3.815  13.377
   24ARHM    O214140   1.249   3.758  13.440
   24ARHM    C314141   1.300   3.967  13.326
   24ARHM    H314142   1.373   4.014  13.258
   24ARHM    O314143   1.308   4.035  13.451
   24ARHM   HO314144   1.265   4.120  13.437
   24ARHM    C414145   1.162   3.981  13.266
   24ARHM    H414146   1.087   3.933  13.333
   24ARHM    O414147   1.125   4.118  13.248
   24ARHM   HO414148   1.063   4.127  13.176
   24ARHM    C614149   1.022   3.909  13.062
   24ARHM   H6114150   0.995   4.012  13.030
   24ARHM   H6214151   1.025   3.845  12.971
   24ARHM   H6314152   0.943   3.870  13.130
   25ARHM    C114153   1.305   3.643  13.498
   25ARHM    H114154   1.380   3.598  13.429
   25ARHM    C514155   1.113   3.577  13.620
   25ARHM    H514156   1.060   3.669  13.588
   25ARHM    O514157   1.209   3.539  13.519
   25ARHM    C214158   1.379   3.680  13.625
   25ARHM    H214159   1.442   3.769  13.606
   25ARHM    O214160   1.462   3.573  13.673
   25ARHM    C314161   1.281   3.720  13.732
   25ARHM    H314162   1.226   3.810  13.699
   25ARHM    O314163   1.356   3.752  13.852
   25ARHM    C414164   1.184   3.605  13.753
   25ARHM    H414165   1.241   3.514  13.783
   25ARHM    O414166   1.090   3.635  13.856
   25ARHM   HO414167   1.023   3.567  13.861
   25ARHM    C614168   1.010   3.463  13.627
   25ARHM   H6114169   0.966   3.445  13.526
   25ARHM   H6214170   1.059   3.369  13.661
   25ARHM   H6314171   0.927   3.488  13.696
   26BMANN   C114172   1.588   3.565  13.613
   26BMANN   H114173   1.620   3.663  13.571
   26BMANN   C514174   1.716   3.454  13.443
   26BMANN   H514175   1.743   3.554  13.404
   26BMANN   O514176   1.587   3.466  13.509
   26BMANN   C214177   1.685   3.520  13.720
   26BMANN   H214178   1.685   3.600  13.797
   26BMANN    N14179   1.644   3.395  13.783
   26BMANN   HN14180   1.599   3.329  13.724
   26BMANN    C14181   1.665   3.366  13.912
   26BMANN    O14182   1.715   3.445  13.991
   26BMANN   CT14183   1.622   3.229  13.957
   26BMANN  HT114184   1.558   3.180  13.880
   26BMANN  HT214185   1.565   3.237  14.051
   26BMANN  HT314186   1.711   3.166  13.974
   26BMANN   C314187   1.823   3.516  13.656
   26BMANN   H314188   1.843   3.615  13.611
   26BMANN   O314189   1.925   3.494  13.752
   26BMANN  HO314190   2.007   3.482  13.703
   26BMANN   C414191   1.823   3.413  13.544
   26BMANN   H414192   1.799   3.313  13.586
   26BMANN   O414193   1.951   3.407  13.481
   26BMANN  HO414194   1.983   3.317  13.478
   26BMANN   C614195   1.703   3.360  13.325
   26BMANN  H6114196   1.621   3.397  13.259
   26BMANN  H6214197   1.796   3.362  13.265
   26BMANN   O614198   1.674   3.225  13.361
   26BMANN  HO614199   1.755   3.173  13.363
   27BGLCN   C114200   1.299   3.849  13.934
   27BGLCN   H114201   1.188   3.847  13.929
   27BGLCN   C514202   1.289   4.080  13.986
   27BGLCN   H514203   1.178   4.071  13.981
   27BGLCN   O514204   1.348   3.979  13.901
   27BGLCN   C214205   1.342   3.815  14.076
   27BGLCN   H214206   1.453   3.824  14.081
   27BGLCN    N14207   1.308   3.677  14.107
   27BGLCN   HN14208   1.234   3.637  14.054
   27BGLCN    C14209   1.378   3.599  14.191
   27BGLCN    O14210   1.476   3.639  14.253
   27BGLCN   CT14211   1.332   3.456  14.206
   27BGLCN  HT114212   1.239   3.439  14.147
   27BGLCN  HT214213   1.311   3.435  14.312
   27BGLCN  HT314214   1.412   3.388  14.169
   27BGLCN   C314215   1.282   3.916  14.172
   27BGLCN   H314216   1.172   3.912  14.158
   27BGLCN   O314217   1.314   3.875  14.307
   27BGLCN   C414218   1.329   4.055  14.131
   27BGLCN   H414219   1.439   4.060  14.140
   27BGLCN   O414220   1.272   4.157  14.213
   27BGLCN  HO414221   1.177   4.147  14.210
   27BGLCN   C614222   1.326   4.215  13.929
   27BGLCN  H6114223   1.302   4.296  14.002
   27BGLCN  H6214224   1.435   4.219  13.908
   27BGLCN   O614225   1.253   4.241  13.808
   27BGLCN  HO614226   1.292   4.315  13.762
   28AGAL    C114227   1.247   3.936  14.414
   28AGAL    H114228   1.288   4.038  14.430
   28AGAL    C514229   1.040   3.818  14.380
   28AGAL    H514230   1.089   3.760  14.298
   28AGAL    O514231   1.105   3.947  14.391
   28AGAL    C214232   1.267   3.859  14.544
   28AGAL    H214233   1.205   3.915  14.617
   28AGAL    O214234   1.404   3.857  14.592
   28AGAL    C314235   1.207   3.720  14.532
   28AGAL    H314236   1.254   3.671  14.444
   28AGAL    O314237   1.236   3.637  14.645
   28AGAL   HO314238   1.311   3.581  14.624
   28AGAL    C414239   1.058   3.734  14.507
   28AGAL    H414240   1.017   3.632  14.485
   28AGAL    O414241   0.986   3.786  14.619
   28AGAL   HO414242   0.899   3.746  14.623
   28AGAL    C614243   0.896   3.839  14.336
   28AGAL   H6114244   0.896   3.877  14.231
   28AGAL   H6214245   0.842   3.742  14.336
   28AGAL    O614246   0.826   3.932  14.418
   28AGAL   HO614247   0.885   4.005  14.437
   29ARHM    C114248   1.411   3.892  14.728
   29ARHM    H114249   1.318   3.859  14.779
   29ARHM    C514250   1.548   4.086  14.696
   29ARHM    H514251   1.557   4.065  14.587
   29ARHM    O514252   1.424   4.035  14.745
   29ARHM    C214253   1.525   3.823  14.801
   29ARHM    H214254   1.518   3.714  14.782
   29ARHM    O214255   1.515   3.850  14.942
   29ARHM    C314256   1.660   3.871  14.751
   29ARHM    H314257   1.669   3.846  14.643
   29ARHM    O314258   1.766   3.805  14.821
   29ARHM   HO314259   1.846   3.805  14.769
   29ARHM    C414260   1.665   4.021  14.769
   29ARHM    H414261   1.654   4.044  14.877
   29ARHM    O414262   1.790   4.077  14.728
   29ARHM   HO414263   1.804   4.064  14.634
   29ARHM    C614264   1.543   4.238  14.716
   29ARHM   H6114265   1.458   4.282  14.660
   29ARHM   H6214266   1.527   4.261  14.824
   29ARHM   H6314267   1.637   4.286  14.682
   30ARHM    C114268   1.445   3.753  15.017
   30ARHM    H114269   1.481   3.651  14.990
   30ARHM    C514270   1.249   3.890  15.035
   30ARHM    H514271   1.298   3.969  14.974
   30ARHM    O514272   1.303   3.761  14.999
   30ARHM    C214273   1.477   3.778  15.163
   30ARHM    H214274   1.587   3.781  15.175
   30ARHM    O214275   1.420   3.675  15.243
   30ARHM    C314276   1.423   3.913  15.207
   30ARHM    H314277   1.469   3.989  15.141
   30ARHM    O314278   1.467   3.946  15.341
   30ARHM    C414279   1.274   3.920  15.182
   30ARHM    H414280   1.221   3.843  15.243
   30ARHM    O414281   1.223   4.049  15.216
   30ARHM   HO414282   1.170   4.087  15.146
   30ARHM    C614283   1.100   3.884  14.996
   30ARHM   H6114284   1.050   3.982  15.013
   30ARHM   H6214285   1.089   3.858  14.889
   30ARHM   H6314286   1.048   3.807  15.056
   31BMANN   C114287   1.504   3.566  15.271
   31BMANN   H114288   1.609   3.599  15.284
   31BMANN   C514289   1.579   3.350  15.200
   31BMANN   H514290   1.684   3.384  15.208
   31BMANN   O514291   1.495   3.464  15.171
   31BMANN   C214292   1.451   3.507  15.399
   31BMANN   H214293   1.460   3.586  15.477
   31BMANN    N14294   1.310   3.470  15.387
   31BMANN   HN14295   1.281   3.436  15.298
   31BMANN    C14296   1.221   3.479  15.486
   31BMANN    O14297   1.253   3.517  15.598
   31BMANN   CT14298   1.080   3.441  15.453
   31BMANN  HT114299   1.079   3.347  15.394
   31BMANN  HT214300   1.031   3.521  15.395
   31BMANN  HT314301   1.023   3.424  15.547
   31BMANN   C314302   1.541   3.393  15.440
   31BMANN   H314303   1.645   3.430  15.446
   31BMANN   O314304   1.507   3.345  15.569
   31BMANN  HO314305   1.412   3.353  15.582
   31BMANN   C414306   1.537   3.286  15.332
   31BMANN   H414307   1.434   3.246  15.323
   31BMANN   O414308   1.625   3.178  15.364
   31BMANN  HO414309   1.579   3.122  15.427
   31BMANN   C614310   1.567   3.253  15.084
   31BMANN  H6114311   1.629   3.163  15.102
   31BMANN  H6214312   1.461   3.219  15.076
   31BMANN   O614313   1.607   3.312  14.960
   31BMANN  HO614314   1.702   3.322  14.958
   32BGLCN   C114315   1.392   3.894  15.450
   32BGLCN   H114316   1.360   3.790  15.430
   32BGLCN   C514317   1.198   3.921  15.589
   32BGLCN   H514318   1.164   3.819  15.563
   32BGLCN   O514319   1.278   3.974  15.481
   32BGLCN   C214320   1.481   3.897  15.574
   32BGLCN   H214321   1.494   4.003  15.602
   32BGLCN    N14322   1.613   3.838  15.554
   32BGLCN   HN14323   1.621   3.739  15.564
   32BGLCN    C14324   1.724   3.913  15.540
   32BGLCN    O14325   1.720   4.035  15.531
   32BGLCN   CT14326   1.855   3.841  15.531
   32BGLCN  HT114327   1.857   3.778  15.440
   32BGLCN  HT214328   1.873   3.779  15.622
   32BGLCN  HT314329   1.937   3.916  15.524
   32BGLCN   C314330   1.405   3.831  15.687
   32BGLCN   H314331   1.371   3.733  15.650
   32BGLCN   O314332   1.485   3.811  15.805
   32BGLCN   C414333   1.283   3.916  15.715
   32BGLCN   H414334   1.316   4.019  15.739
   32BGLCN   O414335   1.208   3.869  15.826
   32BGLCN  HO414336   1.241   3.917  15.902
   32BGLCN   C614337   1.077   4.011  15.603
   32BGLCN  H6114338   1.012   3.975  15.686
   32BGLCN  H6214339   1.109   4.114  15.627
   32BGLCN   O614340   0.999   4.013  15.483
   32BGLCN  HO614341   1.060   4.030  15.410
   33AGAL    C114342   1.469   3.680  15.857
   33AGAL    H114343   1.364   3.646  15.846
   33AGAL    C514344   1.695   3.618  15.805
   33AGAL    H514345   1.714   3.723  15.774
   33AGAL    O514346   1.555   3.590  15.785
   33AGAL    C214347   1.502   3.673  16.005
   33AGAL    H214348   1.484   3.568  16.036
   33AGAL    O214349   1.410   3.758  16.077
   33AGAL    C314350   1.648   3.706  16.029
   33AGAL    H314351   1.667   3.810  15.993
   33AGAL    O314352   1.684   3.703  16.167
   33AGAL   HO314353   1.682   3.611  16.193
   33AGAL    C414354   1.735   3.609  15.951
   33AGAL    H414355   1.841   3.641  15.961
   33AGAL    O414356   1.725   3.476  16.001
   33AGAL   HO414357   1.723   3.416  15.927
   33AGAL    C614358   1.777   3.529  15.712
   33AGAL   H6114359   1.757   3.558  15.607
   33AGAL   H6214360   1.885   3.545  15.732
   33AGAL    O614361   1.747   3.390  15.727
   33AGAL   HO614362   1.658   3.372  15.696
   34ARHM    C114363   1.365   3.704  16.199
   34ARHM    H114364   1.452   3.670  16.258
   34ARHM    C514365   1.155   3.626  16.112
   34ARHM    H514366   1.180   3.664  16.011
   34ARHM    O514367   1.277   3.593  16.180
   34ARHM    C214368   1.293   3.814  16.275
   34ARHM    H214369   1.361   3.902  16.281
   34ARHM    O214370   1.257   3.777  16.410
   34ARHM    C314371   1.167   3.855  16.202
   34ARHM    H314372   1.195   3.888  16.099
   34ARHM    O314373   1.101   3.964  16.266
   34ARHM   HO314374   1.091   4.038  16.205
   34ARHM    C414375   1.078   3.733  16.189
   34ARHM    H414376   1.055   3.694  16.290
   34ARHM    O414377   0.953   3.764  16.126
   34ARHM   HO414378   0.916   3.837  16.176
   34ARHM    C614379   1.081   3.492  16.096
   34ARHM   H6114380   1.051   3.452  16.195
   34ARHM   H6214381   0.989   3.506  16.034
   34ARHM   H6314382   1.146   3.418  16.046
   35ARHM    C114383   1.360   3.735  16.495
   35ARHM    H114384   1.453   3.792  16.474
   35ARHM    C514385   1.266   3.515  16.502
   35ARHM    H514386   1.188   3.546  16.430
   35ARHM    O514387   1.385   3.594  16.482
   35ARHM    C214388   1.311   3.763  16.635
   35ARHM    H214389   1.284   3.871  16.640
   35ARHM    O214390   1.408   3.735  16.737
   35ARHM    C314391   1.186   3.684  16.664
   35ARHM    H314392   1.106   3.714  16.593
   35ARHM    O314393   1.137   3.714  16.795
   35ARHM   HO314394   1.202   3.683  16.859
   35ARHM    C414395   1.216   3.537  16.644
   35ARHM    H414396   1.298   3.508  16.714
   35ARHM    O414397   1.105   3.451  16.674
   35ARHM   HO414398   1.025   3.488  16.637
   35ARHM    C614399   1.304   3.369  16.469
   35ARHM   H6114400   1.340   3.363  16.364
   35ARHM   H6214401   1.385   3.333  16.536
   35ARHM   H6314402   1.216   3.303  16.480
   36BMANN   C114403   1.522   3.819  16.738
   36BMANN   H114404   1.498   3.919  16.696
   36BMANN   C514405   1.749   3.841  16.670
   36BMANN   H514406   1.723   3.941  16.629
   36BMANN   O514407   1.630   3.759  16.666
   36BMANN   C214408   1.563   3.829  16.883
   36BMANN   H214409   1.479   3.879  16.935
   36BMANN    N14410   1.583   3.699  16.945
   36BMANN   HN14411   1.609   3.625  16.883
   36BMANN    C14412   1.568   3.676  17.076
   36BMANN    O14413   1.535   3.765  17.153
   36BMANN   CT14414   1.596   3.536  17.124
   36BMANN  HT114415   1.698   3.505  17.094
   36BMANN  HT214416   1.522   3.465  17.080
   36BMANN  HT314417   1.588   3.532  17.234
   36BMANN   C314418   1.684   3.921  16.892
   36BMANN   H314419   1.657   4.019  16.848
   36BMANN   O314420   1.718   3.945  17.029
   36BMANN  HO314421   1.647   3.910  17.083
   36BMANN   C414422   1.798   3.860  16.813
   36BMANN   H414423   1.826   3.762  16.856
   36BMANN   O414424   1.914   3.943  16.812
   36BMANN  HO414425   1.912   4.003  16.887
   36BMANN   C614426   1.853   3.781  16.575
   36BMANN  H6114427   1.806   3.763  16.476
   36BMANN  H6214428   1.936   3.854  16.560
   36BMANN   O614429   1.907   3.658  16.623
   36BMANN  HO614430   1.976   3.676  16.688
    1ECLIP HB6S14431   6.060   6.354   6.686
    1ECLIP  OB614432   6.233   6.391   6.797
    1ECLIP  CB614433   6.134   6.436   6.700
    1ECLIP HB6R14434   6.078   6.525   6.736
    1ECLIP  CB514435   6.197   6.466   6.565
    1ECLIP  OB514436   6.270   6.347   6.530
    1ECLIP  HB514437   6.269   6.549   6.578
    1ECLIP  CB114438   6.342   6.366   6.407
    1ECLIP  HB114439   6.404   6.458   6.419
    1ECLIP  OA614440   6.434   6.265   6.380
    1ECLIP  CA614441   6.385   6.131   6.385
    1ECLIP HA6R14442   6.274   6.126   6.379
    1ECLIP HA6S14443   6.417   6.087   6.483
    1ECLIP  CB414444   6.095   6.499   6.455
    1ECLIP  HB414445   6.019   6.419   6.448
    1ECLIP  OB414446   6.039   6.626   6.488
    1ECLIP   PB14447   5.880   6.666   6.497
    1ECLIP OPB414448   5.874   6.806   6.439
    1ECLIP OPB314449   5.849   6.679   6.645
    1ECLIP OPB214450   5.796   6.564   6.425
    1ECLIP  CB314451   6.168   6.513   6.322
    1ECLIP  OB314452   6.074   6.518   6.216
    1ECLIP  HB314453   6.237   6.600   6.323
    1ECLIP  C7114454   6.033   6.634   6.170
    1ECLIP  O7114455   6.082   6.742   6.200
    1ECLIP  C7214456   5.974   6.609   6.031
    1ECLIP H72R14457   6.057   6.577   5.965
    1ECLIP H72S14458   5.935   6.706   5.995
    1ECLIP  CB214459   6.249   6.388   6.292
    1ECLIP  HB214460   6.180   6.302   6.283
    1ECLIP  NB214461   6.325   6.401   6.167
    1ECLIP HNB214462   6.414   6.446   6.172
    1ECLIP  CA414463   6.569   6.118   6.212
    1ECLIP  HA414464   6.535   6.217   6.174
    1ECLIP  OA414465   6.672   6.136   6.308
    1ECLIP HOA414466   6.756   6.116   6.267
    1ECLIP  CA514467   6.448   6.050   6.273
    1ECLIP  HA514468   6.476   5.950   6.311
    1ECLIP  OA514469   6.348   6.036   6.169
    1ECLIP  CA114470   6.390   5.955   6.058
    1ECLIP  HA114471   6.307   5.954   5.984
    1ECLIP  OA114472   6.423   5.824   6.101
    1ECLIP OPA214473   6.362   5.576   6.160
    1ECLIP OPA314474   6.187   5.730   6.190
    1ECLIP OPA414475   6.253   5.667   5.970
    1ECLIP   PA14476   6.310   5.707   6.105
    1ECLIP  CA314477   6.620   6.040   6.092
    1ECLIP  HA314478   6.650   5.939   6.128
    1ECLIP  OA314479   6.741   6.109   6.058
    1ECLIP  C3114480   6.742   6.216   5.979
    1ECLIP  O3114481   6.669   6.235   5.884
    1ECLIP  C3214482   6.831   6.325   6.042
    1ECLIP H32R14483   6.913   6.346   5.969
    1ECLIP H32S14484   6.877   6.284   6.134
    1ECLIP  CA214485   6.510   6.022   5.990
    1ECLIP  HA214486   6.473   6.121   5.957
    1ECLIP  NA214487   6.558   5.950   5.872
    1ECLIP HNA214488   6.651   5.914   5.879
    1ECLIP  C7314489   5.864   6.501   6.031
    1ECLIP H73R14490   5.797   6.518   6.118
    1ECLIP  O7314491   5.927   6.373   6.037
    1ECLIP  C8114492   5.853   6.273   6.082
    1ECLIP  O8114493   5.736   6.280   6.116
    1ECLIP  C8214494   5.915   6.140   6.036
    1ECLIP H82R14495   5.845   6.059   6.066
    1ECLIP H82S14496   6.012   6.126   6.089
    1ECLIP  C8314497   5.938   6.136   5.884
    1ECLIP H83R14498   6.018   6.208   5.858
    1ECLIP H83S14499   5.846   6.168   5.829
    1ECLIP  C8414500   5.981   5.998   5.830
    1ECLIP H84R14501   5.897   5.926   5.839
    1ECLIP H84S14502   6.066   5.960   5.892
    1ECLIP  C8514503   6.028   6.009   5.686
    1ECLIP H85R14504   6.123   6.067   5.684
    1ECLIP H85S14505   5.953   6.065   5.627
    1ECLIP  C8614506   6.055   5.874   5.616
    1ECLIP H86R14507   5.959   5.820   5.602
    1ECLIP H86S14508   6.119   5.813   5.684
    1ECLIP  C8714509   6.128   5.888   5.481
    1ECLIP H87R14510   6.134   5.789   5.432
    1ECLIP H87S14511   6.232   5.921   5.502
    1ECLIP  C8814512   6.064   5.991   5.386
    1ECLIP H88R14513   6.070   6.090   5.436
    1ECLIP H88S14514   5.956   5.967   5.373
    1ECLIP  C8914515   6.132   6.004   5.249
    1ECLIP H89R14516   6.242   6.011   5.263
    1ECLIP H89S14517   6.098   6.100   5.207
    1ECLIP C81014518   6.098   5.890   5.153
    1ECLIPH810R14519   5.990   5.866   5.160
    1ECLIPH810S14520   6.154   5.799   5.184
    1ECLIP C81114521   6.133   5.922   5.005
    1ECLIPH811R14522   6.117   5.831   4.944
    1ECLIPH811S14523   6.241   5.948   5.000
    1ECLIP C81214524   6.052   6.038   4.943
    1ECLIPH812R14525   6.089   6.055   4.839
    1ECLIPH812S14526   6.070   6.131   4.999
    1ECLIP C81314527   5.900   6.012   4.938
    1ECLIPH813R14528   5.880   5.923   4.873
    1ECLIPH813S14529   5.864   5.989   5.039
    1ECLIP C81414530   5.821   6.132   4.884
    1ECLIPH814R14531   5.855   6.161   4.783
    1ECLIPH814S14532   5.834   6.219   4.952
    1ECLIPH814T14533   5.712   6.108   4.881
    1ECLIP  C7414534   5.777   6.503   5.901
    1ECLIP H74R14535   5.714   6.594   5.898
    1ECLIP H74S14536   5.707   6.417   5.908
    1ECLIP  C7514537   5.852   6.490   5.767
    1ECLIP H75R14538   5.780   6.446   5.694
    1ECLIP H75S14539   5.936   6.418   5.778
    1ECLIP  C7614540   5.901   6.623   5.707
    1ECLIP H76R14541   5.993   6.657   5.759
    1ECLIP H76S14542   5.823   6.700   5.720
    1ECLIP  C7714543   5.930   6.608   5.556
    1ECLIP H77R14544   5.839   6.567   5.507
    1ECLIP H77S14545   6.012   6.534   5.543
    1ECLIP  C7814546   5.969   6.739   5.487
    1ECLIP H78R14547   5.882   6.808   5.488
    1ECLIP H78S14548   6.051   6.788   5.544
    1ECLIP  C7914549   6.017   6.720   5.342
    1ECLIP H79R14550   6.115   6.669   5.345
    1ECLIP H79S14551   6.031   6.819   5.295
    1ECLIP C71014552   5.923   6.635   5.254
    1ECLIPH710R14553   5.917   6.533   5.299
    1ECLIPH710S14554   5.821   6.678   5.256
    1ECLIP C71114555   5.971   6.621   5.109
    1ECLIPH711R14556   5.966   6.720   5.059
    1ECLIPH711S14557   6.078   6.589   5.109
    1ECLIP C71214558   5.890   6.517   5.031
    1ECLIPH712R14559   5.785   6.553   5.020
    1ECLIPH712S14560   5.886   6.424   5.091
    1ECLIP C71314561   5.949   6.483   4.893
    1ECLIPH713R14562   6.045   6.431   4.910
    1ECLIPH713S14563   5.881   6.410   4.844
    1ECLIP C71414564   5.972   6.602   4.800
    1ECLIPH714R14565   5.876   6.654   4.778
    1ECLIPH714S14566   6.042   6.674   4.845
    1ECLIPH714T14567   6.014   6.567   4.703
    1ECLIP  C5114568   6.288   6.357   6.045
    1ECLIP  O5114569   6.193   6.284   6.025
    1ECLIP  C5214570   6.375   6.408   5.933
    1ECLIP H52R14571   6.359   6.518   5.927
    1ECLIP H52S14572   6.480   6.388   5.965
    1ECLIP  C5314573   6.357   6.346   5.793
    1ECLIP H53R14574   6.359   6.235   5.800
    1ECLIP  O5314575   6.469   6.398   5.721
    1ECLIP  C6114576   6.536   6.314   5.644
    1ECLIP  O6114577   6.492   6.213   5.594
    1ECLIP  C6214578   6.654   6.394   5.587
    1ECLIP H62R14579   6.720   6.423   5.671
    1ECLIP H62S14580   6.610   6.487   5.544
    1ECLIP  C6314581   6.735   6.316   5.481
    1ECLIP H63R14582   6.674   6.235   5.436
    1ECLIP H63S14583   6.822   6.268   5.531
    1ECLIP  C6414584   6.781   6.403   5.365
    1ECLIP H64R14585   6.851   6.343   5.302
    1ECLIP H64S14586   6.839   6.489   5.405
    1ECLIP  C6514587   6.663   6.450   5.280
    1ECLIP H65R14588   6.599   6.519   5.339
    1ECLIP H65S14589   6.601   6.361   5.255
    1ECLIP  C6614590   6.699   6.522   5.149
    1ECLIP H66R14591   6.756   6.614   5.174
    1ECLIP H66S14592   6.606   6.554   5.098
    1ECLIP  C6714593   6.782   6.438   5.052
    1ECLIP H67R14594   6.880   6.411   5.098
    1ECLIP H67S14595   6.802   6.503   4.964
    1ECLIP  C6814596   6.712   6.311   5.004
    1ECLIP H68R14597   6.613   6.340   4.962
    1ECLIP H68S14598   6.693   6.243   5.090
    1ECLIP  C6914599   6.794   6.240   4.898
    1ECLIP H69R14600   6.872   6.178   4.946
    1ECLIP H69S14601   6.846   6.318   4.837
    1ECLIP C61014602   6.710   6.155   4.801
    1ECLIPH610R14603   6.608   6.196   4.792
    1ECLIPH610S14604   6.703   6.053   4.844
    1ECLIP C61114605   6.774   6.151   4.662
    1ECLIPH611R14606   6.884   6.144   4.675
    1ECLIPH611S14607   6.738   6.059   4.610
    1ECLIP C61214608   6.739   6.272   4.578
    1ECLIPH612R14609   6.641   6.257   4.528
    1ECLIPH612S14610   6.731   6.361   4.645
    1ECLIPH612T14611   6.817   6.291   4.500
    1ECLIP  C5414612   6.227   6.393   5.724
    1ECLIP H54R14613   6.227   6.504   5.716
    1ECLIP H54S14614   6.144   6.364   5.792
    1ECLIP  C5514615   6.200   6.330   5.587
    1ECLIP H55R14616   6.090   6.321   5.571
    1ECLIP H55S14617   6.241   6.227   5.587
    1ECLIP  C5614618   6.259   6.410   5.469
    1ECLIP H56R14619   6.367   6.430   5.487
    1ECLIP H56S14620   6.209   6.509   5.464
    1ECLIP  C5714621   6.246   6.336   5.335
    1ECLIP H57R14622   6.139   6.311   5.318
    1ECLIP H57S14623   6.302   6.240   5.344
    1ECLIP  C5814624   6.301   6.419   5.220
    1ECLIP H58R14625   6.242   6.513   5.214
    1ECLIP H58S14626   6.405   6.449   5.243
    1ECLIP  C5914627   6.298   6.347   5.085
    1ECLIP H59R14628   6.194   6.310   5.068
    1ECLIP H59S14629   6.366   6.259   5.087
    1ECLIP C51014630   6.337   6.442   4.971
    1ECLIPH510R14631   6.441   6.478   4.984
    1ECLIPH510S14632   6.271   6.531   4.980
    1ECLIP C51114633   6.320   6.382   4.832
    1ECLIPH511R14634   6.407   6.319   4.804
    1ECLIPH511S14635   6.231   6.315   4.834
    1ECLIP C51214636   6.293   6.490   4.726
    1ECLIPH512R14637   6.240   6.445   4.641
    1ECLIPH512S14638   6.225   6.566   4.771
    1ECLIP C51314639   6.417   6.566   4.679
    1ECLIPH513R14640   6.492   6.495   4.638
    1ECLIPH513S14641   6.464   6.618   4.764
    1ECLIP C51414642   6.379   6.669   4.570
    1ECLIPH514R14643   6.296   6.733   4.608
    1ECLIPH514S14644   6.464   6.734   4.544
    1ECLIPH514T14645   6.344   6.617   4.478
    1ECLIP  C3314646   6.758   6.457   6.077
    1ECLIP H33R14647   6.829   6.521   6.134
    1ECLIP  O3314648   6.647   6.430   6.160
    1ECLIP HO3314649   6.668   6.383   6.241
    1ECLIP  C3414650   6.712   6.534   5.950
    1ECLIP H34R14651   6.656   6.465   5.884
    1ECLIP H34S14652   6.802   6.565   5.893
    1ECLIP  C3514653   6.621   6.657   5.971
    1ECLIP H35R14654   6.677   6.742   6.016
    1ECLIP H35S14655   6.540   6.631   6.042
    1ECLIP  C3614656   6.558   6.700   5.839
    1ECLIP H36R14657   6.489   6.620   5.804
    1ECLIP H36S14658   6.637   6.705   5.760
    1ECLIP  C3714659   6.476   6.830   5.845
    1ECLIP H37R14660   6.545   6.917   5.854
    1ECLIP H37S14661   6.414   6.828   5.938
    1ECLIP  C3814662   6.383   6.848   5.724
    1ECLIP H38R14663   6.310   6.764   5.724
    1ECLIP H38S14664   6.326   6.942   5.736
    1ECLIP  C3914665   6.456   6.850   5.589
    1ECLIP H39R14666   6.519   6.759   5.579
    1ECLIP H39S14667   6.523   6.938   5.585
    1ECLIP C31014668   6.360   6.854   5.469
    1ECLIPH310R14669   6.305   6.951   5.470
    1ECLIPH310S14670   6.286   6.772   5.479
    1ECLIP C31114671   6.434   6.837   5.337
    1ECLIPH311R14672   6.515   6.913   5.329
    1ECLIPH311S14673   6.482   6.737   5.335
    1ECLIP C31214674   6.342   6.851   5.214
    1ECLIPH312R14675   6.251   6.790   5.229
    1ECLIPH312S14676   6.310   6.958   5.205
    1ECLIP C31314677   6.409   6.806   5.084
    1ECLIPH313R14678   6.505   6.860   5.077
    1ECLIPH313S14679   6.432   6.697   5.094
    1ECLIP C31414680   6.325   6.830   4.959
    1ECLIPH314R14681   6.305   6.939   4.947
    1ECLIPH314S14682   6.378   6.794   4.870
    1ECLIPH314T14683   6.228   6.777   4.967
    1ECLIP  C1114684   6.486   5.923   5.762
    1ECLIP  O1114685   6.377   5.974   5.740
    1ECLIP  C1214686   6.543   5.817   5.669
    1ECLIP H12R14687   6.477   5.728   5.681
    1ECLIP H12S14688   6.646   5.789   5.701
    1ECLIP  C1314689   6.543   5.861   5.523
    1ECLIP H13R14690   6.451   5.917   5.499
    1ECLIP  O1314691   6.546   5.744   5.443
    1ECLIP HO1314692   6.541   5.764   5.348
    1ECLIP  C1414693   6.666   5.945   5.481
    1ECLIP H14R14694   6.757   5.896   5.523
    1ECLIP H14S14695   6.657   6.044   5.530
    1ECLIP  C1514696   6.687   5.962   5.328
    1ECLIP H15R14697   6.715   5.863   5.286
    1ECLIP H15S14698   6.775   6.028   5.312
    1ECLIP  C1614699   6.567   6.019   5.250
    1ECLIP H16R14700   6.563   6.128   5.269
    1ECLIP H16S14701   6.471   5.976   5.286
    1ECLIP  C1714702   6.576   5.993   5.098
    1ECLIP H17R14703   6.680   6.012   5.065
    1ECLIP H17S14704   6.510   6.064   5.045
    1ECLIP  C1814705   6.536   5.850   5.058
    1ECLIP H18R14706   6.596   5.779   5.118
    1ECLIP H18S14707   6.429   5.833   5.084
    1ECLIP  C1914708   6.559   5.816   4.910
    1ECLIP H19R14709   6.551   5.706   4.898
    1ECLIP H19S14710   6.663   5.844   4.882
    1ECLIP C11014711   6.460   5.881   4.812
    1ECLIPH110R14712   6.359   5.841   4.832
    1ECLIPH110S14713   6.456   5.991   4.828
    1ECLIP C11114714   6.497   5.851   4.667
    1ECLIPH111R14715   6.588   5.910   4.639
    1ECLIPH111S14716   6.525   5.744   4.658
    1ECLIP C11214717   6.385   5.880   4.565
    1ECLIPH112R14718   6.294   5.823   4.596
    1ECLIPH112S14719   6.359   5.988   4.568
    1ECLIP C11314720   6.424   5.838   4.424
    1ECLIPH113R14721   6.506   5.905   4.388
    1ECLIPH113S14722   6.464   5.735   4.427
    1ECLIP C11414723   6.309   5.845   4.322
    1ECLIPH114R14724   6.223   5.783   4.356
    1ECLIPH114S14725   6.275   5.950   4.312
    1ECLIPH114T14726   6.343   5.809   4.222
    2AKDO    C114727   6.290   6.613   6.870
    2AKDO   O1114728   6.205   6.706   6.865
    2AKDO   O1214729   6.414   6.626   6.852
    2AKDO    C214730   6.242   6.471   6.914
    2AKDO    C614731   6.060   6.350   7.014
    2AKDO    H614732   6.058   6.288   6.924
    2AKDO    O614733   6.114   6.479   6.981
    2AKDO    C314734   6.337   6.396   7.011
    2AKDO   H3114735   6.351   6.458   7.102
    2AKDO   H3214736   6.436   6.384   6.962
    2AKDO    C414737   6.284   6.260   7.049
    2AKDO    H414738   6.272   6.201   6.957
    2AKDO    O414739   6.367   6.192   7.145
    2AKDO    C514740   6.148   6.272   7.115
    2AKDO    H514741   6.107   6.169   7.122
    2AKDO    O514742   6.161   6.324   7.250
    2AKDO    C714743   5.915   6.378   7.049
    2AKDO    H714744   5.911   6.454   7.130
    2AKDO    O714745   5.845   6.259   7.090
    2AKDO   HO714746   5.779   6.249   7.021
    2AKDO    C814747   5.846   6.434   6.924
    2AKDO   H8114748   5.897   6.526   6.891
    2AKDO   H8214749   5.853   6.361   6.840
    2AKDO    O814750   5.708   6.465   6.950
    2AKDO   HO814751   5.679   6.510   6.870
    3AKDO    C114752   6.423   6.005   6.991
    3AKDO   O1114753   6.513   5.938   6.934
    3AKDO   O1214754   6.306   5.960   7.007
    3AKDO    C214755   6.470   6.105   7.102
    3AKDO    C614756   6.637   6.261   7.177
    3AKDO    H614757   6.552   6.327   7.205
    3AKDO    O614758   6.591   6.178   7.068
    3AKDO    C314759   6.498   6.020   7.227
    3AKDO   H3114760   6.573   5.942   7.201
    3AKDO   H3214761   6.406   5.966   7.257
    3AKDO    C414762   6.548   6.100   7.342
    3AKDO    H414763   6.473   6.177   7.372
    3AKDO    O414764   6.570   6.015   7.454
    3AKDO   HO414765   6.490   6.007   7.506
    3AKDO    C514766   6.673   6.172   7.295
    3AKDO    H514767   6.712   6.233   7.379
    3AKDO    O514768   6.774   6.081   7.252
    3AKDO   HO514769   6.758   6.066   7.160
    3AKDO    C714770   6.755   6.354   7.148
    3AKDO    H714771   6.850   6.298   7.157
    3AKDO    O714772   6.753   6.461   7.243
    3AKDO   HO714773   6.838   6.504   7.230
    3AKDO    C814774   6.751   6.414   7.009
    3AKDO   H8114775   6.741   6.334   6.931
    3AKDO   H8214776   6.665   6.483   6.997
    3AKDO    O814777   6.874   6.486   6.985
    3AKDO   HO814778   6.944   6.421   6.971
    4AHEP    C114779   6.066   6.277   7.344
    4AHEP    H114780   5.967   6.313   7.306
    4AHEP    C514781   6.169   6.071   7.420
    4AHEP    H514782   6.257   6.093   7.358
    4AHEP    O514783   6.053   6.134   7.358
    4AHEP    C214784   6.087   6.339   7.480
    4AHEP    H214785   6.109   6.446   7.464
    4AHEP    O214786   5.970   6.332   7.562
    4AHEP   HO214787   5.995   6.270   7.631
    4AHEP    C314788   6.207   6.279   7.551
    4AHEP    H314789   6.300   6.307   7.499
    4AHEP    O314790   6.202   6.325   7.688
    4AHEP    C414791   6.191   6.129   7.561
    4AHEP    H414792   6.101   6.106   7.623
    4AHEP    O414793   6.311   6.072   7.615
    4AHEP    P414794   6.316   5.972   7.747
    4AHEP  OP4214795   6.432   6.022   7.833
    4AHEP  OP4314796   6.338   5.830   7.697
    4AHEP  OP4414797   6.182   5.987   7.816
    4AHEP    C614798   6.149   5.919   7.426
    4AHEP    H614799   6.241   5.872   7.467
    4AHEP    O614800   6.040   5.888   7.516
    4AHEP   HO614801   6.087   5.873   7.598
    4AHEP    C714802   6.126   5.853   7.290
    4AHEP   H7114803   6.106   5.744   7.306
    4AHEP   H7214804   6.219   5.861   7.230
    4AHEP    O714805   6.018   5.910   7.215
    4AHEP   HO714806   6.007   5.996   7.256
    5AHEP    C114807   6.325   6.353   7.748
    5AHEP    H114808   6.406   6.302   7.693
    5AHEP    C514809   6.250   6.567   7.822
    5AHEP    H514810   6.150   6.532   7.787
    5AHEP    O514811   6.350   6.495   7.747
    5AHEP    C214812   6.326   6.306   7.892
    5AHEP    H214813   6.273   6.208   7.889
    5AHEP    O214814   6.455   6.265   7.939
    5AHEP   HO214815   6.448   6.172   7.917
    5AHEP    C314816   6.229   6.383   7.981
    5AHEP    H314817   6.126   6.362   7.946
    5AHEP    O314818   6.243   6.349   8.120
    5AHEP    C414819   6.255   6.531   7.971
    5AHEP    H414820   6.352   6.562   8.016
    5AHEP    O414821   6.144   6.601   8.026
    5AHEP    P414822   6.131   6.673   8.172
    5AHEP  OP4214823   5.983   6.664   8.205
    5AHEP  OP4314824   6.174   6.817   8.160
    5AHEP  OP4414825   6.215   6.597   8.273
    5AHEP    C614826   6.255   6.714   7.783
    5AHEP    H614827   6.180   6.771   7.844
    5AHEP    O614828   6.384   6.770   7.811
    5AHEP   HO614829   6.437   6.693   7.830
    5AHEP    C714830   6.217   6.724   7.635
    5AHEP   H7114831   6.138   6.802   7.627
    5AHEP   H7214832   6.171   6.631   7.597
    5AHEP    O714833   6.323   6.766   7.549
    6AHEP    C114834   6.396   6.662   7.485
    6AHEP    H114835   6.353   6.561   7.504
    6AHEP    C514836   6.444   6.820   7.311
    6AHEP    H514837   6.379   6.894   7.362
    6AHEP    O514838   6.398   6.686   7.344
    6AHEP    C214839   6.538   6.671   7.537
    6AHEP    H214840   6.534   6.657   7.648
    6AHEP    O214841   6.625   6.567   7.491
    6AHEP   HO214842   6.626   6.557   7.395
    6AHEP    C314843   6.589   6.809   7.509
    6AHEP    H314844   6.513   6.879   7.551
    6AHEP    O314845   6.711   6.843   7.576
    6AHEP   HO314846   6.782   6.793   7.536
    6AHEP    C414847   6.588   6.840   7.360
    6AHEP    H414848   6.655   6.770   7.306
    6AHEP    O414849   6.630   6.975   7.341
    6AHEP   HO414850   6.676   6.981   7.257
    6AHEP    C614851   6.427   6.850   7.162
    6AHEP    H614852   6.473   6.949   7.141
    6AHEP    O614853   6.498   6.753   7.085
    6AHEP   HO614854   6.433   6.692   7.049
    6AHEP    C714855   6.281   6.859   7.122
    6AHEP   H7114856   6.274   6.887   7.013
    6AHEP   H7214857   6.232   6.941   7.179
    6AHEP    O714858   6.205   6.739   7.143
    6AHEP   HO714859   6.193   6.699   7.057
    7AGLC    C114860   6.158   6.249   8.172
    7AGLC    H114861   6.060   6.251   8.122
    7AGLC    C514862   6.344   6.106   8.220
    7AGLC    H514863   6.411   6.185   8.179
    7AGLC    O514864   6.215   6.118   8.157
    7AGLC    C214865   6.138   6.271   8.321
    7AGLC    H214866   6.073   6.188   8.358
    7AGLC    O214867   6.066   6.391   8.348
    7AGLC   HO214868   6.121   6.465   8.320
    7AGLC    C314869   6.269   6.264   8.398
    7AGLC    H314870   6.336   6.343   8.358
    7AGLC    O314871   6.252   6.279   8.542
    7AGLC    C414872   6.328   6.128   8.370
    7AGLC    H414873   6.258   6.051   8.408
    7AGLC    O414874   6.454   6.110   8.432
    7AGLC   HO414875   6.479   6.018   8.418
    7AGLC    C614876   6.404   5.971   8.181
    7AGLC   H6114877   6.360   5.938   8.084
    7AGLC   H6214878   6.513   5.984   8.163
    7AGLC    O614879   6.388   5.870   8.281
    7AGLC   HO614880   6.438   5.793   8.252
    8AGLC    C114881   6.323   6.389   8.595
    8AGLC    H114882   6.421   6.400   8.545
    8AGLC    C514883   6.118   6.508   8.641
    8AGLC    H514884   6.062   6.419   8.604
    8AGLC    O514885   6.248   6.510   8.577
    8AGLC    C214886   6.344   6.375   8.745
    8AGLC    H214887   6.404   6.461   8.780
    8AGLC    O214888   6.410   6.253   8.780
    8AGLC    C314889   6.214   6.371   8.821
    8AGLC    H314890   6.156   6.284   8.783
    8AGLC    O314891   6.244   6.344   8.960
    8AGLC    C414892   6.135   6.496   8.792
    8AGLC    H414893   6.191   6.586   8.825
    8AGLC    O414894   6.008   6.494   8.858
    8AGLC   HO414895   5.956   6.420   8.826
    8AGLC    C614896   6.041   6.630   8.592
    8AGLC   H6114897   6.036   6.628   8.481
    8AGLC   H6214898   5.936   6.626   8.630
    8AGLC    O614899   6.100   6.753   8.634
    8AGLC   HO614900   6.172   6.772   8.575
    9AGAL    C114901   6.541   6.229   8.736
    9AGAL    H114902   6.545   6.227   8.625
    9AGAL    C514903   6.630   6.341   8.926
    9AGAL    H514904   6.525   6.365   8.955
    9AGAL    O514905   6.633   6.328   8.783
    9AGAL    C214906   6.573   6.093   8.793
    9AGAL    H214907   6.674   6.063   8.759
    9AGAL    O214908   6.476   6.005   8.730
    9AGAL    C314909   6.570   6.102   8.945
    9AGAL    H314910   6.467   6.129   8.976
    9AGAL    O314911   6.605   5.979   9.010
    9AGAL   HO314912   6.698   5.968   8.990
    9AGAL    C414913   6.666   6.209   8.993
    9AGAL    H414914   6.655   6.222   9.103
    9AGAL    O414915   6.801   6.170   8.969
    9AGAL   HO414916   6.849   6.248   8.943
    9AGAL    C614917   6.712   6.464   8.965
    9AGAL   H6114918   6.698   6.543   8.888
    9AGAL   H6214919   6.673   6.504   9.061
    9AGAL    O614920   6.851   6.436   8.981
    9AGAL   HO614921   6.905   6.498   8.931
   10AGAL    C114922   6.446   5.880   8.786
   10AGAL    H114923   6.541   5.829   8.812
   10AGAL    C514924   6.236   5.958   8.873
   10AGAL    H514925   6.257   6.055   8.825
   10AGAL    O514926   6.362   5.892   8.903
   10AGAL    C214927   6.372   5.795   8.683
   10AGAL    H214928   6.353   5.696   8.730
   10AGAL    O214929   6.455   5.769   8.569
   10AGAL   HO214930   6.404   5.777   8.488
   10AGAL    C314931   6.238   5.857   8.646
   10AGAL    H314932   6.256   5.957   8.601
   10AGAL    O314933   6.167   5.774   8.554
   10AGAL   HO314934   6.156   5.813   8.465
   10AGAL    C414935   6.156   5.874   8.773
   10AGAL    H414936   6.063   5.930   8.747
   10AGAL    O414937   6.116   5.748   8.826
   10AGAL   HO414938   6.117   5.688   8.752
   10AGAL    C614939   6.167   5.990   9.005
   10AGAL   H6114940   6.217   6.078   9.050
   10AGAL   H6214941   6.061   6.017   8.988
   10AGAL    O614942   6.176   5.882   9.099
   10AGAL   HO614943   6.249   5.829   9.066
   11BGLC    C114944   6.255   6.450   9.052
   11BGLC    H114945   6.154   6.493   9.070
   11BGLC    C514946   6.351   6.666   9.096
   11BGLC    H514947   6.249   6.708   9.108
   11BGLC    O514948   6.345   6.553   9.007
   11BGLC    C214949   6.310   6.397   9.186
   11BGLC    H214950   6.414   6.362   9.165
   11BGLC    O214951   6.239   6.285   9.238
   11BGLC   HO214952   6.296   6.208   9.237
   11BGLC    C314953   6.317   6.509   9.286
   11BGLC    H314954   6.215   6.547   9.307
   11BGLC    O314955   6.381   6.467   9.408
   11BGLC    C414956   6.404   6.619   9.231
   11BGLC    H414957   6.507   6.580   9.217
   11BGLC    O414958   6.409   6.726   9.325
   11BGLC   HO414959   6.393   6.687   9.411
   11BGLC    C614960   6.441   6.773   9.036
   11BGLC   H6114961   6.444   6.862   9.102
   11BGLC   H6214962   6.544   6.733   9.030
   11BGLC    O614963   6.402   6.814   8.905
   11BGLC   HO614964   6.309   6.836   8.899
   12BGLCN   C114965   6.300   6.454   9.521
   12BGLCN   H114966   6.220   6.379   9.502
   12BGLCN   C514967   6.169   6.573   9.681
   12BGLCN   H514968   6.089   6.497   9.669
   12BGLCN   O514969   6.246   6.581   9.558
   12BGLCN   C214970   6.396   6.407   9.629
   12BGLCN   H214971   6.471   6.489   9.641
   12BGLCN    N14972   6.467   6.288   9.585
   12BGLCN   HN14973   6.415   6.226   9.526
   12BGLCN    C14974   6.598   6.266   9.604
   12BGLCN    O14975   6.668   6.338   9.675
   12BGLCN   CT14976   6.656   6.146   9.535
   12BGLCN  HT114977   6.729   6.096   9.601
   12BGLCN  HT214978   6.709   6.179   9.443
   12BGLCN  HT314979   6.576   6.074   9.507
   12BGLCN   C314980   6.323   6.396   9.763
   12BGLCN   H314981   6.244   6.318   9.753
   12BGLCN   O314982   6.414   6.359   9.870
   12BGLCN   C414983   6.262   6.531   9.794
   12BGLCN   H414984   6.344   6.606   9.800
   12BGLCN   O414985   6.192   6.533   9.918
   12BGLCN  HO414986   6.255   6.522   9.990
   12BGLCN   C614987   6.104   6.709   9.700
   12BGLCN  H6114988   6.065   6.717   9.804
   12BGLCN  H6214989   6.178   6.790   9.684
   12BGLCN   O614990   5.992   6.728   9.612
   12BGLCN  HO614991   6.020   6.738   9.521
   13AGAL    C114992   6.362   6.278   9.973
   13AGAL    H114993   6.258   6.306   9.997
   13AGAL    C514994   6.497   6.090   9.907
   13AGAL    H514995   6.537   6.156   9.826
   13AGAL    O514996   6.364   6.138   9.939
   13AGAL    C214997   6.449   6.294  10.097
   13AGAL    H214998   6.411   6.223  10.172
   13AGAL    O214999   6.438   6.428  10.153
   13AGAL    C315000   6.593   6.253  10.064
   13AGAL    H315001   6.627   6.314   9.977
   13AGAL    O315002   6.684   6.280  10.171
   13AGAL   HO315003   6.772   6.297  10.136
   13AGAL    C415004   6.592   6.106  10.025
   13AGAL    H415005   6.695   6.079   9.991
   13AGAL    O415006   6.560   6.019  10.134
   13AGAL   HO415007   6.465   6.015  10.144
   13AGAL    C615008   6.489   5.951   9.846
   13AGAL   H6115009   6.420   5.954   9.759
   13AGAL   H6215010   6.589   5.922   9.808
   13AGAL    O615011   6.443   5.851   9.938
   13AGAL   HO615012   6.510   5.837  10.004
   14ARHM    C115013   6.385   6.438  10.282
   14ARHM    H115014   6.305   6.362  10.294
   14ARHM    C515015   6.412   6.675  10.295
   14ARHM    H515016   6.457   6.677  10.194
   14ARHM    O515017   6.320   6.565  10.304
   14ARHM    C215018   6.493   6.414  10.387
   14ARHM    H215019   6.544   6.319  10.363
   14ARHM    O215020   6.449   6.404  10.524
   14ARHM    C315021   6.593   6.527  10.379
   14ARHM    H315022   6.638   6.528  10.278
   14ARHM    O315023   6.700   6.510  10.471
   14ARHM   HO315024   6.665   6.478  10.554
   14ARHM    C415025   6.522   6.660  10.399
   14ARHM    H415026   6.474   6.659  10.499
   14ARHM    O415027   6.613   6.769  10.395
   14ARHM   HO415028   6.701   6.731  10.393
   14ARHM    C615029   6.326   6.801  10.313
   14ARHM   H6115030   6.248   6.806  10.234
   14ARHM   H6215031   6.275   6.800  10.411
   14ARHM   H6315032   6.389   6.893  10.306
   15ARHM    C115033   6.356   6.302  10.550
   15ARHM    H115034   6.372   6.216  10.481
   15ARHM    C515035   6.194   6.461  10.623
   15ARHM    H515036   6.263   6.544  10.597
   15ARHM    O515037   6.222   6.349  10.538
   15ARHM    C215038   6.377   6.255  10.693
   15ARHM    H215039   6.481   6.219  10.705
   15ARHM    O215040   6.288   6.144  10.712
   15ARHM    C315041   6.354   6.371  10.788
   15ARHM    H315042   6.425   6.451  10.760
   15ARHM    O315043   6.381   6.331  10.923
   15ARHM    C415044   6.213   6.421  10.769
   15ARHM    H415045   6.142   6.339  10.792
   15ARHM    O415046   6.184   6.531  10.856
   15ARHM   HO415047   6.089   6.543  10.857
   15ARHM    C615048   6.051   6.506  10.589
   15ARHM   H6115049   6.022   6.598  10.646
   15ARHM   H6215050   6.043   6.530  10.481
   15ARHM   H6315051   5.978   6.425  10.612
   16BMANN   C115052   6.287   6.077  10.835
   16BMANN   H115053   6.243   6.142  10.913
   16BMANN   C515054   6.413   5.965  11.003
   16BMANN   H515055   6.370   6.033  11.079
   16BMANN   O515056   6.418   6.033  10.877
   16BMANN   C215057   6.197   5.957  10.814
   16BMANN   H215058   6.097   5.999  10.793
   16BMANN    N15059   6.240   5.873  10.702
   16BMANN   HN15060   6.332   5.837  10.705
   16BMANN    C15061   6.161   5.843  10.598
   16BMANN    O15062   6.048   5.888  10.585
   16BMANN   CT15063   6.220   5.750  10.495
   16BMANN  HT115064   6.143   5.675  10.465
   16BMANN  HT215065   6.309   5.698  10.535
   16BMANN  HT315066   6.249   5.809  10.405
   16BMANN   C315067   6.186   5.883  10.946
   16BMANN   H315068   6.143   5.951  11.023
   16BMANN   O315069   6.098   5.772  10.933
   16BMANN  HO315070   6.011   5.803  10.906
   16BMANN   C415071   6.325   5.840  10.993
   16BMANN   H415072   6.369   5.770  10.919
   16BMANN   O415073   6.319   5.774  11.120
   16BMANN  HO415074   6.260   5.699  11.113
   16BMANN   C615075   6.556   5.934  11.044
   16BMANN  H6115076   6.556   5.879  11.141
   16BMANN  H6215077   6.604   5.869  10.968
   16BMANN   O615078   6.633   6.054  11.061
   16BMANN  HO615079   6.626   6.105  10.979
   17BGLCN   C115080   6.459   6.421  10.996
   17BGLCN   H115081   6.431   6.526  10.971
   17BGLCN   C515082   6.681   6.489  11.050
   17BGLCN   H515083   6.657   6.593  11.020
   17BGLCN   O515084   6.598   6.399  10.974
   17BGLCN   C215085   6.429   6.393  11.141
   17BGLCN   H215086   6.470   6.292  11.165
   17BGLCN    N15087   6.285   6.386  11.162
   17BGLCN   HN15088   6.230   6.428  11.090
   17BGLCN    C15089   6.225   6.314  11.258
   17BGLCN    O15090   6.285   6.253  11.345
   17BGLCN   CT15091   6.074   6.312  11.253
   17BGLCN  HT115092   6.040   6.241  11.175
   17BGLCN  HT215093   6.034   6.413  11.232
   17BGLCN  HT315094   6.036   6.278  11.352
   17BGLCN   C315095   6.507   6.494  11.227
   17BGLCN   H315096   6.481   6.595  11.189
   17BGLCN   O315097   6.471   6.487  11.366
   17BGLCN   C415098   6.655   6.471  11.199
   17BGLCN   H415099   6.681   6.367  11.227
   17BGLCN   O415100   6.738   6.560  11.273
   17BGLCN  HO415101   6.759   6.520  11.357
   17BGLCN   C615102   6.825   6.462  11.009
   17BGLCN  H6115103   6.895   6.521  11.072
   17BGLCN  H6215104   6.848   6.354  11.026
   17BGLCN   O615105   6.850   6.494  10.871
   17BGLCN  HO615106   6.885   6.583  10.863
   18AGAL    C115107   6.478   6.608  11.440
   18AGAL    H115108   6.584   6.639  11.453
   18AGAL    C515109   6.265   6.683  11.366
   18AGAL    H515110   6.258   6.587  11.311
   18AGAL    O515111   6.405   6.715  11.378
   18AGAL    C215112   6.420   6.588  11.579
   18AGAL    H215113   6.424   6.689  11.627
   18AGAL    O215114   6.499   6.500  11.661
   18AGAL    C315115   6.274   6.546  11.568
   18AGAL    H315116   6.270   6.454  11.506
   18AGAL    O315117   6.214   6.512  11.694
   18AGAL   HO315118   6.147   6.445  11.682
   18AGAL    C415119   6.197   6.658  11.500
   18AGAL    H415120   6.094   6.623  11.481
   18AGAL    O415121   6.189   6.773  11.585
   18AGAL   HO415122   6.179   6.741  11.675
   18AGAL    C615123   6.195   6.782  11.273
   18AGAL   H6115124   6.245   6.779  11.173
   18AGAL   H6215125   6.090   6.749  11.259
   18AGAL    O615126   6.196   6.917  11.319
   18AGAL   HO615127   6.280   6.957  11.295
   19ARHM    C115128   6.503   6.544  11.797
   19ARHM    H115129   6.408   6.595  11.824
   19ARHM    C515130   6.739   6.579  11.797
   19ARHM    H515131   6.745   6.545  11.691
   19ARHM    O515132   6.609   6.636  11.821
   19ARHM    C215133   6.519   6.423  11.885
   19ARHM    H215134   6.445   6.347  11.852
   19ARHM    O215135   6.490   6.455  12.023
   19ARHM    C315136   6.654   6.358  11.866
   19ARHM    H315137   6.661   6.323  11.759
   19ARHM    O315138   6.667   6.243  11.950
   19ARHM   HO315139   6.756   6.242  11.988
   19ARHM    C415140   6.762   6.460  11.891
   19ARHM    H415141   6.755   6.496  11.995
   19ARHM    O415142   6.892   6.405  11.871
   19ARHM   HO415143   6.895   6.372  11.780
   19ARHM    C615144   6.840   6.694  11.815
   19ARHM   H6115145   6.816   6.776  11.745
   19ARHM   H6215146   6.836   6.732  11.919
   19ARHM   H6315147   6.943   6.658  11.794
   20ARHM    C115148   6.353   6.469  12.048
   20ARHM    H115149   6.292   6.425  11.967
   20ARHM    C515150   6.377   6.674  12.168
   20ARHM    H515151   6.486   6.674  12.148
   20ARHM    O515152   6.310   6.606  12.062
   20ARHM    C215153   6.325   6.394  12.175
   20ARHM    H215154   6.369   6.292  12.168
   20ARHM    O215155   6.183   6.383  12.196
   20ARHM    C315156   6.394   6.460  12.291
   20ARHM    H315157   6.504   6.455  12.276
   20ARHM    O315158   6.357   6.386  12.408
   20ARHM    C415159   6.350   6.604  12.301
   20ARHM    H415160   6.240   6.607  12.321
   20ARHM    O415161   6.417   6.672  12.408
   20ARHM   HO415162   6.500   6.705  12.374
   20ARHM    C615163   6.326   6.819  12.165
   20ARHM   H6115164   6.217   6.823  12.182
   20ARHM   H6215165   6.377   6.881  12.242
   20ARHM   H6315166   6.347   6.864  12.065
   21BMANN   C115167   6.124   6.283  12.116
   21BMANN   H115168   6.200   6.231  12.054
   21BMANN   C515169   5.967   6.236  11.944
   21BMANN   H515170   6.049   6.186  11.888
   21BMANN   O515171   6.025   6.338  12.030
   21BMANN   C215172   6.062   6.183  12.210
   21BMANN   H215173   6.146   6.139  12.267
   21BMANN    N15174   5.973   6.246  12.308
   21BMANN   HN15175   5.938   6.337  12.286
   21BMANN    C15176   5.946   6.193  12.427
   21BMANN    O15177   5.989   6.082  12.458
   21BMANN   CT15178   5.862   6.274  12.523
   21BMANN  HT115179   5.757   6.239  12.517
   21BMANN  HT215180   5.868   6.382  12.496
   21BMANN  HT315181   5.901   6.260  12.625
   21BMANN   C315182   5.999   6.073  12.127
   21BMANN   H315183   6.079   6.024  12.068
   21BMANN   O315184   5.943   5.972  12.211
   21BMANN  HO315185   5.963   5.995  12.302
   21BMANN   C415186   5.897   6.132  12.031
   21BMANN   H415187   5.816   6.181  12.089
   21BMANN   O415188   5.840   6.031  11.949
   21BMANN  HO415189   5.828   5.951  12.002
   21BMANN   C615190   5.878   6.303  11.842
   21BMANN  H6115191   5.838   6.227  11.772
   21BMANN  H6215192   5.791   6.351  11.892
   21BMANN   O615193   5.949   6.402  11.767
   21BMANN  HO615194   5.973   6.474  11.828
   22BGLCN   C115195   6.455   6.375  12.509
   22BGLCN   H115196   6.525   6.462  12.505
   22BGLCN   C515197   6.622   6.233  12.599
   22BGLCN   H515198   6.690   6.322  12.602
   22BGLCN   O515199   6.526   6.252  12.493
   22BGLCN   C215200   6.376   6.374  12.637
   22BGLCN   H215201   6.308   6.286  12.634
   22BGLCN    N15202   6.293   6.494  12.647
   22BGLCN   HN15203   6.324   6.573  12.592
   22BGLCN    C15204   6.174   6.500  12.707
   22BGLCN    O15205   6.122   6.404  12.762
   22BGLCN   CT15206   6.104   6.633  12.703
   22BGLCN  HT115207   6.035   6.636  12.616
   22BGLCN  HT215208   6.177   6.716  12.696
   22BGLCN  HT315209   6.045   6.645  12.797
   22BGLCN   C315210   6.471   6.355  12.755
   22BGLCN   H315211   6.544   6.439  12.753
   22BGLCN   O315212   6.395   6.361  12.877
   22BGLCN   C415213   6.548   6.225  12.731
   22BGLCN   H415214   6.474   6.142  12.727
   22BGLCN   O415215   6.640   6.195  12.836
   22BGLCN  HO415216   6.643   6.100  12.849
   22BGLCN   C615217   6.708   6.113  12.564
   22BGLCN  H6115218   6.777   6.090  12.648
   22BGLCN  H6215219   6.644   6.023  12.547
   22BGLCN   O615220   6.788   6.137  12.449
   22BGLCN  HO615221   6.732   6.155  12.371
   23AGAL    C115222   6.464   6.387  12.998
   23AGAL    H115223   6.528   6.300  13.023
   23AGAL    C515224   6.471   6.624  12.963
   23AGAL    H515225   6.413   6.608  12.870
   23AGAL    O515226   6.547   6.505  12.989
   23AGAL    C215227   6.364   6.405  13.111
   23AGAL    H215228   6.422   6.421  13.204
   23AGAL    O215229   6.280   6.290  13.130
   23AGAL    C315230   6.280   6.529  13.088
   23AGAL    H315231   6.223   6.514  12.993
   23AGAL    O315232   6.185   6.548  13.193
   23AGAL   HO315233   6.233   6.576  13.270
   23AGAL    C415234   6.370   6.650  13.075
   23AGAL    H415235   6.308   6.737  13.043
   23AGAL    O415236   6.434   6.683  13.197
   23AGAL   HO415237   6.523   6.710  13.172
   23AGAL    C615238   6.567   6.739  12.934
   23AGAL   H6115239   6.637   6.708  12.854
   23AGAL   H6215240   6.509   6.826  12.895
   23AGAL    O615241   6.642   6.782  13.048
   23AGAL   HO615242   6.709   6.846  13.023
   24ARHM    C115243   6.329   6.184  13.207
   24ARHM    H115244   6.440   6.191  13.214
   24ARHM    C515245   6.159   6.033  13.137
   24ARHM    H515246   6.113   6.112  13.074
   24ARHM    O515247   6.301   6.057  13.147
   24ARHM    C215248   6.270   6.193  13.345
   24ARHM    H215249   6.288   6.296  13.385
   24ARHM    O215250   6.327   6.095  13.434
   24ARHM    C315251   6.121   6.172  13.339
   24ARHM    H315252   6.076   6.251  13.274
   24ARHM    O315253   6.062   6.184  13.468
   24ARHM   HO315254   5.967   6.175  13.457
   24ARHM    C415255   6.095   6.037  13.276
   24ARHM    H415256   6.143   5.959  13.338
   24ARHM    O415257   5.956   6.007  13.269
   24ARHM   HO415258   5.946   5.912  13.283
   24ARHM    C615259   6.142   5.899  13.064
   24ARHM   H6115260   6.034   5.877  13.047
   24ARHM   H6215261   6.192   5.903  12.964
   24ARHM   H6315262   6.187   5.816  13.123
   25ARHM    C115263   6.442   6.134  13.503
   25ARHM    H115264   6.501   6.200  13.436
   25ARHM    C515265   6.467   5.934  13.630
   25ARHM    H515266   6.372   5.896  13.586
   25ARHM    O515267   6.528   6.024  13.536
   25ARHM    C215268   6.405   6.211  13.628
   25ARHM    H215269   6.330   6.289  13.603
   25ARHM    O215270   6.520   6.272  13.689
   25ARHM    C315271   6.340   6.121  13.731
   25ARHM    H315272   6.245   6.081  13.689
   25ARHM    O315273   6.312   6.204  13.843
   25ARHM    C415274   6.436   6.007  13.760
   25ARHM    H415275   6.531   6.050  13.800
   25ARHM    O415276   6.386   5.918  13.860
   25ARHM   HO415277   6.446   5.844  13.873
   25ARHM    C615278   6.564   5.817  13.644
   25ARHM   H6115279   6.586   5.773  13.543
   25ARHM   H6215280   6.660   5.850  13.689
   25ARHM   H6315281   6.521   5.737  13.707
   26BMANN   C115282   6.557   6.393  13.628
   26BMANN   H115283   6.467   6.450  13.597
   26BMANN   C515284   6.681   6.489  13.450
   26BMANN   H515285   6.589   6.541  13.416
   26BMANN   O515286   6.643   6.368  13.516
   26BMANN   C215287   6.634   6.474  13.731
   26BMANN   H215288   6.562   6.496  13.814
   26BMANN    N15289   6.746   6.402  13.790
   26BMANN   HN15290   6.777   6.322  13.739
   26BMANN    C15291   6.806   6.435  13.905
   26BMANN    O15292   6.769   6.531  13.971
   26BMANN   CT15293   6.922   6.352  13.950
   26BMANN  HT115294   6.967   6.298  13.863
   26BMANN  HT215295   6.888   6.278  14.026
   26BMANN  HT315296   6.999   6.419  13.995
   26BMANN   C315297   6.671   6.607  13.665
   26BMANN   H315298   6.578   6.656  13.631
   26BMANN   O315299   6.733   6.694  13.759
   26BMANN  HO315300   6.744   6.646  13.842
   26BMANN   C415301   6.758   6.580  13.543
   26BMANN   H415302   6.852   6.531  13.575
   26BMANN   O415303   6.790   6.698  13.471
   26BMANN  HO415304   6.833   6.763  13.527
   26BMANN   C615305   6.758   6.451  13.324
   26BMANN  H6115306   6.700   6.375  13.266
   26BMANN  H6215307   6.768   6.540  13.258
   26BMANN   O615308   6.888   6.399  13.350
   26BMANN  HO615309   6.951   6.472  13.356
   27BGLCN   C115310   6.204   6.166  13.923
   27BGLCN   H115311   6.186   6.056  13.918
   27BGLCN   C515312   5.976   6.203  13.977
   27BGLCN   H515313   5.961   6.093  13.968
   27BGLCN   O515314   6.085   6.238  13.890
   27BGLCN   C215315   6.246   6.206  14.062
   27BGLCN   H215316   6.253   6.317  14.062
   27BGLCN    N15317   6.378   6.152  14.095
   27BGLCN   HN15318   6.399   6.064  14.052
   27BGLCN    C15319   6.473   6.219  14.161
   27BGLCN    O15320   6.458   6.333  14.203
   27BGLCN   CT15321   6.604   6.147  14.180
   27BGLCN  HT115322   6.606   6.052  14.123
   27BGLCN  HT215323   6.617   6.126  14.290
   27BGLCN  HT315324   6.687   6.212  14.145
   27BGLCN   C315325   6.139   6.167  14.161
   27BGLCN   H315326   6.124   6.057  14.154
   27BGLCN   O315327   6.187   6.201  14.293
   27BGLCN   C415328   6.010   6.237  14.121
   27BGLCN   H415329   6.024   6.347  14.130
   27BGLCN   O415330   5.902   6.198  14.206
   27BGLCN  HO415331   5.887   6.104  14.193
   27BGLCN   C615332   5.850   6.272  13.926
   27BGLCN  H6115333   5.771   6.269  14.005
   27BGLCN  H6215334   5.872   6.379  13.906
   27BGLCN   O615335   5.795   6.212  13.808
   27BGLCN  HO615336   5.795   6.278  13.738
   28AGAL    C115337   6.125   6.139  14.404
   28AGAL    H115338   6.024   6.183  14.420
   28AGAL    C515339   6.240   5.931  14.372
   28AGAL    H515340   6.295   5.982  14.290
   28AGAL    O515341   6.112   5.997  14.385
   28AGAL    C215342   6.204   6.160  14.533
   28AGAL    H215343   6.146   6.101  14.607
   28AGAL    O215344   6.214   6.297  14.578
   28AGAL    C315345   6.342   6.098  14.520
   28AGAL    H315346   6.394   6.143  14.433
   28AGAL    O315347   6.423   6.123  14.636
   28AGAL   HO315348   6.480   6.198  14.620
   28AGAL    C415349   6.327   5.948  14.497
   28AGAL    H415350   6.427   5.905  14.476
   28AGAL    O415351   6.276   5.883  14.613
   28AGAL   HO415352   6.296   5.941  14.687
   28AGAL    C615353   6.217   5.790  14.321
   28AGAL   H6115354   6.151   5.793  14.232
   28AGAL   H6215355   6.314   5.745  14.288
   28AGAL    O615356   6.159   5.703  14.418
   28AGAL   HO615357   6.077   5.742  14.450
   29ARHM    C115358   6.178   6.311  14.715
   29ARHM    H115359   6.189   6.214  14.768
   29ARHM    C515360   6.020   6.486  14.672
   29ARHM    H515361   6.044   6.485  14.564
   29ARHM    O515362   6.042   6.355  14.728
   29ARHM    C215363   6.269   6.409  14.786
   29ARHM    H215364   6.374   6.377  14.768
   29ARHM    O215365   6.242   6.410  14.928
   29ARHM    C315366   6.253   6.548  14.731
   29ARHM    H315367   6.282   6.548  14.624
   29ARHM    O315368   6.340   6.639  14.800
   29ARHM   HO315369   6.296   6.660  14.883
   29ARHM    C415370   6.107   6.588  14.744
   29ARHM    H415371   6.078   6.585  14.851
   29ARHM    O415372   6.082   6.721  14.697
   29ARHM   HO415373   6.092   6.725  14.602
   29ARHM    C615374   5.869   6.512  14.688
   29ARHM   H6115375   5.810   6.433  14.638
   29ARHM   H6215376   5.842   6.512  14.796
   29ARHM   H6315377   5.841   6.610  14.644
   30ARHM    C115378   6.332   6.334  15.005
   30ARHM    H115379   6.436   6.359  14.977
   30ARHM    C515380   6.180   6.149  15.028
   30ARHM    H515381   6.103   6.201  14.968
   30ARHM    O515382   6.311   6.193  14.988
   30ARHM    C215383   6.311   6.370  15.151
   30ARHM    H215384   6.320   6.480  15.162
   30ARHM    O215385   6.408   6.303  15.233
   30ARHM    C315386   6.173   6.328  15.197
   30ARHM    H315387   6.099   6.381  15.133
   30ARHM    O315388   6.150   6.375  15.332
   30ARHM    C415389   6.155   6.180  15.175
   30ARHM    H415390   6.229   6.121  15.234
   30ARHM    O415391   6.024   6.140  15.213
   30ARHM   HO415392   6.008   6.177  15.300
   30ARHM    C615393   6.176   5.999  14.995
   30ARHM   H6115394   6.077   5.955  15.021
   30ARHM   H6215395   6.193   5.983  14.886
   30ARHM   H6315396   6.255   5.944  15.051
   31BMANN   C115397   6.527   6.372  15.259
   31BMANN   H115398   6.507   6.480  15.279
   31BMANN   C515399   6.748   6.418  15.181
   31BMANN   H515400   6.731   6.526  15.202
   31BMANN   O515401   6.622   6.354  15.153
   31BMANN   C215402   6.581   6.303  15.382
   31BMANN   H215403   6.510   6.323  15.464
   31BMANN    N15404   6.587   6.158  15.363
   31BMANN   HN15405   6.583   6.126  15.269
   31BMANN    C15406   6.586   6.070  15.464
   31BMANN    O15407   6.587   6.107  15.580
   31BMANN   CT15408   6.583   5.924  15.426
   31BMANN  HT115409   6.650   5.905  15.340
   31BMANN  HT215410   6.479   5.894  15.400
   31BMANN  HT315411   6.617   5.863  15.513
   31BMANN   C315412   6.713   6.368  15.419
   31BMANN   H315413   6.694   6.476  15.435
   31BMANN   O315414   6.763   6.317  15.542
   31BMANN  HO315415   6.717   6.237  15.565
   31BMANN   C415416   6.811   6.355  15.305
   31BMANN   H415417   6.832   6.248  15.285
   31BMANN   O415418   6.933   6.420  15.338
   31BMANN  HO415419   6.950   6.401  15.430
   31BMANN   C615420   6.835   6.408  15.056
   31BMANN  H6115421   6.932   6.459  15.073
   31BMANN  H6215422   6.856   6.302  15.035
   31BMANN   O615423   6.770   6.465  14.941
   31BMANN  HO615424   6.793   6.558  14.931
   32BGLCN   C115425   6.189   6.292  15.439
   32BGLCN   H115426   6.285   6.240  15.417
   32BGLCN   C515427   6.125   6.108  15.578
   32BGLCN   H515428   6.219   6.054  15.553
   32BGLCN   O515429   6.088   6.195  15.470
   32BGLCN   C215430   6.208   6.381  15.561
   32BGLCN   H215431   6.107   6.418  15.589
   32BGLCN    N15432   6.288   6.499  15.532
   32BGLCN   HN15433   6.351   6.494  15.455
   32BGLCN    C15434   6.270   6.618  15.592
   32BGLCN    O15435   6.189   6.637  15.682
   32BGLCN   CT15436   6.359   6.730  15.546
   32BGLCN  HT115437   6.434   6.694  15.473
   32BGLCN  HT215438   6.411   6.774  15.634
   32BGLCN  HT315439   6.297   6.809  15.498
   32BGLCN   C315440   6.259   6.293  15.674
   32BGLCN   H315441   6.347   6.238  15.634
   32BGLCN   O315442   6.301   6.362  15.793
   32BGLCN   C415443   6.149   6.192  15.703
   32BGLCN   H415444   6.056   6.248  15.726
   32BGLCN   O415445   6.179   6.112  15.816
   32BGLCN  HO415446   6.212   6.169  15.885
   32BGLCN   C615447   6.014   6.006  15.592
   32BGLCN  H6115448   6.035   5.938  15.677
   32BGLCN  H6215449   5.917   6.058  15.611
   32BGLCN   O615450   6.000   5.926  15.474
   32BGLCN  HO615451   5.999   5.981  15.396
   33AGAL    C115452   6.425   6.316  15.844
   33AGAL    H115453   6.438   6.207  15.826
   33AGAL    C515454   6.538   6.527  15.815
   33AGAL    H515455   6.442   6.571  15.782
   33AGAL    O515456   6.536   6.386  15.784
   33AGAL    C215457   6.432   6.337  15.995
   33AGAL    H215458   6.532   6.299  16.027
   33AGAL    O215459   6.332   6.257  16.060
   33AGAL    C315460   6.425   6.485  16.028
   33AGAL    H315461   6.332   6.527  15.983
   33AGAL    O315462   6.414   6.510  16.168
   33AGAL   HO315463   6.457   6.593  16.191
   33AGAL    C415464   6.545   6.553  15.965
   33AGAL    H415465   6.536   6.663  15.983
   33AGAL    O415466   6.670   6.512  16.020
   33AGAL   HO415467   6.705   6.441  15.965
   33AGAL    C615468   6.648   6.594  15.735
   33AGAL   H6115469   6.616   6.601  15.628
   33AGAL   H6215470   6.663   6.698  15.772
   33AGAL    O615471   6.773   6.525  15.738
   33AGAL   HO615472   6.765   6.443  15.689
   34ARHM    C115473   6.379   6.202  16.181
   34ARHM    H115474   6.437   6.278  16.238
   34ARHM    C515475   6.397   5.982  16.090
   34ARHM    H515476   6.366   6.016  15.989
   34ARHM    O515477   6.463   6.088  16.160
   34ARHM    C215478   6.257   6.162  16.262
   34ARHM    H215479   6.191   6.251  16.270
   34ARHM    O215480   6.291   6.117  16.394
   34ARHM    C315481   6.181   6.053  16.190
   34ARHM    H315482   6.149   6.092  16.090
   34ARHM    O315483   6.063   6.015  16.260
   34ARHM   HO315484   6.017   5.951  16.205
   34ARHM    C415485   6.274   5.935  16.167
   34ARHM    H415486   6.308   5.896  16.265
   34ARHM    O415487   6.208   5.830  16.096
   34ARHM   HO415488   6.165   5.773  16.160
   34ARHM    C615489   6.505   5.874  16.074
   34ARHM   H6115490   6.541   5.842  16.174
   34ARHM   H6215491   6.465   5.785  16.020
   34ARHM   H6315492   6.591   5.914  16.017
   35ARHM    C115493   6.346   6.213  16.481
   35ARHM    H115494   6.301   6.313  16.461
   35ARHM    C515495   6.554   6.096  16.490
   35ARHM    H515496   6.520   6.024  16.412
   35ARHM    O515497   6.489   6.222  16.471
   35ARHM    C215498   6.311   6.166  16.621
   35ARHM    H215499   6.201   6.151  16.625
   35ARHM    O215500   6.349   6.256  16.726
   35ARHM    C315501   6.374   6.031  16.645
   35ARHM    H315502   6.337   5.959  16.568
   35ARHM    O315503   6.336   5.980  16.772
   35ARHM   HO315504   6.347   6.051  16.835
   35ARHM    C415505   6.525   6.041  16.629
   35ARHM    H415506   6.565   6.112  16.704
   35ARHM    O415507   6.588   5.915  16.647
   35ARHM   HO415508   6.661   5.906  16.586
   35ARHM    C615509   6.704   6.125  16.467
   35ARHM   H6115510   6.718   6.168  16.365
   35ARHM   H6215511   6.740   6.199  16.541
   35ARHM   H6315512   6.765   6.033  16.475
   36BMANN   C115513   6.276   6.376  16.728
   36BMANN   H115514   6.170   6.356  16.704
   36BMANN   C515515   6.252   6.595  16.636
   36BMANN   H515516   6.148   6.567  16.608
   36BMANN   O515517   6.330   6.474  16.638
   36BMANN   C215518   6.285   6.434  16.868
   36BMANN   H215519   6.239   6.359  16.936
   36BMANN    N15520   6.423   6.458  16.912
   36BMANN   HN15521   6.486   6.491  16.842
   36BMANN    C15522   6.466   6.441  17.038
   36BMANN    O15523   6.397   6.387  17.124
   36BMANN   CT15524   6.605   6.488  17.069
   36BMANN  HT115525   6.613   6.598  17.051
   36BMANN  HT215526   6.679   6.435  17.005
   36BMANN  HT315527   6.628   6.468  17.175
   36BMANN   C315528   6.198   6.559  16.873
   36BMANN   H315529   6.094   6.531  16.845
   36BMANN   O315530   6.192   6.613  17.004
   36BMANN  HO315531   6.122   6.571  17.054
   36BMANN   C415532   6.250   6.660  16.773
   36BMANN   H415533   6.352   6.692  16.801
   36BMANN   O415534   6.165   6.775  16.767
   36BMANN  HO415535   6.161   6.813  16.855
   36BMANN   C615536   6.304   6.685  16.524
   36BMANN  H6115537   6.306   6.627  16.430
   36BMANN  H6215538   6.234   6.770  16.509
   36BMANN   O615539   6.435   6.738  16.548
   36BMANN  HO615540   6.435   6.795  16.625
    1ECLIP HB6S15541   7.046   4.934   6.682
    1ECLIP  OB615542   7.156   4.824   6.818
    1ECLIP  CB615543   7.152   4.923   6.714
    1ECLIP HB6R15544   7.186   5.022   6.752
    1ECLIP  CB515545   7.235   4.895   6.590
    1ECLIP  OB515546   7.199   4.764   6.547
    1ECLIP  HB515547   7.343   4.898   6.616
    1ECLIP  CB115548   7.275   4.719   6.436
    1ECLIP  HB115549   7.383   4.719   6.462
    1ECLIP  OA615550   7.237   4.588   6.399
    1ECLIP  CA615551   7.097   4.559   6.421
    1ECLIP HA6R15552   7.036   4.650   6.441
    1ECLIP HA6S15553   7.088   4.493   6.509
    1ECLIP  CB415554   7.205   4.991   6.476
    1ECLIP  HB415555   7.099   4.973   6.446
    1ECLIP  OB415556   7.229   5.125   6.521
    1ECLIP   PB15557   7.100   5.228   6.533
    1ECLIP OPB415558   7.118   5.340   6.634
    1ECLIP OPB315559   6.981   5.141   6.572
    1ECLIP OPB215560   7.065   5.273   6.393
    1ECLIP  CB315561   7.288   4.952   6.354
    1ECLIP  OB315562   7.254   5.040   6.247
    1ECLIP  HB315563   7.394   4.958   6.385
    1ECLIP  C7115564   7.354   5.064   6.160
    1ECLIP  O7115565   7.464   5.012   6.165
    1ECLIP  C7215566   7.304   5.126   6.031
    1ECLIP H72R15567   7.328   5.055   5.950
    1ECLIP H72S15568   7.365   5.218   6.018
    1ECLIP  CB215569   7.250   4.809   6.316
    1ECLIP  HB215570   7.141   4.808   6.299
    1ECLIP  NB215571   7.316   4.762   6.194
    1ECLIP HNB215572   7.413   4.739   6.201
    1ECLIP  CA415573   7.144   4.416   6.219
    1ECLIP  HA415574   7.221   4.489   6.188
    1ECLIP  OA415575   7.204   4.318   6.306
    1ECLIP HOA415576   7.232   4.363   6.385
    1ECLIP  CA515577   7.040   4.492   6.299
    1ECLIP  HA515578   6.957   4.425   6.329
    1ECLIP  OA515579   6.988   4.596   6.216
    1ECLIP  CA115580   6.922   4.546   6.099
    1ECLIP  HA115581   6.897   4.637   6.042
    1ECLIP  OA115582   6.804   4.476   6.134
    1ECLIP OPA215583   6.635   4.531   6.325
    1ECLIP OPA315584   6.699   4.710   6.155
    1ECLIP OPA415585   6.565   4.522   6.077
    1ECLIP   PA15586   6.670   4.562   6.181
    1ECLIP  CA315587   7.084   4.356   6.094
    1ECLIP  HA315588   7.001   4.289   6.124
    1ECLIP  OA315589   7.184   4.274   6.030
    1ECLIP  C3115590   7.300   4.329   5.981
    1ECLIP  O3115591   7.322   4.329   5.861
    1ECLIP  C3215592   7.418   4.281   6.066
    1ECLIP H32R15593   7.467   4.200   6.009
    1ECLIP H32S15594   7.381   4.236   6.161
    1ECLIP  CA215595   7.022   4.470   6.011
    1ECLIP  HA215596   7.105   4.540   5.988
    1ECLIP  NA215597   6.966   4.431   5.880
    1ECLIP HNA215598   6.967   4.334   5.860
    1ECLIP  C7315599   7.155   5.161   6.030
    1ECLIP H73R15600   7.132   5.217   6.123
    1ECLIP  O7315601   7.079   5.043   6.012
    1ECLIP  C8115602   6.975   5.024   6.091
    1ECLIP  O8115603   6.937   5.103   6.177
    1ECLIP  C8215604   6.871   4.943   6.016
    1ECLIP H82R15605   6.779   4.942   6.078
    1ECLIP H82S15606   6.908   4.839   6.006
    1ECLIP  C8315607   6.844   5.004   5.878
    1ECLIP H83R15608   6.929   4.973   5.814
    1ECLIP H83S15609   6.841   5.115   5.881
    1ECLIP  C8415610   6.716   4.952   5.814
    1ECLIP H84R15611   6.627   5.007   5.851
    1ECLIP H84S15612   6.707   4.844   5.841
    1ECLIP  C8515613   6.731   4.958   5.663
    1ECLIP H85R15614   6.820   4.895   5.641
    1ECLIP H85S15615   6.755   5.062   5.631
    1ECLIP  C8615616   6.611   4.905   5.585
    1ECLIP H86R15617   6.542   4.990   5.564
    1ECLIP H86S15618   6.556   4.830   5.645
    1ECLIP  C8715619   6.656   4.839   5.454
    1ECLIP H87R15620   6.568   4.826   5.388
    1ECLIP H87S15621   6.695   4.738   5.478
    1ECLIP  C8815622   6.767   4.917   5.382
    1ECLIP H88R15623   6.860   4.917   5.443
    1ECLIP H88S15624   6.736   5.023   5.370
    1ECLIP  C8915625   6.804   4.858   5.247
    1ECLIP H89R15626   6.830   4.751   5.259
    1ECLIP H89S15627   6.896   4.911   5.212
    1ECLIP C81015628   6.691   4.874   5.144
    1ECLIPH810R15629   6.641   4.972   5.160
    1ECLIPH810S15630   6.615   4.795   5.164
    1ECLIP C81115631   6.739   4.864   4.999
    1ECLIPH811R15632   6.648   4.860   4.936
    1ECLIPH811S15633   6.792   4.767   4.987
    1ECLIP C81215634   6.831   4.978   4.953
    1ECLIPH812R15635   6.863   4.957   4.848
    1ECLIPH812S15636   6.924   4.980   5.014
    1ECLIP C81315637   6.765   5.116   4.958
    1ECLIPH813R15638   6.670   5.113   4.901
    1ECLIPH813S15639   6.739   5.140   5.064
    1ECLIP C81415640   6.853   5.228   4.903
    1ECLIPH814R15641   6.883   5.206   4.799
    1ECLIPH814S15642   6.945   5.239   4.964
    1ECLIPH814T15643   6.799   5.325   4.905
    1ECLIP  C7415644   7.118   5.253   5.910
    1ECLIP H74R15645   7.189   5.339   5.915
    1ECLIP H74S15646   7.015   5.291   5.929
    1ECLIP  C7515647   7.123   5.199   5.766
    1ECLIP H75R15648   7.060   5.267   5.703
    1ECLIP H75S15649   7.079   5.098   5.759
    1ECLIP  C7615650   7.263   5.198   5.700
    1ECLIP H76R15651   7.326   5.120   5.748
    1ECLIP H76S15652   7.312   5.295   5.721
    1ECLIP  C7715653   7.263   5.178   5.549
    1ECLIP H77R15654   7.215   5.266   5.500
    1ECLIP H77S15655   7.202   5.088   5.523
    1ECLIP  C7815656   7.406   5.160   5.495
    1ECLIP H78R15657   7.461   5.255   5.512
    1ECLIP H78S15658   7.457   5.083   5.556
    1ECLIP  C7915659   7.420   5.124   5.345
    1ECLIP H79R15660   7.429   5.014   5.339
    1ECLIP H79S15661   7.516   5.166   5.308
    1ECLIP C71015662   7.306   5.172   5.254
    1ECLIPH710R15663   7.211   5.123   5.285
    1ECLIPH710S15664   7.292   5.281   5.267
    1ECLIP C71115665   7.331   5.142   5.105
    1ECLIPH711R15666   7.429   5.187   5.075
    1ECLIPH711S15667   7.341   5.032   5.090
    1ECLIP C71215668   7.218   5.198   5.018
    1ECLIPH712R15669   7.214   5.308   5.032
    1ECLIPH712S15670   7.122   5.157   5.057
    1ECLIP C71315671   7.228   5.167   4.868
    1ECLIPH713R15672   7.215   5.058   4.854
    1ECLIPH713S15673   7.143   5.217   4.816
    1ECLIP C71415674   7.360   5.212   4.804
    1ECLIPH714R15675   7.373   5.322   4.816
    1ECLIPH714S15676   7.446   5.160   4.849
    1ECLIPH714T15677   7.359   5.190   4.694
    1ECLIP  C5115678   7.260   4.763   6.073
    1ECLIP  O5115679   7.140   4.781   6.056
    1ECLIP  C5215680   7.351   4.739   5.955
    1ECLIP H52R15681   7.424   4.823   5.947
    1ECLIP H52S15682   7.407   4.646   5.978
    1ECLIP  C5315683   7.276   4.720   5.822
    1ECLIP H53R15684   7.187   4.655   5.839
    1ECLIP  O5315685   7.372   4.662   5.733
    1ECLIP  C6115686   7.337   4.548   5.679
    1ECLIP  O6115687   7.224   4.503   5.676
    1ECLIP  C6215688   7.444   4.510   5.575
    1ECLIP H62R15689   7.537   4.483   5.629
    1ECLIP H62S15690   7.464   4.600   5.513
    1ECLIP  C6315691   7.396   4.392   5.487
    1ECLIP H63R15692   7.291   4.409   5.454
    1ECLIP H63S15693   7.396   4.300   5.549
    1ECLIP  C6415694   7.480   4.370   5.360
    1ECLIP H64R15695   7.448   4.272   5.319
    1ECLIP H64S15696   7.588   4.363   5.387
    1ECLIP  C6515697   7.459   4.477   5.252
    1ECLIP H65R15698   7.493   4.575   5.292
    1ECLIP H65S15699   7.350   4.484   5.230
    1ECLIP  C6615700   7.534   4.449   5.122
    1ECLIP H66R15701   7.639   4.426   5.148
    1ECLIP H66S15702   7.534   4.540   5.057
    1ECLIP  C6715703   7.483   4.329   5.042
    1ECLIP H67R15704   7.463   4.242   5.108
    1ECLIP H67S15705   7.565   4.299   4.972
    1ECLIP  C6815706   7.359   4.360   4.957
    1ECLIP H68R15707   7.374   4.455   4.901
    1ECLIP H68S15708   7.271   4.372   5.023
    1ECLIP  C6915709   7.335   4.247   4.856
    1ECLIP H69R15710   7.330   4.150   4.911
    1ECLIP H69S15711   7.423   4.243   4.788
    1ECLIP C61015712   7.207   4.264   4.774
    1ECLIPH610R15713   7.214   4.358   4.714
    1ECLIPH610S15714   7.121   4.276   4.844
    1ECLIP C61115715   7.182   4.145   4.681
    1ECLIPH611R15716   7.151   4.059   4.745
    1ECLIPH611S15717   7.098   4.170   4.613
    1ECLIP C61215718   7.304   4.102   4.598
    1ECLIPH612R15719   7.354   4.190   4.552
    1ECLIPH612S15720   7.379   4.050   4.663
    1ECLIPH612T15721   7.274   4.031   4.517
    1ECLIP  C5415722   7.227   4.852   5.760
    1ECLIP H54R15723   7.316   4.915   5.741
    1ECLIP H54S15724   7.164   4.903   5.837
    1ECLIP  C5515725   7.143   4.840   5.631
    1ECLIP H55R15726   7.083   4.932   5.620
    1ECLIP H55S15727   7.071   4.755   5.642
    1ECLIP  C5615728   7.230   4.821   5.507
    1ECLIP H56R15729   7.275   4.719   5.509
    1ECLIP H56S15730   7.314   4.893   5.509
    1ECLIP  C5715731   7.156   4.834   5.373
    1ECLIP H57R15732   7.123   4.938   5.358
    1ECLIP H57S15733   7.065   4.769   5.375
    1ECLIP  C5815734   7.251   4.787   5.263
    1ECLIP H58R15735   7.345   4.847   5.268
    1ECLIP H58S15736   7.281   4.683   5.286
    1ECLIP  C5915737   7.198   4.795   5.120
    1ECLIP H59R15738   7.180   4.901   5.094
    1ECLIP H59S15739   7.101   4.742   5.110
    1ECLIP C51015740   7.302   4.733   5.026
    1ECLIPH510R15741   7.300   4.623   5.036
    1ECLIPH510S15742   7.403   4.766   5.059
    1ECLIP C51115743   7.283   4.773   4.880
    1ECLIPH511R15744   7.261   4.684   4.818
    1ECLIPH511S15745   7.192   4.838   4.875
    1ECLIP C51215746   7.402   4.852   4.822
    1ECLIPH512R15747   7.360   4.933   4.759
    1ECLIPH512S15748   7.459   4.903   4.903
    1ECLIP C51315749   7.494   4.770   4.733
    1ECLIPH513R15750   7.433   4.693   4.681
    1ECLIPH513S15751   7.569   4.716   4.793
    1ECLIP C51415752   7.563   4.856   4.625
    1ECLIPH514R15753   7.654   4.905   4.667
    1ECLIPH514S15754   7.590   4.794   4.537
    1ECLIPH514T15755   7.494   4.935   4.589
    1ECLIP  C3315756   7.525   4.390   6.095
    1ECLIP H33R15757   7.607   4.347   6.155
    1ECLIP  O3315758   7.462   4.491   6.170
    1ECLIP HO3315759   7.439   4.466   6.260
    1ECLIP  C3415760   7.586   4.453   5.966
    1ECLIP H34R15761   7.503   4.481   5.898
    1ECLIP H34S15762   7.646   4.376   5.914
    1ECLIP  C3515763   7.671   4.581   5.985
    1ECLIP H35R15764   7.772   4.555   6.024
    1ECLIP H35S15765   7.624   4.646   6.062
    1ECLIP  C3615766   7.681   4.664   5.856
    1ECLIP H36R15767   7.577   4.680   5.819
    1ECLIP H36S15768   7.734   4.607   5.776
    1ECLIP  C3715769   7.742   4.805   5.867
    1ECLIP H37R15770   7.852   4.798   5.882
    1ECLIP H37S15771   7.700   4.855   5.957
    1ECLIP  C3815772   7.712   4.893   5.743
    1ECLIP H38R15773   7.603   4.910   5.740
    1ECLIP H38S15774   7.762   4.991   5.757
    1ECLIP  C3915775   7.758   4.831   5.610
    1ECLIP H39R15776   7.708   4.732   5.597
    1ECLIP H39S15777   7.868   4.815   5.615
    1ECLIP C31015778   7.726   4.916   5.486
    1ECLIPH310R15779   7.793   5.005   5.487
    1ECLIPH310S15780   7.621   4.952   5.492
    1ECLIP C31115781   7.744   4.838   5.355
    1ECLIPH311R15782   7.842   4.785   5.356
    1ECLIPH311S15783   7.664   4.760   5.349
    1ECLIP C31215784   7.737   4.928   5.231
    1ECLIPH312R15785   7.646   4.992   5.237
    1ECLIPH312S15786   7.825   4.996   5.233
    1ECLIP C31315787   7.733   4.850   5.099
    1ECLIPH313R15788   7.820   4.781   5.095
    1ECLIPH313S15789   7.641   4.788   5.097
    1ECLIP C31415790   7.736   4.942   4.976
    1ECLIPH314R15791   7.830   5.002   4.976
    1ECLIPH314S15792   7.730   4.883   4.884
    1ECLIPH314T15793   7.650   5.013   4.980
    1ECLIP  C1115794   6.910   4.518   5.792
    1ECLIP  O1115795   6.909   4.640   5.806
    1ECLIP  C1215796   6.835   4.463   5.670
    1ECLIP H12R15797   6.727   4.488   5.686
    1ECLIP H12S15798   6.844   4.353   5.663
    1ECLIP  C1315799   6.880   4.526   5.536
    1ECLIP H13R15800   6.889   4.636   5.546
    1ECLIP  O1315801   6.779   4.498   5.441
    1ECLIP HO1315802   6.807   4.517   5.351
    1ECLIP  C1415803   7.014   4.469   5.483
    1ECLIP H14R15804   7.046   4.391   5.556
    1ECLIP H14S15805   7.090   4.550   5.488
    1ECLIP  C1515806   7.019   4.408   5.342
    1ECLIP H15R15807   6.925   4.351   5.323
    1ECLIP H15S15808   7.102   4.335   5.339
    1ECLIP  C1615809   7.041   4.510   5.233
    1ECLIP H16R15810   7.150   4.533   5.231
    1ECLIP H16S15811   6.988   4.605   5.256
    1ECLIP  C1715812   7.002   4.465   5.091
    1ECLIP H17R15813   7.027   4.358   5.075
    1ECLIP H17S15814   7.065   4.525   5.023
    1ECLIP  C1815815   6.853   4.493   5.061
    1ECLIP H18R15816   6.791   4.422   5.120
    1ECLIP H18S15817   6.830   4.594   5.099
    1ECLIP  C1915818   6.813   4.487   4.913
    1ECLIP H19R15819   6.711   4.529   4.903
    1ECLIP H19S15820   6.808   4.381   4.880
    1ECLIP C11015821   6.907   4.563   4.818
    1ECLIPH110R15822   6.912   4.670   4.844
    1ECLIPH110S15823   7.010   4.522   4.825
    1ECLIP C11115824   6.863   4.547   4.672
    1ECLIPH111R15825   6.869   4.439   4.649
    1ECLIPH111S15826   6.757   4.580   4.661
    1ECLIP C11215827   6.949   4.628   4.575
    1ECLIPH112R15828   6.920   4.735   4.585
    1ECLIPH112S15829   7.056   4.617   4.602
    1ECLIP C11315830   6.933   4.587   4.427
    1ECLIPH113R15831   6.978   4.485   4.417
    1ECLIPH113S15832   6.825   4.579   4.403
    1ECLIP C11415833   7.001   4.676   4.323
    1ECLIPH114R15834   6.986   4.635   4.221
    1ECLIPH114S15835   6.957   4.778   4.328
    1ECLIPH114T15836   7.110   4.684   4.342
    2AKDO    C115837   7.389   4.845   6.872
    2AKDO   O1115838   7.465   4.944   6.891
    2AKDO   O1215839   7.424   4.730   6.832
    2AKDO    C215840   7.243   4.857   6.924
    2AKDO    C615841   7.076   5.003   7.018
    2AKDO    H615842   7.012   4.974   6.932
    2AKDO    O615843   7.214   4.988   6.978
    2AKDO    C315844   7.210   4.758   7.035
    2AKDO   H3115845   7.279   4.778   7.120
    2AKDO   H3215846   7.228   4.656   6.995
    2AKDO    C415847   7.068   4.767   7.083
    2AKDO    H415848   6.999   4.742   6.999
    2AKDO    O415849   7.048   4.676   7.193
    2AKDO    C515850   7.038   4.908   7.132
    2AKDO    H515851   6.927   4.914   7.141
    2AKDO    O515852   7.093   4.938   7.263
    2AKDO    C715853   7.055   5.152   7.036
    2AKDO    H715854   7.116   5.191   7.120
    2AKDO    O715855   6.916   5.183   7.056
    2AKDO   HO715856   6.913   5.268   7.012
    2AKDO    C815857   7.098   5.221   6.908
    2AKDO   H8115858   7.206   5.205   6.891
    2AKDO   H8215859   7.043   5.175   6.823
    2AKDO    O815860   7.074   5.362   6.903
    2AKDO   HO815861   7.107   5.380   6.815
    3AKDO    C115862   6.892   4.511   7.087
    3AKDO   O1115863   6.901   4.415   7.006
    3AKDO   O1215864   6.785   4.552   7.141
    3AKDO    C215865   7.022   4.538   7.171
    3AKDO    C615866   7.255   4.482   7.208
    3AKDO    H615867   7.280   4.590   7.219
    3AKDO    O615868   7.138   4.465   7.124
    3AKDO    C315869   6.993   4.491   7.314
    3AKDO   H3115870   6.958   4.386   7.311
    3AKDO   H3215871   6.908   4.550   7.354
    3AKDO    C415872   7.109   4.507   7.406
    3AKDO    H415873   7.138   4.614   7.414
    3AKDO    O415874   7.072   4.459   7.535
    3AKDO   HO415875   6.988   4.500   7.554
    3AKDO    C515876   7.223   4.429   7.346
    3AKDO    H515877   7.314   4.437   7.410
    3AKDO    O515878   7.190   4.292   7.333
    3AKDO   HO515879   7.135   4.295   7.255
    3AKDO    C715880   7.376   4.412   7.150
    3AKDO    H715881   7.355   4.303   7.138
    3AKDO    O715882   7.489   4.429   7.237
    3AKDO   HO715883   7.557   4.422   7.170
    3AKDO    C815884   7.417   4.466   7.016
    3AKDO   H8115885   7.333   4.459   6.943
    3AKDO   H8215886   7.448   4.573   7.021
    3AKDO    O815887   7.528   4.388   6.967
    3AKDO   HO815888   7.513   4.376   6.873
    4AHEP    C115889   7.010   5.020   7.345
    4AHEP    H115890   7.002   5.120   7.299
    4AHEP    C515891   6.875   4.841   7.429
    4AHEP    H515892   6.945   4.776   7.372
    4AHEP    O515893   6.877   4.969   7.362
    4AHEP    C215894   7.071   5.040   7.483
    4AHEP    H215895   7.177   5.070   7.467
    4AHEP    O215896   7.008   5.145   7.556
    4AHEP   HO215897   7.075   5.192   7.608
    4AHEP    C315898   7.072   4.909   7.561
    4AHEP    H315899   7.136   4.839   7.503
    4AHEP    O315900   7.131   4.937   7.689
    4AHEP    C415901   6.930   4.851   7.571
    4AHEP    H415902   6.866   4.917   7.634
    4AHEP    O415903   6.941   4.719   7.623
    4AHEP    P415904   6.848   4.633   7.727
    4AHEP  OP4215905   6.935   4.511   7.752
    4AHEP  OP4315906   6.718   4.601   7.656
    4AHEP  OP4415907   6.829   4.711   7.854
    4AHEP    C615908   6.737   4.777   7.407
    4AHEP    H615909   6.749   4.667   7.411
    4AHEP    O615910   6.646   4.813   7.512
    4AHEP   HO615911   6.671   4.750   7.580
    4AHEP    C715912   6.676   4.811   7.270
    4AHEP   H7115913   6.588   4.746   7.252
    4AHEP   H7215914   6.751   4.786   7.193
    4AHEP    O715915   6.638   4.948   7.255
    4AHEP   HO715916   6.717   4.994   7.286
    5AHEP    C115917   7.195   4.829   7.750
    5AHEP    H115918   7.174   4.738   7.690
    5AHEP    C515919   7.388   4.939   7.839
    5AHEP    H515920   7.332   5.033   7.816
    5AHEP    O515921   7.338   4.837   7.750
    5AHEP    C215922   7.144   4.803   7.891
    5AHEP    H215923   7.037   4.831   7.885
    5AHEP    O215924   7.138   4.665   7.927
    5AHEP   HO215925   7.045   4.653   7.944
    5AHEP    C315926   7.199   4.903   7.992
    5AHEP    H315927   7.162   5.005   7.969
    5AHEP    O315928   7.168   4.871   8.128
    5AHEP    C415929   7.350   4.903   7.983
    5AHEP    H415930   7.390   4.802   8.006
    5AHEP    O415931   7.410   5.003   8.066
    5AHEP    P415932   7.455   4.975   8.221
    5AHEP  OP4215933   7.374   5.071   8.306
    5AHEP  OP4315934   7.604   5.003   8.231
    5AHEP  OP4415935   7.433   4.828   8.254
    5AHEP    C615936   7.535   4.974   7.814
    5AHEP    H615937   7.571   5.046   7.891
    5AHEP    O615938   7.619   4.858   7.816
    5AHEP   HO615939   7.656   4.863   7.728
    5AHEP    C715940   7.550   5.043   7.679
    5AHEP   H7115941   7.623   5.126   7.690
    5AHEP   H7215942   7.456   5.092   7.645
    5AHEP    O715943   7.604   4.956   7.577
    6AHEP    C115944   7.503   4.893   7.502
    6AHEP    H115945   7.402   4.927   7.531
    6AHEP    C515946   7.643   4.881   7.307
    6AHEP    H515947   7.722   4.931   7.366
    6AHEP    O515948   7.516   4.920   7.361
    6AHEP    C215949   7.512   4.743   7.523
    6AHEP    H215950   7.510   4.722   7.631
    6AHEP    O215951   7.399   4.676   7.465
    6AHEP   HO215952   7.387   4.713   7.377
    6AHEP    C315953   7.645   4.692   7.470
    6AHEP    H315954   7.727   4.743   7.525
    6AHEP    O315955   7.658   4.552   7.495
    6AHEP   HO315956   7.619   4.507   7.418
    6AHEP    C415957   7.656   4.729   7.323
    6AHEP    H415958   7.573   4.680   7.269
    6AHEP    O415959   7.777   4.685   7.263
    6AHEP   HO415960   7.764   4.703   7.170
    6AHEP    C615961   7.665   4.927   7.162
    6AHEP    H615962   7.775   4.936   7.145
    6AHEP    O615963   7.620   4.824   7.073
    6AHEP   HO615964   7.560   4.864   7.009
    6AHEP    C715965   7.603   5.062   7.128
    6AHEP   H7115966   7.634   5.093   7.026
    6AHEP   H7215967   7.643   5.137   7.200
    6AHEP    O715968   7.460   5.066   7.135
    6AHEP   HO715969   7.428   5.030   7.052
    7AGLC    C115970   7.045   4.911   8.181
    7AGLC    H115971   7.006   5.001   8.128
    7AGLC    C515972   7.001   4.682   8.233
    7AGLC    H515973   7.098   4.654   8.188
    7AGLC    O515974   6.951   4.802   8.170
    7AGLC    C215975   7.060   4.940   8.332
    7AGLC    H215976   6.956   4.955   8.370
    7AGLC    O215977   7.124   5.064   8.359
    7AGLC   HO215978   7.217   5.059   8.335
    7AGLC    C315979   7.119   4.822   8.406
    7AGLC    H315980   7.217   4.797   8.360
    7AGLC    O315981   7.136   4.847   8.549
    7AGLC    C415982   7.021   4.708   8.381
    7AGLC    H415983   6.923   4.742   8.420
    7AGLC    O415984   7.058   4.588   8.447
    7AGLC   HO415985   6.980   4.534   8.462
    7AGLC    C615986   6.901   4.571   8.203
    7AGLC   H6115987   6.876   4.574   8.095
    7AGLC   H6215988   6.949   4.473   8.223
    7AGLC    O615989   6.780   4.579   8.280
    7AGLC   HO615990   6.709   4.571   8.217
    8AGLC    C115991   7.269   4.833   8.597
    8AGLC    H115992   7.321   4.751   8.544
    8AGLC    C515993   7.289   5.069   8.648
    8AGLC    H515994   7.186   5.082   8.608
    8AGLC    O515995   7.347   4.954   8.583
    8AGLC    C215996   7.268   4.807   8.747
    8AGLC    H215997   7.373   4.795   8.780
    8AGLC    O215998   7.195   4.690   8.788
    8AGLC    C315999   7.203   4.920   8.825
    8AGLC    H316000   7.101   4.934   8.783
    8AGLC    O316001   7.189   4.885   8.964
    8AGLC    C416002   7.281   5.046   8.799
    8AGLC    H416003   7.385   5.035   8.835
    8AGLC    O416004   7.221   5.158   8.863
    8AGLC   HO416005   7.165   5.202   8.799
    8AGLC    C616006   7.367   5.194   8.609
    8AGLC   H6116007   7.387   5.194   8.499
    8AGLC   H6216008   7.305   5.284   8.628
    8AGLC    O616009   7.492   5.209   8.679
    8AGLC   HO616010   7.559   5.204   8.609
    9AGAL    C116011   7.226   4.564   8.734
    9AGAL    H116012   7.221   4.565   8.623
    9AGAL    C516013   7.372   4.521   8.917
    9AGAL    H516014   7.358   4.626   8.952
    9AGAL    O516015   7.355   4.516   8.775
    9AGAL    C216016   7.117   4.477   8.793
    9AGAL    H216017   7.131   4.373   8.757
    9AGAL    O216018   6.995   4.528   8.736
    9AGAL    C316019   7.130   4.479   8.945
    9AGAL    H316020   7.112   4.582   8.983
    9AGAL    O316021   7.034   4.395   9.009
    9AGAL   HO316022   7.064   4.307   8.986
    9AGAL    C416023   7.269   4.433   8.987
    9AGAL    H416024   7.279   4.450   9.096
    9AGAL    O416025   7.290   4.294   8.965
    9AGAL   HO416026   7.371   4.286   8.913
    9AGAL    C616027   7.518   4.486   8.943
    9AGAL   H6116028   7.582   4.560   8.891
    9AGAL   H6216029   7.538   4.493   9.052
    9AGAL    O616030   7.554   4.354   8.899
    9AGAL   HO616031   7.550   4.349   8.804
   10AGAL    C116032   6.867   4.502   8.788
   10AGAL    H116033   6.858   4.394   8.812
   10AGAL    C516034   6.850   4.723   8.877
   10AGAL    H516035   6.949   4.739   8.829
   10AGAL    O516036   6.839   4.582   8.905
   10AGAL    C216037   6.767   4.537   8.679
   10AGAL    H216038   6.665   4.513   8.716
   10AGAL    O216039   6.790   4.457   8.562
   10AGAL   HO216040   6.745   4.493   8.485
   10AGAL    C316041   6.773   4.686   8.648
   10AGAL    H316042   6.877   4.711   8.615
   10AGAL    O316043   6.682   4.723   8.542
   10AGAL   HO316044   6.725   4.712   8.457
   10AGAL    C416045   6.747   4.767   8.773
   10AGAL    H416046   6.764   4.875   8.749
   10AGAL    O416047   6.611   4.752   8.815
   10AGAL   HO416048   6.559   4.764   8.735
   10AGAL    C616049   6.860   4.802   9.006
   10AGAL   H6116050   6.936   4.752   9.070
   10AGAL   H6216051   6.897   4.904   8.983
   10AGAL    O616052   6.739   4.814   9.080
   10AGAL   HO616053   6.691   4.731   9.076
   11BGLC    C116054   7.292   4.918   9.056
   11BGLC    H116055   7.295   5.028   9.071
   11BGLC    C516056   7.525   4.901   9.108
   11BGLC    H516057   7.528   5.011   9.124
   11BGLC    O516058   7.420   4.870   9.014
   11BGLC    C216059   7.255   4.848   9.186
   11BGLC    H216060   7.252   4.739   9.167
   11BGLC    O216061   7.125   4.888   9.233
   11BGLC   HO216062   7.065   4.873   9.160
   11BGLC    C316063   7.360   4.875   9.292
   11BGLC    H316064   7.363   4.984   9.315
   11BGLC    O316065   7.339   4.797   9.410
   11BGLC    C416066   7.494   4.831   9.240
   11BGLC    H416067   7.491   4.721   9.220
   11BGLC    O416068   7.595   4.856   9.337
   11BGLC   HO416069   7.551   4.862   9.421
   11BGLC    C616070   7.658   4.859   9.049
   11BGLC   H6116071   7.739   4.874   9.122
   11BGLC   H6216072   7.656   4.751   9.023
   11BGLC    O616073   7.693   4.935   8.932
   11BGLC   HO616074   7.615   4.973   8.891
   12BGLCN   C116075   7.298   4.863   9.528
   12BGLCN   H116076   7.195   4.903   9.514
   12BGLCN   C516077   7.350   5.034   9.683
   12BGLCN   H516078   7.246   5.071   9.674
   12BGLCN   O516079   7.389   4.968   9.561
   12BGLCN   C216080   7.301   4.757   9.636
   12BGLCN   H216081   7.407   4.724   9.645
   12BGLCN    N16082   7.223   4.641   9.592
   12BGLCN   HN16083   7.151   4.658   9.525
   12BGLCN    C16084   7.255   4.513   9.617
   12BGLCN    O16085   7.343   4.480   9.696
   12BGLCN   CT16086   7.175   4.410   9.544
   12BGLCN  HT116087   7.184   4.312   9.595
   12BGLCN  HT216088   7.214   4.398   9.440
   12BGLCN  HT316089   7.068   4.439   9.539
   12BGLCN   C316090   7.261   4.818   9.771
   12BGLCN   H316091   7.156   4.855   9.763
   12BGLCN   O316092   7.268   4.720   9.877
   12BGLCN   C416093   7.356   4.934   9.799
   12BGLCN   H416094   7.459   4.893   9.804
   12BGLCN   O416095   7.330   5.000   9.921
   12BGLCN  HO416096   7.242   5.038   9.920
   12BGLCN   C616097   7.440   5.156   9.700
   12BGLCN  H6116098   7.425   5.201   9.800
   12BGLCN  H6216099   7.547   5.126   9.693
   12BGLCN   O616100   7.409   5.256   9.602
   12BGLCN  HO616101   7.448   5.230   9.518
   13AGAL    C116102   7.181   4.736   9.987
   13AGAL    H116103   7.169   4.843  10.016
   13AGAL    C516104   7.058   4.539   9.925
   13AGAL    H516105   7.129   4.529   9.839
   13AGAL    O516106   7.051   4.679   9.960
   13AGAL    C216107   7.234   4.660  10.108
   13AGAL    H216108   7.153   4.662  10.184
   13AGAL    O216109   7.349   4.724  10.167
   13AGAL    C316110   7.253   4.513  10.073
   13AGAL    H316111   7.318   4.508   9.983
   13AGAL    O316112   7.321   4.440  10.175
   13AGAL   HO316113   7.390   4.388  10.135
   13AGAL    C416114   7.117   4.455  10.039
   13AGAL    H416115   7.131   4.351  10.004
   13AGAL    O416116   7.029   4.453  10.151
   13AGAL   HO416117   6.961   4.519  10.135
   13AGAL    C616118   6.923   4.493   9.872
   13AGAL   H6116119   6.891   4.563   9.792
   13AGAL   H6216120   6.933   4.392   9.826
   13AGAL    O616121   6.819   4.488   9.972
   13AGAL   HO616122   6.821   4.402  10.013
   14ARHM    C116123   7.326   4.785  10.293
   14ARHM    H116124   7.221   4.821  10.299
   14ARHM    C516125   7.545   4.875  10.307
   14ARHM    H516126   7.572   4.830  10.209
   14ARHM    O516127   7.405   4.903  10.311
   14ARHM    C216128   7.352   4.684  10.403
   14ARHM    H216129   7.295   4.592  10.379
   14ARHM    O216130   7.317   4.723  10.537
   14ARHM    C316131   7.500   4.650  10.403
   14ARHM    H316132   7.526   4.604  10.304
   14ARHM    O316133   7.529   4.555  10.504
   14ARHM   HO316134   7.483   4.583  10.584
   14ARHM    C416135   7.581   4.777  10.419
   14ARHM    H416136   7.553   4.825  10.516
   14ARHM    O416137   7.722   4.753  10.424
   14ARHM   HO416138   7.738   4.659  10.410
   14ARHM    C616139   7.615   5.012  10.319
   14ARHM   H6116140   7.584   5.077  10.235
   14ARHM   H6216141   7.587   5.062  10.414
   14ARHM   H6316142   7.725   5.000  10.315
   15ARHM    C116143   7.186   4.767  10.559
   15ARHM    H116144   7.115   4.721  10.487
   15ARHM    C516145   7.265   4.978  10.643
   15ARHM    H516146   7.370   4.950  10.620
   15ARHM    O516147   7.177   4.911  10.551
   15ARHM    C216148   7.147   4.726  10.700
   15ARHM    H216149   7.153   4.615  10.708
   15ARHM    O216150   7.010   4.766  10.721
   15ARHM    C316151   7.244   4.788  10.799
   15ARHM    H316152   7.347   4.758  10.767
   15ARHM    O316153   7.223   4.737  10.930
   15ARHM    C416154   7.233   4.938  10.787
   15ARHM    H416155   7.128   4.968  10.808
   15ARHM    O416156   7.315   5.004  10.884
   15ARHM   HO416157   7.384   5.055  10.841
   15ARHM    C616158   7.251   5.129  10.616
   15ARHM   H6116159   7.321   5.187  10.679
   15ARHM   H6216160   7.275   5.151  10.510
   15ARHM   H6316161   7.147   5.163  10.636
   16BMANN   C116162   6.952   4.740  10.846
   16BMANN   H116163   6.999   4.804  10.925
   16BMANN   C516164   6.906   4.577  11.015
   16BMANN   H516165   6.957   4.643  11.089
   16BMANN   O516166   6.962   4.601  10.884
   16BMANN   C216167   6.806   4.778  10.835
   16BMANN   H216168   6.805   4.888  10.818
   16BMANN    N16169   6.741   4.711  10.723
   16BMANN   HN16170   6.749   4.611  10.720
   16BMANN    C16171   6.678   4.773  10.623
   16BMANN    O16172   6.660   4.894  10.622
   16BMANN   CT16173   6.631   4.688  10.509
   16BMANN  HT116174   6.528   4.719  10.479
   16BMANN  HT216175   6.631   4.580  10.536
   16BMANN  HT316176   6.698   4.702  10.421
   16BMANN   C316177   6.740   4.755  10.970
   16BMANN   H316178   6.793   4.817  11.047
   16BMANN   O316179   6.604   4.798  10.968
   16BMANN  HO316180   6.599   4.889  11.000
   16BMANN   C416181   6.757   4.609  11.013
   16BMANN   H416182   6.705   4.544  10.940
   16BMANN   O416183   6.701   4.585  11.144
   16BMANN  HO416184   6.709   4.493  11.168
   16BMANN   C616185   6.937   4.433  11.054
   16BMANN  H6116186   6.897   4.412  11.155
   16BMANN  H6216187   6.889   4.363  10.981
   16BMANN   O616188   7.078   4.406  11.058
   16BMANN  HO616189   7.109   4.396  10.967
   17BGLCN   C116190   7.342   4.715  11.002
   17BGLCN   H116191   7.417   4.793  10.978
   17BGLCN   C516192   7.517   4.558  11.047
   17BGLCN   H516193   7.593   4.633  11.016
   17BGLCN   O516194   7.395   4.584  10.974
   17BGLCN   C216195   7.307   4.721  11.148
   17BGLCN   H216196   7.242   4.633  11.169
   17BGLCN    N16197   7.228   4.840  11.179
   17BGLCN   HN16198   7.239   4.917  11.117
   17BGLCN    C16199   7.136   4.845  11.276
   17BGLCN    O16200   7.109   4.750  11.349
   17BGLCN   CT16201   7.066   4.977  11.295
   17BGLCN  HT116202   6.957   4.964  11.280
   17BGLCN  HT216203   7.103   5.052  11.222
   17BGLCN  HT316204   7.083   5.014  11.398
   17BGLCN   C316205   7.436   4.706  11.228
   17BGLCN   H316206   7.508   4.782  11.189
   17BGLCN   O316207   7.412   4.732  11.367
   17BGLCN   C416208   7.493   4.568  11.196
   17BGLCN   H416209   7.417   4.492  11.227
   17BGLCN   O416210   7.613   4.541  11.266
   17BGLCN  HO416211   7.613   4.448  11.293
   17BGLCN   C616212   7.565   4.421  11.002
   17BGLCN  H6116213   7.667   4.403  11.043
   17BGLCN  H6216214   7.497   4.343  11.041
   17BGLCN   O616215   7.571   4.410  10.860
   17BGLCN  HO616216   7.483   4.426  10.825
   18AGAL    C116217   7.521   4.783  11.443
   18AGAL    H116218   7.598   4.704  11.456
   18AGAL    C516219   7.491   5.009  11.366
   18AGAL    H516220   7.406   4.974  11.304
   18AGAL    O516221   7.583   4.899  11.384
   18AGAL    C216222   7.472   4.825  11.581
   18AGAL    H216223   7.562   4.867  11.631
   18AGAL    O216224   7.425   4.714  11.659
   18AGAL    C316225   7.368   4.935  11.568
   18AGAL    H316226   7.285   4.897  11.505
   18AGAL    O316227   7.312   4.972  11.693
   18AGAL   HO316228   7.220   4.997  11.683
   18AGAL    C416229   7.433   5.054  11.500
   18AGAL    H416230   7.355   5.130  11.479
   18AGAL    O416231   7.530   5.115  11.586
   18AGAL   HO416232   7.492   5.112  11.675
   18AGAL    C616233   7.558   5.119  11.286
   18AGAL   H6116234   7.594   5.080  11.189
   18AGAL   H6216235   7.484   5.200  11.266
   18AGAL    O616236   7.668   5.177  11.356
   18AGAL   HO616237   7.640   5.185  11.449
   19ARHM    C116238   7.460   4.726  11.794
   19ARHM    H116239   7.465   4.833  11.825
   19ARHM    C516240   7.593   4.528  11.793
   19ARHM    H516241   7.566   4.512  11.686
   19ARHM    O516242   7.589   4.668  11.824
   19ARHM    C216243   7.354   4.657  11.878
   19ARHM    H216244   7.256   4.692  11.840
   19ARHM    O216245   7.363   4.688  12.019
   19ARHM    C316246   7.355   4.508  11.853
   19ARHM    H316247   7.329   4.490  11.748
   19ARHM    O316248   7.256   4.445  11.934
   19ARHM   HO316249   7.283   4.457  12.026
   19ARHM    C416250   7.493   4.454  11.880
   19ARHM    H416251   7.520   4.474  11.986
   19ARHM    O416252   7.502   4.313  11.860
   19ARHM   HO416253   7.452   4.292  11.780
   19ARHM    C616254   7.739   4.486  11.811
   19ARHM   H6116255   7.803   4.538  11.738
   19ARHM   H6216256   7.775   4.511  11.913
   19ARHM   H6316257   7.749   4.376  11.797
   20ARHM    C116258   7.312   4.816  12.048
   20ARHM    H116259   7.239   4.848  11.971
   20ARHM    C516260   7.511   4.894  12.155
   20ARHM    H516261   7.557   4.794  12.140
   20ARHM    O516262   7.414   4.918  12.054
   20ARHM    C216263   7.242   4.810  12.182
   20ARHM    H216264   7.173   4.722  12.182
   20ARHM    O216265   7.163   4.927  12.210
   20ARHM    C316266   7.340   4.787  12.294
   20ARHM    H316267   7.389   4.688  12.280
   20ARHM    O316268   7.268   4.788  12.418
   20ARHM    C416269   7.443   4.897  12.290
   20ARHM    H416270   7.389   4.994  12.300
   20ARHM    O416271   7.537   4.890  12.398
   20ARHM   HO416272   7.578   4.976  12.404
   20ARHM    C616273   7.623   4.999  12.137
   20ARHM   H6116274   7.582   5.101  12.155
   20ARHM   H6216275   7.706   4.981  12.210
   20ARHM   H6316276   7.664   4.994  12.034
   21BMANN   C116277   7.048   4.936  12.130
   21BMANN   H116278   7.029   4.842  12.075
   21BMANN   C516279   6.945   5.056  11.951
   21BMANN   H516280   6.929   4.959  11.901
   21BMANN   O516281   7.061   5.045  12.036
   21BMANN   C216282   6.932   4.965  12.222
   21BMANN   H216283   6.921   4.876  12.288
   21BMANN    N16284   6.963   5.078  12.311
   21BMANN   HN16285   7.049   5.123  12.288
   21BMANN    C16286   6.896   5.114  12.420
   21BMANN    O16287   6.785   5.070  12.450
   21BMANN   CT16288   6.961   5.216  12.509
   21BMANN  HT116289   6.919   5.317  12.489
   21BMANN  HT216290   7.071   5.218  12.492
   21BMANN  HT316291   6.942   5.189  12.616
   21BMANN   C316292   6.807   4.976  12.137
   21BMANN   H316293   6.796   4.881  12.081
   21BMANN   O316294   6.689   4.985  12.217
   21BMANN  HO316295   6.714   5.023  12.301
   21BMANN   C416296   6.822   5.087  12.036
   21BMANN   H416297   6.836   5.184  12.089
   21BMANN   O416298   6.708   5.098  11.950
   21BMANN  HO416299   6.704   5.184  11.908
   21BMANN   C616300   6.971   5.158  11.843
   21BMANN  H6116301   6.891   5.156  11.767
   21BMANN  H6216302   6.972   5.260  11.890
   21BMANN   O616303   7.096   5.134  11.777
   21BMANN  HO616304   7.166   5.139  11.843
   22BGLCN   C116305   7.309   4.693  12.512
   22BGLCN   H116306   7.418   4.675  12.506
   22BGLCN   C516307   7.271   4.474  12.595
   22BGLCN   H516308   7.381   4.458  12.592
   22BGLCN   O516309   7.236   4.571  12.495
   22BGLCN   C216310   7.273   4.755  12.644
   22BGLCN   H216311   7.163   4.773  12.645
   22BGLCN    N16312   7.340   4.884  12.658
   22BGLCN   HN16313   7.422   4.896  12.600
   22BGLCN    C16314   7.293   4.990  12.724
   22BGLCN    O16315   7.186   4.990  12.783
   22BGLCN   CT16316   7.381   5.112  12.727
   22BGLCN  HT116317   7.329   5.195  12.675
   22BGLCN  HT216318   7.478   5.092  12.675
   22BGLCN  HT316319   7.401   5.141  12.832
   22BGLCN   C316320   7.307   4.658  12.756
   22BGLCN   H316321   7.416   4.638  12.753
   22BGLCN   O316322   7.274   4.724  12.880
   22BGLCN   C416323   7.233   4.527  12.732
   22BGLCN   H416324   7.123   4.547  12.734
   22BGLCN   O416325   7.263   4.429  12.831
   22BGLCN  HO416326   7.183   4.392  12.867
   22BGLCN   C616327   7.205   4.344  12.555
   22BGLCN  H6116328   7.225   4.265  12.631
   22BGLCN  H6216329   7.094   4.357  12.548
   22BGLCN   O616330   7.254   4.297  12.429
   22BGLCN  HO616331   7.216   4.353  12.360
   23AGAL    C116332   7.324   4.673  13.002
   23AGAL    H116333   7.273   4.577  13.026
   23AGAL    C516334   7.538   4.775  12.974
   23AGAL    H516335   7.499   4.820  12.880
   23AGAL    O516336   7.467   4.652  12.998
   23AGAL    C216337   7.289   4.771  13.111
   23AGAL    H216338   7.322   4.727  13.208
   23AGAL    O216339   7.148   4.795  13.113
   23AGAL    C316340   7.362   4.902  13.092
   23AGAL    H316341   7.328   4.947  12.996
   23AGAL    O316342   7.333   4.996  13.194
   23AGAL   HO316343   7.396   4.981  13.266
   23AGAL    C416344   7.511   4.876  13.086
   23AGAL    H416345   7.563   4.972  13.061
   23AGAL    O416346   7.561   4.831  13.213
   23AGAL   HO416347   7.641   4.782  13.191
   23AGAL    C616348   7.685   4.745  12.946
   23AGAL   H6116349   7.691   4.653  12.884
   23AGAL   H6216350   7.729   4.828  12.885
   23AGAL    O616351   7.766   4.729  13.062
   23AGAL   HO616352   7.830   4.659  13.048
   24ARHM    C116353   7.073   4.726  13.210
   24ARHM    H116354   7.114   4.623  13.221
   24ARHM    C516355   6.873   4.838  13.152
   24ARHM    H516356   6.926   4.896  13.074
   24ARHM    O516357   6.937   4.711  13.169
   24ARHM    C216358   7.083   4.800  13.342
   24ARHM    H216359   7.189   4.819  13.366
   24ARHM    O216360   7.023   4.722  13.446
   24ARHM    C316361   7.017   4.935  13.328
   24ARHM    H316362   7.071   4.994  13.250
   24ARHM    O316363   7.025   5.006  13.450
   24ARHM   HO316364   6.966   5.081  13.443
   24ARHM    C416365   6.874   4.917  13.283
   24ARHM    H416366   6.818   4.859  13.359
   24ARHM    O416367   6.810   5.044  13.266
   24ARHM   HO416368   6.715   5.033  13.266
   24ARHM    C616369   6.732   4.806  13.100
   24ARHM   H6116370   6.676   4.900  13.078
   24ARHM   H6216371   6.739   4.747  13.006
   24ARHM   H6316372   6.674   4.749  13.176
   25ARHM    C116373   7.111   4.630  13.505
   25ARHM    H116374   7.196   4.611  13.436
   25ARHM    C516375   6.941   4.509  13.616
   25ARHM    H516376   6.865   4.580  13.575
   25ARHM    O516377   7.050   4.502  13.523
   25ARHM    C216378   7.164   4.687  13.634
   25ARHM    H216379   7.197   4.791  13.616
   25ARHM    O216380   7.274   4.611  13.686
   25ARHM    C316381   7.052   4.696  13.734
   25ARHM    H316382   6.976   4.768  13.696
   25ARHM    O316383   7.109   4.747  13.854
   25ARHM    C416384   6.989   4.559  13.752
   25ARHM    H416385   7.067   4.489  13.790
   25ARHM    O416386   6.882   4.562  13.845
   25ARHM   HO416387   6.844   4.474  13.852
   25ARHM    C616388   6.878   4.369  13.617
   25ARHM   H6116389   6.852   4.338  13.513
   25ARHM   H6216390   6.950   4.295  13.658
   25ARHM   H6316391   6.785   4.367  13.679
   26BMANN   C116392   7.395   4.633  13.618
   26BMANN   H116393   7.397   4.735  13.575
   26BMANN   C516394   7.534   4.558  13.440
   26BMANN   H516395   7.525   4.660  13.398
   26BMANN   O516396   7.415   4.534  13.516
   26BMANN   C216397   7.510   4.619  13.717
   26BMANN   H216398   7.495   4.697  13.795
   26BMANN    N16399   7.506   4.489  13.781
   26BMANN   HN16400   7.460   4.418  13.728
   26BMANN    C16401   7.546   4.463  13.905
   26BMANN    O16402   7.599   4.546  13.978
   26BMANN   CT16403   7.519   4.323  13.956
   26BMANN  HT116404   7.440   4.275  13.894
   26BMANN  HT216405   7.486   4.327  14.061
   26BMANN  HT316406   7.612   4.263  13.949
   26BMANN   C316407   7.639   4.652  13.641
   26BMANN   H316408   7.628   4.753  13.597
   26BMANN   O316409   7.754   4.657  13.727
   26BMANN  HO316410   7.768   4.749  13.750
   26BMANN   C416411   7.657   4.553  13.529
   26BMANN   H416412   7.672   4.451  13.571
   26BMANN   O416413   7.769   4.587  13.446
   26BMANN  HO416414   7.849   4.592  13.498
   26BMANN   C616415   7.540   4.462  13.322
   26BMANN  H6116416   7.437   4.439  13.287
   26BMANN  H6216417   7.593   4.511  13.238
   26BMANN   O616418   7.608   4.339  13.352
   26BMANN  HO616419   7.689   4.337  13.300
   27BGLCN   C116420   7.029   4.831  13.932
   27BGLCN   H116421   6.922   4.802  13.925
   27BGLCN   C516422   6.970   5.058  13.979
   27BGLCN   H516423   6.863   5.030  13.974
   27BGLCN   O516424   7.047   4.969  13.897
   27BGLCN   C216425   7.081   4.810  14.072
   27BGLCN   H216426   7.187   4.844  14.075
   27BGLCN    N16427   7.080   4.668  14.104
   27BGLCN   HN16428   7.023   4.612  14.045
   27BGLCN    C16429   7.165   4.607  14.189
   27BGLCN    O16430   7.244   4.667  14.262
   27BGLCN   CT16431   7.162   4.457  14.189
   27BGLCN  HT116432   7.057   4.420  14.175
   27BGLCN  HT216433   7.202   4.420  14.286
   27BGLCN  HT316434   7.226   4.418  14.107
   27BGLCN   C316435   7.003   4.898  14.168
   27BGLCN   H316436   6.896   4.870  14.156
   27BGLCN   O316437   7.047   4.869  14.302
   27BGLCN   C416438   7.017   5.043  14.124
   27BGLCN   H416439   7.124   5.072  14.130
   27BGLCN   O416440   6.944   5.133  14.208
   27BGLCN  HO416441   6.861   5.092  14.234
   27BGLCN   C616442   6.986   5.199  13.925
   27BGLCN  H6116443   6.945   5.272  13.998
   27BGLCN  H6216444   7.094   5.221  13.912
   27BGLCN   O616445   6.918   5.217  13.800
   27BGLCN  HO616446   6.947   5.300  13.762
   28AGAL    C116447   6.970   4.915  14.410
   28AGAL    H116448   6.989   5.024  14.425
   28AGAL    C516449   6.793   4.757  14.375
   28AGAL    H516450   6.850   4.709  14.293
   28AGAL    O516451   6.829   4.897  14.385
   28AGAL    C216452   7.005   4.845  14.540
   28AGAL    H216453   6.934   4.889  14.613
   28AGAL    O216454   7.139   4.870  14.588
   28AGAL    C316455   6.976   4.697  14.528
   28AGAL    H316456   7.033   4.657  14.441
   28AGAL    O316457   7.018   4.624  14.643
   28AGAL   HO316458   7.110   4.599  14.632
   28AGAL    C416459   6.828   4.679  14.502
   28AGAL    H416460   6.809   4.571  14.483
   28AGAL    O416461   6.748   4.716  14.614
   28AGAL   HO416462   6.790   4.678  14.692
   28AGAL    C616463   6.646   4.748  14.337
   28AGAL   H6116464   6.632   4.785  14.234
   28AGAL   H6216465   6.612   4.642  14.339
   28AGAL    O616466   6.562   4.826  14.423
   28AGAL   HO616467   6.590   4.809  14.513
   29ARHM    C116468   7.142   4.903  14.725
   29ARHM    H116469   7.056   4.854  14.776
   29ARHM    C516470   7.246   5.116  14.689
   29ARHM    H516471   7.248   5.100  14.579
   29ARHM    O516472   7.134   5.045  14.745
   29ARHM    C216473   7.269   4.852  14.791
   29ARHM    H216474   7.275   4.743  14.774
   29ARHM    O216475   7.268   4.881  14.933
   29ARHM    C316476   7.388   4.918  14.725
   29ARHM    H316477   7.382   4.899  14.616
   29ARHM    O316478   7.511   4.862  14.770
   29ARHM   HO316479   7.580   4.900  14.714
   29ARHM    C416480   7.377   5.067  14.749
   29ARHM    H416481   7.374   5.086  14.858
   29ARHM    O416482   7.490   5.139  14.697
   29ARHM   HO416483   7.524   5.093  14.621
   29ARHM    C616484   7.216   5.265  14.715
   29ARHM   H6116485   7.122   5.294  14.663
   29ARHM   H6216486   7.200   5.282  14.824
   29ARHM   H6316487   7.299   5.329  14.679
   30ARHM    C116488   7.227   4.775  15.015
   30ARHM    H116489   7.289   4.686  14.991
   30ARHM    C516490   6.999   4.846  15.030
   30ARHM    H516491   7.022   4.938  14.971
   30ARHM    O516492   7.089   4.740  14.995
   30ARHM    C216493   7.247   4.810  15.161
   30ARHM    H216494   7.352   4.845  15.175
   30ARHM    O216495   7.222   4.697  15.245
   30ARHM    C316496   7.154   4.922  15.204
   30ARHM    H316497   7.177   5.010  15.139
   30ARHM    O316498   7.180   4.964  15.340
   30ARHM    C416499   7.011   4.881  15.177
   30ARHM    H416500   6.983   4.791  15.236
   30ARHM    O416501   6.920   4.986  15.210
   30ARHM   HO416502   6.885   4.969  15.297
   30ARHM    C616503   6.858   4.799  14.989
   30ARHM   H6116504   6.784   4.879  15.006
   30ARHM   H6216505   6.856   4.771  14.881
   30ARHM   H6316506   6.829   4.710  15.049
   31BMANN   C116507   7.328   4.610  15.274
   31BMANN   H116508   7.422   4.665  15.296
   31BMANN   C516509   7.442   4.412  15.202
   31BMANN   H516510   7.538   4.460  15.229
   31BMANN   O516511   7.345   4.514  15.170
   31BMANN   C216512   7.274   4.538  15.395
   31BMANN   H216513   7.267   4.612  15.477
   31BMANN    N16514   7.140   4.488  15.369
   31BMANN   HN16515   7.112   4.489  15.274
   31BMANN    C16516   7.050   4.456  15.463
   31BMANN    O16517   7.079   4.452  15.582
   31BMANN   CT16518   6.911   4.425  15.415
   31BMANN  HT116519   6.909   4.325  15.367
   31BMANN  HT216520   6.879   4.502  15.341
   31BMANN  HT316521   6.841   4.427  15.501
   31BMANN   C316522   7.376   4.434  15.437
   31BMANN   H316523   7.474   4.484  15.452
   31BMANN   O316524   7.344   4.377  15.564
   31BMANN  HO316525   7.249   4.381  15.578
   31BMANN   C416526   7.395   4.333  15.325
   31BMANN   H416527   7.298   4.284  15.301
   31BMANN   O416528   7.487   4.231  15.360
   31BMANN  HO416529   7.444   4.176  15.426
   31BMANN   C616530   7.467   4.327  15.078
   31BMANN  H6116531   7.531   4.240  15.104
   31BMANN  H6216532   7.370   4.288  15.040
   31BMANN   O616533   7.531   4.403  14.975
   31BMANN  HO616534   7.612   4.440  15.010
   32BGLCN   C116535   7.115   4.894  15.445
   32BGLCN   H116536   7.113   4.785  15.424
   32BGLCN   C516537   6.913   4.863  15.570
   32BGLCN   H516538   6.913   4.756  15.541
   32BGLCN   O516539   6.981   4.939  15.468
   32BGLCN   C216540   7.193   4.919  15.573
   32BGLCN   H216541   7.175   5.025  15.600
   32BGLCN    N16542   7.336   4.901  15.551
   32BGLCN   HN16543   7.362   4.829  15.489
   32BGLCN    C16544   7.430   4.985  15.597
   32BGLCN    O16545   7.406   5.077  15.674
   32BGLCN   CT16546   7.570   4.961  15.547
   32BGLCN  HT116547   7.570   4.900  15.455
   32BGLCN  HT216548   7.630   4.910  15.626
   32BGLCN  HT316549   7.617   5.059  15.525
   32BGLCN   C316550   7.131   4.833  15.682
   32BGLCN   H316551   7.130   4.728  15.644
   32BGLCN   O316552   7.205   4.835  15.806
   32BGLCN   C416553   6.987   4.878  15.702
   32BGLCN   H416554   6.987   4.985  15.732
   32BGLCN   O416555   6.922   4.803  15.804
   32BGLCN  HO416556   6.865   4.859  15.856
   32BGLCN   C616557   6.769   4.910  15.574
   32BGLCN  H6116558   6.714   4.856  15.654
   32BGLCN  H6216559   6.765   5.018  15.597
   32BGLCN   O616560   6.703   4.886  15.449
   32BGLCN  HO616561   6.622   4.837  15.462
   33AGAL    C116562   7.219   4.706  15.861
   33AGAL    H116563   7.125   4.648  15.849
   33AGAL    C516564   7.453   4.696  15.815
   33AGAL    H516565   7.442   4.804  15.789
   33AGAL    O516566   7.325   4.634  15.794
   33AGAL    C216567   7.252   4.711  16.009
   33AGAL    H216568   7.258   4.605  16.042
   33AGAL    O216569   7.145   4.775  16.083
   33AGAL    C316570   7.387   4.776  16.034
   33AGAL    H316571   7.383   4.878  15.990
   33AGAL    O316572   7.416   4.795  16.173
   33AGAL   HO316573   7.429   4.709  16.214
   33AGAL    C416574   7.495   4.698  15.962
   33AGAL    H416575   7.592   4.752  15.972
   33AGAL    O416576   7.513   4.566  16.015
   33AGAL   HO416577   7.469   4.556  16.100
   33AGAL    C616578   7.555   4.645  15.715
   33AGAL   H6116579   7.516   4.662  15.612
   33AGAL   H6216580   7.648   4.706  15.726
   33AGAL    O616581   7.590   4.508  15.727
   33AGAL   HO616582   7.510   4.455  15.725
   34ARHM    C116583   7.116   4.709  16.204
   34ARHM    H116584   7.210   4.694  16.260
   34ARHM    C516585   6.930   4.587  16.116
   34ARHM    H516586   6.944   4.632  16.016
   34ARHM    O516587   7.057   4.580  16.183
   34ARHM    C216588   7.024   4.796  16.287
   34ARHM    H216589   7.069   4.897  16.296
   34ARHM    O216590   7.004   4.745  16.421
   34ARHM    C316591   6.890   4.810  16.218
   34ARHM    H316592   6.906   4.856  16.118
   34ARHM    O316593   6.803   4.896  16.292
   34ARHM   HO316594   6.805   4.985  16.256
   34ARHM    C416595   6.832   4.671  16.196
   34ARHM    H416596   6.816   4.623  16.295
   34ARHM    O416597   6.706   4.678  16.130
   34ARHM   HO416598   6.649   4.736  16.181
   34ARHM    C616599   6.887   4.440  16.098
   34ARHM   H6116600   6.875   4.391  16.196
   34ARHM   H6216601   6.791   4.435  16.042
   34ARHM   H6316602   6.965   4.385  16.040
   35ARHM    C116603   7.120   4.728  16.499
   35ARHM    H116604   7.193   4.808  16.478
   35ARHM    C516605   7.089   4.491  16.500
   35ARHM    H516606   7.000   4.501  16.435
   35ARHM    O516607   7.180   4.599  16.477
   35ARHM    C216608   7.075   4.736  16.643
   35ARHM    H216609   7.021   4.832  16.656
   35ARHM    O216610   7.184   4.730  16.737
   35ARHM    C316611   6.978   4.625  16.676
   35ARHM    H316612   6.889   4.635  16.610
   35ARHM    O316613   6.932   4.633  16.811
   35ARHM   HO316614   7.003   4.603  16.869
   35ARHM    C416615   7.045   4.492  16.646
   35ARHM    H416616   7.136   4.484  16.709
   35ARHM    O416617   6.961   4.382  16.677
   35ARHM   HO416618   6.882   4.413  16.722
   35ARHM    C616619   7.163   4.363  16.458
   35ARHM   H6116620   7.190   4.368  16.350
   35ARHM   H6216621   7.256   4.349  16.518
   35ARHM   H6316622   7.098   4.274  16.472
   36BMANN   C116623   7.261   4.847  16.743
   36BMANN   H116624   7.204   4.934  16.704
   36BMANN   C516625   7.463   4.955  16.675
   36BMANN   H516626   7.406   5.037  16.629
   36BMANN   O516627   7.384   4.834  16.670
   36BMANN   C216628   7.296   4.869  16.889
   36BMANN   H216629   7.200   4.879  16.945
   36BMANN    N16630   7.374   4.758  16.942
   36BMANN   HN16631   7.456   4.738  16.890
   36BMANN    C16632   7.350   4.690  17.055
   36BMANN    O16633   7.247   4.700  17.120
   36BMANN   CT16634   7.458   4.594  17.097
   36BMANN  HT116635   7.553   4.617  17.044
   36BMANN  HT216636   7.427   4.490  17.073
   36BMANN  HT316637   7.474   4.602  17.206
   36BMANN   C316638   7.370   5.002  16.900
   36BMANN   H316639   7.307   5.083  16.857
   36BMANN   O316640   7.396   5.034  17.036
   36BMANN  HO316641   7.322   5.084  17.072
   36BMANN   C416642   7.498   4.992  16.819
   36BMANN   H416643   7.564   4.914  16.863
   36BMANN   O416644   7.569   5.115  16.819
   36BMANN  HO416645   7.611   5.124  16.905
   36BMANN   C616646   7.588   4.929  16.591
   36BMANN  H6116647   7.556   4.893  16.491
   36BMANN  H6216648   7.643   5.024  16.577
   36BMANN   O616649   7.676   4.832  16.650
   36BMANN  HO616650   7.737   4.799  16.583
    1ECLIP HB6S16651   1.749   5.524   6.665
    1ECLIP  OB616652   1.707   5.373   6.800
    1ECLIP  CB616653   1.792   5.427   6.698
    1ECLIP HB6R16654   1.893   5.449   6.738
    1ECLIP  CB516655   1.810   5.341   6.573
    1ECLIP  OB516656   1.683   5.295   6.530
    1ECLIP  HB516657   1.874   5.254   6.599
    1ECLIP  CB116658   1.689   5.208   6.417
    1ECLIP  HB116659   1.750   5.118   6.443
    1ECLIP  OA616660   1.558   5.165   6.391
    1ECLIP  CA616661   1.458   5.269   6.405
    1ECLIP HA6R16662   1.498   5.367   6.438
    1ECLIP HA6S16663   1.384   5.237   6.481
    1ECLIP  CB416664   1.867   5.417   6.453
    1ECLIP  HB416665   1.792   5.494   6.424
    1ECLIP  OB416666   1.986   5.473   6.505
    1ECLIP   PB16667   2.024   5.630   6.483
    1ECLIP OPB416668   2.053   5.703   6.611
    1ECLIP OPB316669   1.914   5.706   6.410
    1ECLIP OPB216670   2.142   5.636   6.389
    1ECLIP  CB316671   1.887   5.325   6.332
    1ECLIP  OB316672   1.946   5.400   6.223
    1ECLIP  HB316673   1.951   5.241   6.366
    1ECLIP  C7116674   2.018   5.327   6.136
    1ECLIP  O7116675   2.039   5.208   6.148
    1ECLIP  C7216676   2.034   5.395   6.000
    1ECLIP H72R16677   1.958   5.351   5.932
    1ECLIP H72S16678   2.135   5.367   5.964
    1ECLIP  CB216679   1.748   5.274   6.292
    1ECLIP  HB216680   1.687   5.364   6.270
    1ECLIP  NB216681   1.746   5.187   6.172
    1ECLIP HNB216682   1.766   5.090   6.188
    1ECLIP  CA416683   1.384   5.160   6.194
    1ECLIP  HA416684   1.488   5.131   6.168
    1ECLIP  OA416685   1.331   5.057   6.278
    1ECLIP HOA416686   1.398   5.045   6.346
    1ECLIP  CA516687   1.388   5.288   6.273
    1ECLIP  HA516688   1.285   5.325   6.290
    1ECLIP  OA516689   1.460   5.388   6.200
    1ECLIP  CA116690   1.394   5.420   6.075
    1ECLIP  HA116691   1.473   5.477   6.021
    1ECLIP  OA116692   1.288   5.512   6.089
    1ECLIP OPA216693   1.275   5.586   6.332
    1ECLIP OPA316694   1.437   5.696   6.195
    1ECLIP OPA416695   1.194   5.743   6.153
    1ECLIP   PA16696   1.296   5.639   6.190
    1ECLIP  CA316697   1.309   5.180   6.066
    1ECLIP  HA316698   1.202   5.198   6.089
    1ECLIP  OA316699   1.334   5.051   6.010
    1ECLIP  C3116700   1.259   4.991   5.921
    1ECLIP  O3116701   1.173   5.044   5.852
    1ECLIP  C3216702   1.250   4.843   5.964
    1ECLIP H32R16703   1.207   4.787   5.878
    1ECLIP H32S16704   1.177   4.838   6.049
    1ECLIP  CA216705   1.378   5.292   5.990
    1ECLIP  HA216706   1.481   5.255   5.970
    1ECLIP  NA216707   1.314   5.316   5.862
    1ECLIP HNA216708   1.229   5.266   5.846
    1ECLIP  C7316709   2.019   5.548   6.003
    1ECLIP H73R16710   2.084   5.585   6.085
    1ECLIP  O7316711   1.883   5.579   6.028
    1ECLIP  C8116712   1.858   5.690   6.094
    1ECLIP  O8116713   1.944   5.768   6.139
    1ECLIP  C8216714   1.720   5.736   6.046
    1ECLIP H82R16715   1.697   5.835   6.092
    1ECLIP H82S16716   1.646   5.661   6.080
    1ECLIP  C8316717   1.714   5.744   5.892
    1ECLIP H83R16718   1.719   5.640   5.852
    1ECLIP H83S16719   1.801   5.800   5.852
    1ECLIP  C8416720   1.586   5.807   5.839
    1ECLIP H84R16721   1.584   5.916   5.860
    1ECLIP H84S16722   1.498   5.761   5.888
    1ECLIP  C8516723   1.577   5.781   5.688
    1ECLIP H85R16724   1.561   5.672   5.672
    1ECLIP H85S16725   1.675   5.808   5.641
    1ECLIP  C8616726   1.465   5.858   5.615
    1ECLIP H86R16727   1.493   5.966   5.611
    1ECLIP H86S16728   1.371   5.849   5.674
    1ECLIP  C8716729   1.442   5.806   5.472
    1ECLIP H87R16730   1.382   5.881   5.417
    1ECLIP H87S16731   1.381   5.713   5.479
    1ECLIP  C8816732   1.571   5.772   5.398
    1ECLIP H88R16733   1.618   5.684   5.446
    1ECLIP H88S16734   1.643   5.857   5.405
    1ECLIP  C8916735   1.550   5.737   5.249
    1ECLIP H89R16736   1.465   5.666   5.242
    1ECLIP H89S16737   1.641   5.685   5.214
    1ECLIP C81016738   1.524   5.861   5.162
    1ECLIPH810R16739   1.602   5.937   5.183
    1ECLIPH810S16740   1.427   5.905   5.193
    1ECLIP C81116741   1.520   5.831   5.011
    1ECLIPH811R16742   1.492   5.924   4.958
    1ECLIPH811S16743   1.439   5.757   4.995
    1ECLIP C81216744   1.652   5.777   4.951
    1ECLIPH812R16745   1.635   5.754   4.844
    1ECLIPH812S16746   1.679   5.682   5.002
    1ECLIP C81316747   1.769   5.876   4.962
    1ECLIPH813R16748   1.740   5.971   4.914
    1ECLIPH813S16749   1.788   5.898   5.070
    1ECLIP C81416750   1.899   5.823   4.900
    1ECLIPH814R16751   1.884   5.797   4.793
    1ECLIPH814S16752   1.933   5.733   4.954
    1ECLIPH814T16753   1.979   5.900   4.907
    1ECLIP  C7416754   2.058   5.617   5.870
    1ECLIP H74R16755   2.168   5.620   5.859
    1ECLIP H74S16756   2.025   5.723   5.877
    1ECLIP  C7516757   2.002   5.565   5.734
    1ECLIP H75R16758   2.009   5.649   5.661
    1ECLIP H75S16759   1.895   5.539   5.745
    1ECLIP  C7616760   2.083   5.448   5.674
    1ECLIP H76R16761   2.062   5.355   5.730
    1ECLIP H76S16762   2.191   5.471   5.684
    1ECLIP  C7716763   2.060   5.425   5.523
    1ECLIP H77R16764   2.116   5.502   5.467
    1ECLIP H77S16765   1.952   5.437   5.499
    1ECLIP  C7816766   2.104   5.284   5.479
    1ECLIP H78R16767   2.212   5.272   5.499
    1ECLIP H78S16768   2.051   5.208   5.540
    1ECLIP  C7916769   2.082   5.251   5.330
    1ECLIP H79R16770   1.983   5.201   5.320
    1ECLIP H79S16771   2.159   5.178   5.299
    1ECLIP C71016772   2.086   5.372   5.236
    1ECLIPH710R16773   2.003   5.442   5.262
    1ECLIPH710S16774   2.181   5.427   5.254
    1ECLIP C71116775   2.073   5.336   5.089
    1ECLIPH711R16776   2.162   5.276   5.057
    1ECLIPH711S16777   1.983   5.272   5.075
    1ECLIP C71216778   2.059   5.462   5.002
    1ECLIPH712R16779   2.151   5.523   5.014
    1ECLIPH712S16780   1.973   5.521   5.038
    1ECLIP C71316781   2.042   5.434   4.851
    1ECLIPH713R16782   1.951   5.373   4.837
    1ECLIPH713S16783   2.027   5.532   4.801
    1ECLIP C71416784   2.163   5.364   4.788
    1ECLIPH714R16785   2.257   5.414   4.819
    1ECLIPH714S16786   2.167   5.258   4.820
    1ECLIPH714T16787   2.156   5.369   4.677
    1ECLIP  C5116788   1.729   5.230   6.045
    1ECLIP  O5116789   1.710   5.348   6.021
    1ECLIP  C5216790   1.733   5.128   5.929
    1ECLIP H52R16791   1.838   5.094   5.917
    1ECLIP H52S16792   1.671   5.041   5.960
    1ECLIP  C5316793   1.679   5.180   5.792
    1ECLIP H53R16794   1.582   5.232   5.806
    1ECLIP  O5316795   1.670   5.069   5.700
    1ECLIP  C6116796   1.548   5.037   5.660
    1ECLIP  O6116797   1.444   5.081   5.704
    1ECLIP  C6216798   1.556   4.933   5.549
    1ECLIP H62R16799   1.568   4.833   5.594
    1ECLIP H62S16800   1.646   4.956   5.487
    1ECLIP  C6316801   1.429   4.933   5.459
    1ECLIP H63R16802   1.416   5.033   5.412
    1ECLIP H63S16803   1.340   4.913   5.523
    1ECLIP  C6416804   1.433   4.828   5.347
    1ECLIP H64R16805   1.332   4.821   5.300
    1ECLIP H64S16806   1.456   4.729   5.391
    1ECLIP  C6516807   1.536   4.862   5.238
    1ECLIP H65R16808   1.634   4.880   5.287
    1ECLIP H65S16809   1.507   4.956   5.188
    1ECLIP  C6616810   1.556   4.750   5.135
    1ECLIP H66R16811   1.581   4.656   5.189
    1ECLIP H66S16812   1.644   4.776   5.072
    1ECLIP  C6716813   1.437   4.725   5.042
    1ECLIP H67R16814   1.349   4.691   5.101
    1ECLIP H67S16815   1.465   4.642   4.974
    1ECLIP  C6816816   1.399   4.847   4.958
    1ECLIP H68R16817   1.491   4.906   4.936
    1ECLIP H68S16818   1.331   4.913   5.016
    1ECLIP  C6916819   1.335   4.806   4.825
    1ECLIP H69R16820   1.249   4.739   4.844
    1ECLIP H69S16821   1.411   4.748   4.768
    1ECLIP C61016822   1.288   4.925   4.741
    1ECLIPH610R16823   1.372   4.997   4.730
    1ECLIPH610S16824   1.208   4.978   4.799
    1ECLIP C61116825   1.237   4.886   4.602
    1ECLIPH611R16826   1.140   4.833   4.615
    1ECLIPH611S16827   1.215   4.980   4.545
    1ECLIP C61216828   1.333   4.799   4.521
    1ECLIPH612R16829   1.437   4.838   4.530
    1ECLIPH612S16830   1.332   4.695   4.559
    1ECLIPH612T16831   1.305   4.798   4.413
    1ECLIP  C5416832   1.771   5.284   5.723
    1ECLIP H54R16833   1.870   5.238   5.703
    1ECLIP H54S16834   1.784   5.367   5.795
    1ECLIP  C5516835   1.714   5.346   5.594
    1ECLIP H55R16836   1.765   5.444   5.576
    1ECLIP H55S16837   1.606   5.371   5.608
    1ECLIP  C5616838   1.728   5.260   5.467
    1ECLIP H56R16839   1.647   5.184   5.466
    1ECLIP H56S16840   1.825   5.205   5.471
    1ECLIP  C5716841   1.719   5.338   5.335
    1ECLIP H57R16842   1.805   5.409   5.328
    1ECLIP H57S16843   1.627   5.400   5.337
    1ECLIP  C5816844   1.719   5.244   5.214
    1ECLIP H58R16845   1.815   5.189   5.210
    1ECLIP H58S16846   1.640   5.167   5.230
    1ECLIP  C5916847   1.695   5.312   5.079
    1ECLIP H59R16848   1.771   5.391   5.063
    1ECLIP H59S16849   1.595   5.361   5.082
    1ECLIP C51016850   1.700   5.210   4.965
    1ECLIPH510R16851   1.637   5.122   4.991
    1ECLIPH510S16852   1.806   5.175   4.957
    1ECLIP C51116853   1.656   5.264   4.829
    1ECLIPH511R16854   1.545   5.263   4.822
    1ECLIPH511S16855   1.689   5.370   4.821
    1ECLIP C51216856   1.718   5.186   4.712
    1ECLIPH512R16857   1.687   5.232   4.616
    1ECLIPH512S16858   1.829   5.195   4.720
    1ECLIP C51316859   1.684   5.036   4.709
    1ECLIPH513R16860   1.575   5.026   4.688
    1ECLIPH513S16861   1.703   4.991   4.809
    1ECLIP C51416862   1.764   4.959   4.604
    1ECLIPH514R16863   1.872   4.961   4.629
    1ECLIPH514S16864   1.731   4.853   4.601
    1ECLIPH514T16865   1.750   5.004   4.504
    1ECLIP  C3316866   1.383   4.777   6.009
    1ECLIP H33R16867   1.367   4.668   6.024
    1ECLIP  O3316868   1.424   4.832   6.131
    1ECLIP HO3316869   1.398   4.923   6.143
    1ECLIP  C3416870   1.494   4.795   5.903
    1ECLIP H34R16871   1.507   4.903   5.885
    1ECLIP H34S16872   1.459   4.747   5.808
    1ECLIP  C3516873   1.634   4.738   5.938
    1ECLIP H35R16874   1.628   4.632   5.969
    1ECLIP H35S16875   1.676   4.797   6.023
    1ECLIP  C3616876   1.725   4.752   5.814
    1ECLIP H36R16877   1.695   4.848   5.766
    1ECLIP H36S16878   1.705   4.670   5.741
    1ECLIP  C3716879   1.876   4.768   5.837
    1ECLIP H37R16880   1.923   4.667   5.847
    1ECLIP H37S16881   1.894   4.823   5.931
    1ECLIP  C3816882   1.943   4.846   5.721
    1ECLIP H38R16883   1.908   4.952   5.726
    1ECLIP H38S16884   2.053   4.847   5.737
    1ECLIP  C3916885   1.910   4.792   5.580
    1ECLIP H39R16886   1.801   4.805   5.563
    1ECLIP H39S16887   1.932   4.683   5.577
    1ECLIP C31016888   1.986   4.863   5.467
    1ECLIPH310R16889   2.081   4.808   5.450
    1ECLIPH310S16890   2.011   4.967   5.497
    1ECLIP C31116891   1.907   4.867   5.335
    1ECLIPH311R16892   1.860   4.768   5.318
    1ECLIPH311S16893   1.826   4.943   5.346
    1ECLIP C31216894   1.993   4.904   5.214
    1ECLIPH312R16895   2.043   5.001   5.231
    1ECLIPH312S16896   2.072   4.827   5.200
    1ECLIP C31316897   1.912   4.913   5.082
    1ECLIPH313R16898   1.867   4.814   5.061
    1ECLIPH313S16899   1.829   4.985   5.097
    1ECLIP C31416900   1.997   4.957   4.962
    1ECLIPH314R16901   2.079   4.884   4.945
    1ECLIPH314S16902   1.935   4.963   4.872
    1ECLIPH314T16903   2.042   5.056   4.981
    1ECLIP  C1116904   1.355   5.406   5.773
    1ECLIP  O1116905   1.467   5.456   5.774
    1ECLIP  C1216906   1.255   5.451   5.667
    1ECLIP H12R16907   1.243   5.561   5.682
    1ECLIP H12S16908   1.157   5.403   5.686
    1ECLIP  C1316909   1.305   5.424   5.524
    1ECLIP H13R16910   1.410   5.457   5.512
    1ECLIP  O1316911   1.226   5.504   5.438
    1ECLIP HO1316912   1.132   5.486   5.446
    1ECLIP  C1416913   1.293   5.275   5.483
    1ECLIP H14R16914   1.213   5.229   5.544
    1ECLIP H14S16915   1.388   5.225   5.511
    1ECLIP  C1516916   1.260   5.242   5.334
    1ECLIP H15R16917   1.168   5.298   5.304
    1ECLIP H15S16918   1.234   5.135   5.325
    1ECLIP  C1616919   1.372   5.274   5.234
    1ECLIP H16R16920   1.433   5.181   5.220
    1ECLIP H16S16921   1.438   5.352   5.278
    1ECLIP  C1716922   1.324   5.325   5.096
    1ECLIP H17R16923   1.218   5.295   5.083
    1ECLIP H17S16924   1.384   5.276   5.016
    1ECLIP  C1816925   1.339   5.477   5.084
    1ECLIP H18R16926   1.291   5.520   5.174
    1ECLIP H18S16927   1.446   5.508   5.089
    1ECLIP  C1916928   1.273   5.540   4.962
    1ECLIP H19R16929   1.245   5.645   4.987
    1ECLIP H19S16930   1.178   5.486   4.939
    1ECLIP C11016931   1.351   5.543   4.830
    1ECLIPH110R16932   1.443   5.605   4.844
    1ECLIPH110S16933   1.383   5.441   4.800
    1ECLIP C11116934   1.262   5.604   4.721
    1ECLIPH111R16935   1.200   5.524   4.676
    1ECLIPH111S16936   1.191   5.676   4.769
    1ECLIP C11216937   1.337   5.682   4.613
    1ECLIPH112R16938   1.391   5.766   4.663
    1ECLIPH112S16939   1.414   5.616   4.568
    1ECLIP C11316940   1.243   5.737   4.506
    1ECLIPH113R16941   1.180   5.653   4.470
    1ECLIPH113S16942   1.172   5.809   4.554
    1ECLIP C11416943   1.312   5.803   4.386
    1ECLIPH114R16944   1.354   5.902   4.415
    1ECLIPH114S16945   1.396   5.741   4.349
    1ECLIPH114T16946   1.239   5.817   4.304
    2AKDO    C116947   1.871   5.220   6.893
    2AKDO   O1116948   1.994   5.243   6.913
    2AKDO   O1216949   1.815   5.107   6.895
    2AKDO    C216950   1.775   5.341   6.921
    2AKDO    C616951   1.765   5.564   7.009
    2AKDO    H616952   1.700   5.584   6.922
    2AKDO    O616953   1.849   5.453   6.976
    2AKDO    C316954   1.671   5.305   7.028
    2AKDO   H3116955   1.724   5.266   7.116
    2AKDO   H3216956   1.608   5.224   6.984
    2AKDO    C416957   1.582   5.418   7.068
    2AKDO    H416958   1.527   5.455   6.977
    2AKDO    O416959   1.491   5.373   7.167
    2AKDO    C516960   1.666   5.532   7.123
    2AKDO    H516961   1.598   5.619   7.135
    2AKDO    O516962   1.720   5.498   7.253
    2AKDO    C716963   1.857   5.684   7.016
    2AKDO    H716964   1.938   5.669   7.089
    2AKDO    O716965   1.786   5.805   7.044
    2AKDO   HO716966   1.827   5.863   6.980
    2AKDO    C816967   1.918   5.698   6.877
    2AKDO   H8116968   1.988   5.613   6.860
    2AKDO   H8216969   1.840   5.691   6.799
    2AKDO    O816970   1.992   5.818   6.853
    2AKDO   HO816971   2.035   5.794   6.770
    3AKDO    C116972   1.285   5.402   7.030
    3AKDO   O1116973   1.225   5.339   6.938
    3AKDO   O1216974   1.263   5.520   7.068
    3AKDO    C216975   1.366   5.316   7.131
    3AKDO    C616976   1.451   5.093   7.174
    3AKDO    H616977   1.555   5.132   7.183
    3AKDO    O616978   1.374   5.178   7.087
    3AKDO    C316979   1.303   5.316   7.271
    3AKDO   H3116980   1.199   5.280   7.262
    3AKDO   H3216981   1.298   5.422   7.306
    3AKDO    C416982   1.380   5.233   7.370
    3AKDO    H416983   1.483   5.275   7.382
    3AKDO    O416984   1.310   5.245   7.492
    3AKDO   HO416985   1.270   5.331   7.483
    3AKDO    C516986   1.390   5.091   7.315
    3AKDO    H516987   1.463   5.037   7.378
    3AKDO    O516988   1.271   5.015   7.326
    3AKDO   HO516989   1.202   5.061   7.278
    3AKDO    C716990   1.456   4.959   7.103
    3AKDO    H716991   1.352   4.920   7.096
    3AKDO    O716992   1.535   4.864   7.177
    3AKDO   HO716993   1.626   4.883   7.153
    3AKDO    C816994   1.513   4.972   6.962
    3AKDO   H8116995   1.467   5.058   6.910
    3AKDO   H8216996   1.621   4.996   6.969
    3AKDO    O816997   1.496   4.853   6.884
    3AKDO   HO816998   1.586   4.829   6.862
    4AHEP    C116999   1.764   5.604   7.337
    4AHEP    H117000   1.850   5.653   7.285
    4AHEP    C517001   1.553   5.660   7.438
    4AHEP    H517002   1.514   5.569   7.386
    4AHEP    O517003   1.665   5.706   7.358
    4AHEP    C217004   1.817   5.556   7.472
    4AHEP    H217005   1.881   5.468   7.450
    4AHEP    O217006   1.900   5.650   7.540
    4AHEP   HO217007   1.933   5.602   7.616
    4AHEP    C317008   1.704   5.507   7.562
    4AHEP    H317009   1.657   5.419   7.512
    4AHEP    O317010   1.760   5.470   7.690
    4AHEP    C417011   1.601   5.619   7.578
    4AHEP    H417012   1.651   5.706   7.627
    4AHEP    O417013   1.492   5.570   7.657
    4AHEP    P417014   1.424   5.652   7.785
    4AHEP  OP4217015   1.360   5.544   7.872
    4AHEP  OP4317016   1.324   5.749   7.726
    4AHEP  OP4417017   1.533   5.730   7.860
    4AHEP    C617018   1.437   5.762   7.431
    4AHEP    H617019   1.344   5.708   7.457
    4AHEP    O617020   1.455   5.865   7.530
    4AHEP   HO617021   1.409   5.826   7.605
    4AHEP    C717022   1.419   5.826   7.294
    4AHEP   H7117023   1.327   5.889   7.294
    4AHEP   H7217024   1.404   5.747   7.219
    4AHEP    O717025   1.531   5.908   7.254
    4AHEP   HO717026   1.605   5.848   7.266
    5AHEP    C117027   1.694   5.364   7.757
    5AHEP    H117028   1.601   5.339   7.701
    5AHEP    C517029   1.885   5.252   7.847
    5AHEP    H517030   1.941   5.342   7.815
    5AHEP    O517031   1.770   5.242   7.760
    5AHEP    C217032   1.653   5.399   7.899
    5AHEP    H217033   1.622   5.506   7.895
    5AHEP    O217034   1.535   5.330   7.943
    5AHEP   HO217035   1.469   5.399   7.941
    5AHEP    C317036   1.767   5.407   7.997
    5AHEP    H317037   1.836   5.489   7.969
    5AHEP    O317038   1.721   5.428   8.132
    5AHEP    C417039   1.842   5.276   7.992
    5AHEP    H417040   1.776   5.193   8.026
    5AHEP    O417041   1.963   5.280   8.066
    5AHEP    P417042   1.977   5.282   8.229
    5AHEP  OP4217043   1.965   5.428   8.271
    5AHEP  OP4317044   2.116   5.229   8.259
    5AHEP  OP4417045   1.867   5.193   8.286
    5AHEP    C617046   1.982   5.135   7.822
    5AHEP    H617047   2.072   5.151   7.885
    5AHEP    O617048   1.923   5.009   7.860
    5AHEP   HO617049   2.000   4.951   7.867
    5AHEP    C717050   2.026   5.136   7.675
    5AHEP   H7117051   2.137   5.130   7.675
    5AHEP   H7217052   2.004   5.234   7.627
    5AHEP    O717053   1.981   5.027   7.594
    6AHEP    C117054   1.858   5.053   7.530
    6AHEP    H117055   1.821   5.156   7.550
    6AHEP    C517056   1.915   4.913   7.341
    6AHEP    H517057   2.015   4.896   7.386
    6AHEP    O517058   1.865   5.041   7.386
    6AHEP    C217059   1.760   4.951   7.580
    6AHEP    H217060   1.756   4.961   7.691
    6AHEP    O217061   1.628   4.977   7.533
    6AHEP   HO217062   1.635   4.975   7.438
    6AHEP    C317063   1.809   4.812   7.543
    6AHEP    H317064   1.910   4.797   7.585
    6AHEP    O317065   1.726   4.709   7.596
    6AHEP   HO317066   1.755   4.630   7.549
    6AHEP    C417067   1.820   4.804   7.391
    6AHEP    H417068   1.719   4.821   7.347
    6AHEP    O417069   1.862   4.674   7.351
    6AHEP   HO417070   1.858   4.666   7.255
    6AHEP    C617071   1.934   4.912   7.189
    6AHEP    H617072   1.973   4.812   7.160
    6AHEP    O617073   1.809   4.932   7.122
    6AHEP   HO617074   1.828   5.004   7.061
    6AHEP    C717075   2.037   5.014   7.141
    6AHEP   H7117076   2.052   5.002   7.031
    6AHEP   H7217077   2.134   4.995   7.190
    6AHEP    O717078   1.999   5.150   7.167
    6AHEP   HO717079   1.990   5.190   7.080
    7AGLC    C117080   1.669   5.553   8.168
    7AGLC    H117081   1.718   5.633   8.110
    7AGLC    C517082   1.456   5.452   8.219
    7AGLC    H517083   1.494   5.352   8.188
    7AGLC    O517084   1.527   5.556   8.149
    7AGLC    C217085   1.689   5.573   8.319
    7AGLC    H217086   1.629   5.664   8.344
    7AGLC    O217087   1.821   5.610   8.359
    7AGLC   HO217088   1.875   5.537   8.328
    7AGLC    C317089   1.629   5.458   8.398
    7AGLC    H317090   1.668   5.365   8.351
    7AGLC    O317091   1.663   5.454   8.540
    7AGLC    C417092   1.479   5.465   8.368
    7AGLC    H417093   1.444   5.567   8.394
    7AGLC    O417094   1.399   5.375   8.443
    7AGLC   HO417095   1.332   5.429   8.487
    7AGLC    C617096   1.310   5.461   8.177
    7AGLC   H6117097   1.299   5.419   8.075
    7AGLC   H6217098   1.245   5.400   8.243
    7AGLC    O617099   1.261   5.596   8.174
    7AGLC   HO617100   1.294   5.630   8.090
    8AGLC    C117101   1.710   5.325   8.579
    8AGLC    H117102   1.656   5.245   8.524
    8AGLC    C517103   1.939   5.398   8.623
    8AGLC    H517104   1.913   5.502   8.594
    8AGLC    O517105   1.851   5.307   8.556
    8AGLC    C217106   1.696   5.302   8.728
    8AGLC    H217107   1.733   5.199   8.749
    8AGLC    O217108   1.563   5.311   8.778
    8AGLC    C317109   1.777   5.402   8.808
    8AGLC    H317110   1.750   5.502   8.770
    8AGLC    O317111   1.739   5.401   8.948
    8AGLC    C417112   1.923   5.381   8.774
    8AGLC    H417113   1.953   5.276   8.799
    8AGLC    O417114   2.008   5.470   8.845
    8AGLC   HO417115   2.090   5.462   8.796
    8AGLC    C617116   2.078   5.365   8.568
    8AGLC   H6117117   2.085   5.256   8.549
    8AGLC   H6217118   2.091   5.415   8.470
    8AGLC    O617119   2.187   5.405   8.653
    8AGLC   HO617120   2.265   5.374   8.608
    9AGAL    C117121   1.464   5.222   8.733
    9AGAL    H117122   1.457   5.219   8.622
    9AGAL    C517123   1.501   5.083   8.924
    9AGAL    H517124   1.587   5.149   8.950
    9AGAL    O517125   1.483   5.089   8.782
    9AGAL    C217126   1.341   5.284   8.795
    9AGAL    H217127   1.251   5.225   8.766
    9AGAL    O217128   1.335   5.413   8.730
    9AGAL    C317129   1.357   5.282   8.947
    9AGAL    H317130   1.448   5.339   8.974
    9AGAL    O317131   1.250   5.345   9.016
    9AGAL   HO317132   1.251   5.438   8.990
    9AGAL    C417133   1.379   5.139   8.997
    9AGAL    H417134   1.403   5.144   9.105
    9AGAL    O417135   1.265   5.054   8.986
    9AGAL   HO417136   1.185   5.108   8.983
    9AGAL    C617137   1.544   4.942   8.958
    9AGAL   H6117138   1.645   4.926   8.917
    9AGAL   H6217139   1.550   4.929   9.068
    9AGAL    O617140   1.459   4.841   8.903
    9AGAL   HO617141   1.444   4.866   8.811
   10AGAL    C117142   1.263   5.524   8.776
   10AGAL    H117143   1.156   5.494   8.788
   10AGAL    C517144   1.455   5.616   8.884
   10AGAL    H517145   1.511   5.529   8.844
   10AGAL    O517146   1.317   5.577   8.898
   10AGAL    C217147   1.271   5.632   8.668
   10AGAL    H217148   1.209   5.718   8.702
   10AGAL    O217149   1.216   5.585   8.545
   10AGAL   HO217150   1.155   5.649   8.509
   10AGAL    C317151   1.415   5.678   8.649
   10AGAL    H317152   1.475   5.590   8.617
   10AGAL    O317153   1.426   5.779   8.549
   10AGAL   HO317154   1.370   5.751   8.476
   10AGAL    C417155   1.470   5.728   8.780
   10AGAL    H417156   1.579   5.746   8.766
   10AGAL    O417157   1.411   5.851   8.821
   10AGAL   HO417158   1.372   5.890   8.743
   10AGAL    C617159   1.518   5.644   9.019
   10AGAL   H6117160   1.495   5.559   9.087
   10AGAL   H6217161   1.628   5.651   9.007
   10AGAL    O617162   1.471   5.764   9.079
   10AGAL   HO617163   1.430   5.816   9.009
   11BGLC    C117164   1.809   5.321   9.039
   11BGLC    H117165   1.909   5.366   9.061
   11BGLC    C517166   1.895   5.103   9.087
   11BGLC    H517167   1.993   5.149   9.110
   11BGLC    O517168   1.825   5.186   8.993
   11BGLC    C217169   1.724   5.319   9.167
   11BGLC    H217170   1.626   5.275   9.141
   11BGLC    O217171   1.699   5.450   9.217
   11BGLC   HO217172   1.712   5.512   9.144
   11BGLC    C317173   1.790   5.233   9.271
   11BGLC    H317174   1.886   5.279   9.300
   11BGLC    O317175   1.703   5.216   9.384
   11BGLC    C417176   1.812   5.095   9.215
   11BGLC    H417177   1.713   5.050   9.190
   11BGLC    O417178   1.874   5.012   9.312
   11BGLC   HO417179   1.900   5.066   9.386
   11BGLC    C617180   1.914   4.968   9.019
   11BGLC   H6117181   1.865   4.889   9.080
   11BGLC   H6217182   1.867   4.966   8.919
   11BGLC    O617183   2.052   4.933   9.004
   11BGLC   HO617184   2.081   4.953   8.915
   12BGLCN   C117185   1.746   5.269   9.506
   12BGLCN   H117186   1.740   5.380   9.502
   12BGLCN   C517187   1.927   5.277   9.660
   12BGLCN   H517188   1.915   5.387   9.663
   12BGLCN   O517189   1.880   5.227   9.535
   12BGLCN   C217190   1.651   5.212   9.610
   12BGLCN   H217191   1.665   5.102   9.608
   12BGLCN    N17192   1.512   5.241   9.575
   12BGLCN   HN17193   1.494   5.332   9.538
   12BGLCN    C17194   1.414   5.150   9.569
   12BGLCN    O17195   1.425   5.035   9.609
   12BGLCN   CT17196   1.283   5.197   9.512
   12BGLCN  HT117197   1.199   5.154   9.571
   12BGLCN  HT217198   1.274   5.163   9.406
   12BGLCN  HT317199   1.276   5.308   9.514
   12BGLCN   C317200   1.694   5.261   9.749
   12BGLCN   H317201   1.687   5.372   9.749
   12BGLCN   O317202   1.613   5.209   9.856
   12BGLCN   C417203   1.838   5.218   9.770
   12BGLCN   H417204   1.843   5.107   9.761
   12BGLCN   O417205   1.889   5.250   9.899
   12BGLCN  HO417206   1.876   5.344   9.917
   12BGLCN   C617207   2.074   5.242   9.671
   12BGLCN  H6117208   2.106   5.241   9.778
   12BGLCN  H6217209   2.093   5.141   9.629
   12BGLCN   O617210   2.154   5.339   9.602
   12BGLCN  HO617211   2.242   5.341   9.639
   13AGAL    C117212   1.583   5.303   9.958
   13AGAL    H117213   1.673   5.364   9.983
   13AGAL    C517214   1.356   5.318   9.884
   13AGAL    H517215   1.380   5.238   9.811
   13AGAL    O517216   1.477   5.390   9.917
   13AGAL    C217217   1.535   5.235  10.087
   13AGAL    H217218   1.503   5.317  10.155
   13AGAL    O217219   1.640   5.160  10.151
   13AGAL    C317220   1.412   5.153  10.057
   13AGAL    H317221   1.437   5.082   9.976
   13AGAL    O317222   1.371   5.073  10.168
   13AGAL   HO317223   1.396   4.982  10.151
   13AGAL    C417224   1.301   5.245  10.006
   13AGAL    H417225   1.215   5.182   9.976
   13AGAL    O417226   1.253   5.338  10.103
   13AGAL   HO417227   1.293   5.423  10.083
   13AGAL    C617228   1.257   5.411   9.816
   13AGAL   H6117229   1.292   5.430   9.712
   13AGAL   H6217230   1.157   5.362   9.808
   13AGAL    O617231   1.243   5.538   9.882
   13AGAL   HO617232   1.152   5.555   9.905
   14ARHM    C117233   1.687   5.210  10.275
   14ARHM    H117234   1.677   5.320  10.278
   14ARHM    C517235   1.856   5.045  10.297
   14ARHM    H517236   1.824   4.998  10.202
   14ARHM    O517237   1.827   5.184  10.293
   14ARHM    C217238   1.607   5.149  10.389
   14ARHM    H217239   1.499   5.168  10.372
   14ARHM    O217240   1.639   5.196  10.523
   14ARHM    C317241   1.632   5.000  10.394
   14ARHM    H317242   1.602   4.955  10.297
   14ARHM    O317243   1.554   4.938  10.497
   14ARHM   HO317244   1.543   5.002  10.568
   14ARHM    C417245   1.782   4.978  10.412
   14ARHM    H417246   1.814   5.028  10.506
   14ARHM    O417247   1.818   4.841  10.426
   14ARHM   HO417248   1.764   4.789  10.365
   14ARHM    C617249   2.009   5.034  10.307
   14ARHM   H6117250   2.056   5.087  10.221
   14ARHM   H6217251   2.045   5.081  10.401
   14ARHM   H6317252   2.042   4.928  10.304
   15ARHM    C117253   1.635   5.334  10.546
   15ARHM    H117254   1.561   5.383  10.479
   15ARHM    C517255   1.864   5.341  10.616
   15ARHM    H517256   1.879   5.233  10.591
   15ARHM    O517257   1.764   5.396  10.530
   15ARHM    C217258   1.592   5.350  10.690
   15ARHM    H217259   1.494   5.300  10.702
   15ARHM    O217260   1.577   5.491  10.712
   15ARHM    C317261   1.692   5.285  10.785
   15ARHM    H317262   1.702   5.178  10.754
   15ARHM    O317263   1.647   5.290  10.920
   15ARHM    C417264   1.825   5.353  10.763
   15ARHM    H417265   1.814   5.461  10.788
   15ARHM    O417266   1.924   5.298  10.849
   15ARHM   HO417267   1.999   5.359  10.852
   15ARHM    C617268   1.995   5.414  10.582
   15ARHM   H6117269   2.080   5.373  10.641
   15ARHM   H6217270   2.019   5.403  10.474
   15ARHM   H6317271   1.986   5.523  10.605
   16BMANN   C117272   1.526   5.528  10.837
   16BMANN   H117273   1.607   5.520  10.913
   16BMANN   C517274   1.367   5.475  11.005
   16BMANN   H517275   1.449   5.467  11.081
   16BMANN   O517276   1.417   5.444  10.875
   16BMANN   C217277   1.481   5.671  10.828
   16BMANN   H217278   1.573   5.731  10.808
   16BMANN    N17279   1.389   5.692  10.717
   16BMANN   HN17280   1.328   5.617  10.696
   16BMANN    C17281   1.389   5.801  10.638
   16BMANN    O17282   1.464   5.896  10.656
   16BMANN   CT17283   1.291   5.800  10.524
   16BMANN  HT117284   1.257   5.903  10.502
   16BMANN  HT217285   1.202   5.738  10.549
   16BMANN  HT317286   1.340   5.758  10.433
   16BMANN   C317287   1.428   5.711  10.964
   16BMANN   H317288   1.509   5.699  11.038
   16BMANN   O317289   1.389   5.848  10.965
   16BMANN  HO317290   1.463   5.900  10.998
   16BMANN   C417291   1.315   5.619  11.006
   16BMANN   H417292   1.232   5.627  10.932
   16BMANN   O417293   1.264   5.651  11.135
   16BMANN  HO417294   1.248   5.746  11.138
   16BMANN   C617295   1.262   5.371  11.036
   16BMANN  H6117296   1.209   5.398  11.130
   16BMANN  H6217297   1.189   5.367  10.953
   16BMANN   O617298   1.316   5.240  11.054
   16BMANN  HO617299   1.367   5.218  10.975
   17BGLCN   C117300   1.661   5.172  10.995
   17BGLCN   H117301   1.760   5.126  10.977
   17BGLCN   C517302   1.560   4.962  11.047
   17BGLCN   H517303   1.660   4.915  11.033
   17BGLCN   O517304   1.554   5.081  10.967
   17BGLCN   C217305   1.648   5.217  11.141
   17BGLCN   H217306   1.545   5.255  11.155
   17BGLCN    N17307   1.736   5.329  11.170
   17BGLCN   HN17308   1.810   5.346  11.106
   17BGLCN    C17309   1.712   5.422  11.266
   17BGLCN    O17310   1.616   5.418  11.342
   17BGLCN   CT17311   1.810   5.535  11.274
   17BGLCN  HT117312   1.760   5.629  11.241
   17BGLCN  HT217313   1.899   5.517  11.210
   17BGLCN  HT317314   1.841   5.549  11.380
   17BGLCN   C317315   1.662   5.092  11.228
   17BGLCN   H317316   1.754   5.040  11.194
   17BGLCN   O317317   1.677   5.122  11.368
   17BGLCN   C417318   1.545   5.002  11.193
   17BGLCN   H417319   1.452   5.062  11.201
   17BGLCN   O417320   1.526   4.890  11.279
   17BGLCN  HO417321   1.444   4.909  11.325
   17BGLCN   C617322   1.458   4.860  10.999
   17BGLCN  H6117323   1.477   4.762  11.048
   17BGLCN  H6217324   1.356   4.893  11.029
   17BGLCN   O617325   1.461   4.842  10.857
   17BGLCN  HO617326   1.392   4.897  10.821
   18AGAL    C117327   1.752   5.030  11.444
   18AGAL    H117328   1.694   4.936  11.458
   18AGAL    C517329   1.963   5.113  11.366
   18AGAL    H517330   1.908   5.186  11.304
   18AGAL    O517331   1.879   4.997  11.384
   18AGAL    C217332   1.781   5.089  11.582
   18AGAL    H217333   1.850   5.016  11.630
   18AGAL    O217334   1.665   5.098  11.666
   18AGAL    C317335   1.860   5.219  11.564
   18AGAL    H317336   1.802   5.284  11.495
   18AGAL    O317337   1.878   5.294  11.683
   18AGAL   HO317338   1.843   5.382  11.669
   18AGAL    C417339   1.993   5.185  11.498
   18AGAL    H417340   2.046   5.279  11.474
   18AGAL    O417341   2.077   5.110  11.585
   18AGAL   HO417342   2.089   5.162  11.665
   18AGAL    C617343   2.085   5.074  11.283
   18AGAL   H6117344   2.051   5.047  11.180
   18AGAL   H6217345   2.153   5.161  11.273
   18AGAL    O617346   2.158   4.962  11.335
   18AGAL   HO617347   2.237   4.997  11.378
   19ARHM    C117348   1.697   5.071  11.801
   19ARHM    H117349   1.795   5.116  11.826
   19ARHM    C517350   1.587   4.859  11.814
   19ARHM    H517351   1.549   4.873  11.710
   19ARHM    O517352   1.710   4.930  11.829
   19ARHM    C217353   1.592   5.132  11.892
   19ARHM    H217354   1.573   5.235  11.854
   19ARHM    O217355   1.633   5.141  12.030
   19ARHM    C317356   1.461   5.059  11.880
   19ARHM    H317357   1.424   5.068  11.776
   19ARHM    O317358   1.362   5.118  11.965
   19ARHM   HO317359   1.400   5.126  12.054
   19ARHM    C417360   1.485   4.913  11.912
   19ARHM    H417361   1.530   4.906  12.013
   19ARHM    O417362   1.366   4.834  11.915
   19ARHM   HO417363   1.307   4.862  11.845
   19ARHM    C617364   1.620   4.710  11.832
   19ARHM   H6117365   1.695   4.678  11.756
   19ARHM   H6217366   1.660   4.691  11.932
   19ARHM   H6317367   1.528   4.648  11.816
   20ARHM    C117368   1.728   5.242  12.054
   20ARHM    H117369   1.722   5.321  11.977
   20ARHM    C517370   1.885   5.091  12.155
   20ARHM    H517371   1.815   5.007  12.137
   20ARHM    O517372   1.863   5.192  12.055
   20ARHM    C217373   1.698   5.303  12.189
   20ARHM    H217374   1.589   5.327  12.193
   20ARHM    O217375   1.770   5.423  12.214
   20ARHM    C317376   1.720   5.202  12.300
   20ARHM    H317377   1.647   5.119  12.287
   20ARHM    O317378   1.698   5.270  12.423
   20ARHM    C417379   1.861   5.149  12.293
   20ARHM    H417380   1.932   5.234  12.309
   20ARHM    O417381   1.883   5.050  12.394
   20ARHM   HO417382   1.977   5.029  12.398
   20ARHM    C617383   2.028   5.039  12.134
   20ARHM   H6117384   2.102   5.120  12.152
   20ARHM   H6217385   2.050   4.954  12.201
   20ARHM   H6317386   2.041   5.005  12.029
   21BMANN   C117387   1.728   5.532  12.137
   21BMANN   H117388   1.630   5.512  12.088
   21BMANN   C517389   1.788   5.670  11.951
   21BMANN   H517390   1.691   5.647  11.902
   21BMANN   O517391   1.826   5.560  12.036
   21BMANN   C217392   1.715   5.652  12.228
   21BMANN   H217393   1.630   5.628  12.297
   21BMANN    N17394   1.833   5.673  12.311
   21BMANN   HN17395   1.920   5.655  12.265
   21BMANN    C17396   1.832   5.710  12.439
   21BMANN    O17397   1.730   5.733  12.502
   21BMANN   CT17398   1.967   5.721  12.505
   21BMANN  HT117399   2.019   5.812  12.468
   21BMANN  HT217400   2.028   5.631  12.484
   21BMANN  HT317401   1.953   5.730  12.616
   21BMANN   C317402   1.673   5.772  12.144
   21BMANN   H317403   1.575   5.749  12.096
   21BMANN   O317404   1.653   5.886  12.227
   21BMANN  HO317405   1.739   5.914  12.258
   21BMANN   C417406   1.774   5.796  12.033
   21BMANN   H417407   1.873   5.820  12.078
   21BMANN   O417408   1.737   5.905  11.949
   21BMANN  HO417409   1.810   5.967  11.946
   21BMANN   C617410   1.895   5.680  11.845
   21BMANN  H6117411   1.879   5.769  11.781
   21BMANN  H6217412   1.995   5.690  11.891
   21BMANN   O617413   1.893   5.565  11.759
   21BMANN  HO617414   1.927   5.491  11.811
   22BGLCN   C117415   1.632   5.198  12.523
   22BGLCN   H117416   1.660   5.090  12.519
   22BGLCN   C517417   1.419   5.148  12.613
   22BGLCN   H517418   1.452   5.042  12.620
   22BGLCN   O517419   1.491   5.214  12.509
   22BGLCN   C217420   1.678   5.262  12.651
   22BGLCN   H217421   1.648   5.369  12.648
   22BGLCN    N17422   1.823   5.256  12.659
   22BGLCN   HN17423   1.866   5.186  12.602
   22BGLCN    C17424   1.902   5.346  12.720
   22BGLCN    O17425   1.860   5.443  12.781
   22BGLCN   CT17426   2.050   5.324  12.706
   22BGLCN  HT117427   2.088   5.381  12.618
   22BGLCN  HT217428   2.072   5.216  12.690
   22BGLCN  HT317429   2.101   5.359  12.797
   22BGLCN   C317430   1.605   5.197  12.769
   22BGLCN   H317431   1.628   5.088  12.766
   22BGLCN   O317432   1.657   5.252  12.890
   22BGLCN   C417433   1.455   5.212  12.748
   22BGLCN   H417434   1.431   5.321  12.743
   22BGLCN   O417435   1.378   5.153  12.850
   22BGLCN  HO417436   1.295   5.200  12.863
   22BGLCN   C617437   1.273   5.147  12.576
   22BGLCN  H6117438   1.210   5.119  12.663
   22BGLCN  H6217439   1.241   5.248  12.543
   22BGLCN   O617440   1.247   5.052  12.472
   22BGLCN  HO617441   1.156   5.060  12.446
   23AGAL    C117442   1.631   5.185  13.010
   23AGAL    H117443   1.524   5.196  13.037
   23AGAL    C517444   1.802   5.021  12.978
   23AGAL    H517445   1.829   5.069  12.883
   23AGAL    O517446   1.663   5.045  13.005
   23AGAL    C217447   1.713   5.251  13.120
   23AGAL    H217448   1.689   5.201  13.217
   23AGAL    O217449   1.681   5.391  13.131
   23AGAL    C317450   1.861   5.230  13.095
   23AGAL    H317451   1.885   5.277  12.996
   23AGAL    O317452   1.942   5.296  13.191
   23AGAL   HO317453   1.923   5.258  13.277
   23AGAL    C417454   1.891   5.082  13.088
   23AGAL    H417455   1.997   5.068  13.057
   23AGAL    O417456   1.872   5.015  13.211
   23AGAL   HO417457   1.836   4.929  13.189
   23AGAL    C617458   1.821   4.871  12.960
   23AGAL   H6117459   1.761   4.838  12.871
   23AGAL   H6217460   1.927   4.849  12.937
   23AGAL    O617461   1.780   4.793  13.072
   23AGAL   HO617462   1.687   4.772  13.061
   24ARHM    C117463   1.574   5.423  13.217
   24ARHM    H117464   1.506   5.335  13.224
   24ARHM    C517465   1.568   5.652  13.152
   24ARHM    H517466   1.651   5.637  13.081
   24ARHM    O517467   1.494   5.530  13.165
   24ARHM    C217468   1.630   5.456  13.352
   24ARHM    H217469   1.700   5.375  13.383
   24ARHM    O217470   1.525   5.467  13.450
   24ARHM    C317471   1.712   5.582  13.342
   24ARHM    H317472   1.796   5.565  13.270
   24ARHM    O317473   1.769   5.618  13.467
   24ARHM   HO317474   1.786   5.712  13.460
   24ARHM    C417475   1.625   5.694  13.287
   24ARHM    H417476   1.541   5.712  13.357
   24ARHM    O417477   1.700   5.815  13.276
   24ARHM   HO417478   1.664   5.870  13.206
   24ARHM    C617479   1.469   5.753  13.093
   24ARHM   H6117480   1.518   5.851  13.075
   24ARHM   H6217481   1.429   5.715  12.998
   24ARHM   H6317482   1.384   5.769  13.163
   25ARHM    C117483   1.493   5.344  13.510
   25ARHM    H117484   1.517   5.262  13.439
   25ARHM    C517485   1.309   5.425  13.635
   25ARHM    H517486   1.319   5.527  13.595
   25ARHM    O517487   1.354   5.330  13.538
   25ARHM    C217488   1.576   5.328  13.634
   25ARHM    H217489   1.684   5.342  13.613
   25ARHM    O217490   1.554   5.197  13.689
   25ARHM    C317491   1.535   5.430  13.738
   25ARHM    H317492   1.556   5.531  13.699
   25ARHM    O317493   1.613   5.405  13.854
   25ARHM    C417494   1.388   5.412  13.766
   25ARHM    H417495   1.372   5.310  13.805
   25ARHM    O417496   1.340   5.504  13.864
   25ARHM   HO417497   1.327   5.591  13.825
   25ARHM    C617498   1.161   5.392  13.658
   25ARHM   H6117499   1.106   5.392  13.561
   25ARHM   H6217500   1.150   5.292  13.703
   25ARHM   H6317501   1.117   5.469  13.725
   26BMANN   C117502   1.623   5.094  13.627
   26BMANN   H117503   1.723   5.129  13.590
   26BMANN   C517504   1.614   4.927  13.457
   26BMANN   H517505   1.711   4.965  13.418
   26BMANN   O517506   1.546   5.037  13.519
   26BMANN   C217507   1.640   4.989  13.732
   26BMANN   H217508   1.701   5.035  13.814
   26BMANN    N17509   1.513   4.950  13.791
   26BMANN   HN17510   1.431   4.969  13.738
   26BMANN    C17511   1.499   4.895  13.912
   26BMANN    O17512   1.596   4.867  13.981
   26BMANN   CT17513   1.359   4.868  13.958
   26BMANN  HT117514   1.287   4.881  13.875
   26BMANN  HT217515   1.333   4.937  14.041
   26BMANN  HT317516   1.352   4.763  13.995
   26BMANN   C317517   1.720   4.875  13.672
   26BMANN   H317518   1.817   4.914  13.634
   26BMANN   O317519   1.751   4.777  13.772
   26BMANN  HO317520   1.721   4.809  13.856
   26BMANN   C417521   1.642   4.817  13.557
   26BMANN   H417522   1.545   4.777  13.595
   26BMANN   O417523   1.713   4.710  13.495
   26BMANN  HO417524   1.751   4.657  13.565
   26BMANN   C617525   1.531   4.882  13.336
   26BMANN  H6117526   1.479   4.970  13.293
   26BMANN  H6217527   1.599   4.841  13.259
   26BMANN   O617528   1.435   4.782  13.370
   26BMANN  HO617529   1.478   4.696  13.366
   27BGLCN   C117530   1.641   5.516  13.936
   27BGLCN   H117531   1.565   5.595  13.925
   27BGLCN   C517532   1.807   5.676  13.989
   27BGLCN   H517533   1.729   5.756  13.984
   27BGLCN   O517534   1.770   5.567  13.904
   27BGLCN   C217535   1.641   5.459  14.075
   27BGLCN   H217536   1.718   5.380  14.082
   27BGLCN    N17537   1.511   5.399  14.102
   27BGLCN   HN17538   1.438   5.427  14.038
   27BGLCN    C17539   1.486   5.300  14.187
   27BGLCN    O17540   1.570   5.252  14.262
   27BGLCN   CT17541   1.345   5.247  14.189
   27BGLCN  HT117542   1.286   5.292  14.106
   27BGLCN  HT217543   1.297   5.272  14.286
   27BGLCN  HT317544   1.348   5.137  14.176
   27BGLCN   C317545   1.679   5.570  14.173
   27BGLCN   H317546   1.603   5.650  14.161
   27BGLCN   O317547   1.671   5.516  14.307
   27BGLCN   C417548   1.814   5.627  14.134
   27BGLCN   H417549   1.890   5.546  14.140
   27BGLCN   O417550   1.858   5.733  14.217
   27BGLCN  HO417551   1.789   5.800  14.227
   27BGLCN   C617552   1.936   5.732  13.936
   27BGLCN  H6117553   1.978   5.807  14.006
   27BGLCN  H6217554   2.011   5.650  13.925
   27BGLCN   O617555   1.916   5.796  13.809
   27BGLCN  HO617556   1.887   5.729  13.748
   28AGAL    C117557   1.671   5.607  14.415
   28AGAL    H117558   1.774   5.645  14.431
   28AGAL    C517559   1.445   5.679  14.377
   28AGAL    H517560   1.435   5.603  14.297
   28AGAL    O517561   1.584   5.719  14.388
   28AGAL    C217562   1.628   5.543  14.548
   28AGAL    H217563   1.630   5.629  14.619
   28AGAL    O217564   1.715   5.439  14.598
   28AGAL    C317565   1.484   5.495  14.538
   28AGAL    H317566   1.479   5.422  14.455
   28AGAL    O317567   1.441   5.428  14.657
   28AGAL   HO317568   1.395   5.346  14.634
   28AGAL    C417569   1.395   5.614  14.506
   28AGAL    H417570   1.293   5.576  14.487
   28AGAL    O417571   1.387   5.708  14.613
   28AGAL   HO417572   1.315   5.680  14.670
   28AGAL    C617573   1.363   5.800  14.334
   28AGAL   H6117574   1.393   5.831  14.231
   28AGAL   H6217575   1.256   5.774  14.332
   28AGAL    O617576   1.383   5.911  14.422
   28AGAL   HO617577   1.391   5.873  14.509
   29ARHM    C117578   1.744   5.454  14.736
   29ARHM    H117579   1.667   5.517  14.784
   29ARHM    C517580   1.980   5.434  14.705
   29ARHM    H517581   1.965   5.417  14.596
   29ARHM    O517582   1.873   5.515  14.756
   29ARHM    C217583   1.742   5.320  14.810
   29ARHM    H217584   1.644   5.273  14.790
   29ARHM    O217585   1.761   5.341  14.952
   29ARHM    C317586   1.851   5.229  14.760
   29ARHM    H317587   1.835   5.210  14.652
   29ARHM    O317588   1.849   5.104  14.829
   29ARHM   HO317589   1.927   5.056  14.801
   29ARHM    C417590   1.984   5.300  14.778
   29ARHM    H417591   1.998   5.322  14.886
   29ARHM    O417592   2.095   5.219  14.738
   29ARHM   HO417593   2.099   5.211  14.643
   29ARHM    C617594   2.108   5.518  14.723
   29ARHM   H6117595   2.098   5.615  14.668
   29ARHM   H6217596   2.125   5.540  14.830
   29ARHM   H6317597   2.197   5.464  14.683
   30ARHM    C117598   1.647   5.320  15.031
   30ARHM    H117599   1.601   5.223  15.004
   30ARHM    C517600   1.604   5.555  15.047
   30ARHM    H517601   1.694   5.576  14.986
   30ARHM    O517602   1.551   5.425  15.015
   30ARHM    C217603   1.692   5.316  15.177
   30ARHM    H217604   1.772   5.240  15.187
   30ARHM    O217605   1.583   5.285  15.264
   30ARHM    C317606   1.749   5.451  15.217
   30ARHM    H317607   1.834   5.471  15.148
   30ARHM    O317608   1.808   5.446  15.349
   30ARHM    C417609   1.645   5.560  15.194
   30ARHM    H417610   1.555   5.542  15.256
   30ARHM    O417611   1.696   5.689  15.224
   30ARHM   HO417612   1.792   5.683  15.221
   30ARHM    C617613   1.496   5.656  15.007
   30ARHM   H6117614   1.532   5.760  15.021
   30ARHM   H6217615   1.470   5.643  14.900
   30ARHM   H6317616   1.404   5.641  15.068
   31BMANN   C117617   1.550   5.150  15.283
   31BMANN   H117618   1.642   5.087  15.288
   31BMANN   C517619   1.417   4.969  15.200
   31BMANN   H517620   1.506   4.903  15.212
   31BMANN   O517621   1.462   5.104  15.180
   31BMANN   C217622   1.476   5.150  15.416
   31BMANN   H217623   1.553   5.169  15.494
   31BMANN    N17624   1.381   5.261  15.428
   31BMANN   HN17625   1.363   5.310  15.343
   31BMANN    C17626   1.333   5.310  15.545
   31BMANN    O17627   1.345   5.249  15.650
   31BMANN   CT17628   1.266   5.445  15.542
   31BMANN  HT117629   1.291   5.500  15.449
   31BMANN  HT217630   1.301   5.504  15.629
   31BMANN  HT317631   1.156   5.433  15.551
   31BMANN   C317632   1.424   5.009  15.442
   31BMANN   H317633   1.512   4.941  15.445
   31BMANN   O317634   1.361   4.997  15.569
   31BMANN  HO317635   1.343   5.085  15.603
   31BMANN   C417636   1.336   4.961  15.329
   31BMANN   H417637   1.247   5.028  15.320
   31BMANN   O417638   1.290   4.828  15.352
   31BMANN  HO417639   1.255   4.829  15.442
   31BMANN   C617640   1.342   4.923  15.076
   31BMANN  H6117641   1.284   4.831  15.098
   31BMANN  H6217642   1.268   5.001  15.045
   31BMANN   O617643   1.431   4.894  14.968
   31BMANN  HO617644   1.461   4.977  14.930
   32BGLCN   C117645   1.722   5.465  15.460
   32BGLCN   H117646   1.623   5.419  15.440
   32BGLCN   C517647   1.606   5.622  15.596
   32BGLCN   H517648   1.510   5.577  15.564
   32BGLCN   O517649   1.703   5.603  15.491
   32BGLCN   C217650   1.782   5.399  15.583
   32BGLCN   H217651   1.868   5.463  15.613
   32BGLCN    N17652   1.836   5.267  15.555
   32BGLCN   HN17653   1.798   5.219  15.476
   32BGLCN    C17654   1.944   5.217  15.618
   32BGLCN    O17655   2.000   5.275  15.710
   32BGLCN   CT17656   1.994   5.084  15.568
   32BGLCN  HT117657   1.945   5.056  15.472
   32BGLCN  HT217658   1.975   5.006  15.645
   32BGLCN  HT317659   2.104   5.091  15.552
   32BGLCN   C317660   1.678   5.407  15.694
   32BGLCN   H317661   1.584   5.365  15.651
   32BGLCN   O317662   1.708   5.332  15.813
   32BGLCN   C417663   1.654   5.554  15.724
   32BGLCN   H417664   1.749   5.601  15.757
   32BGLCN   O417665   1.557   5.571  15.826
   32BGLCN  HO417666   1.598   5.549  15.910
   32BGLCN   C617667   1.583   5.771  15.609
   32BGLCN  H6117668   1.501   5.791  15.682
   32BGLCN  H6217669   1.675   5.821  15.646
   32BGLCN   O617670   1.547   5.828  15.482
   32BGLCN  HO617671   1.619   5.807  15.422
   33AGAL    C117672   1.596   5.259  15.863
   33AGAL    H117673   1.502   5.317  15.848
   33AGAL    C517674   1.695   5.045  15.820
   33AGAL    H517675   1.787   5.099  15.791
   33AGAL    O517676   1.583   5.132  15.796
   33AGAL    C217677   1.609   5.234  16.013
   33AGAL    H217678   1.517   5.179  16.043
   33AGAL    O217679   1.610   5.360  16.081
   33AGAL    C317680   1.729   5.145  16.042
   33AGAL    H317681   1.819   5.197  16.002
   33AGAL    O317682   1.752   5.127  16.182
   33AGAL   HO317683   1.692   5.060  16.217
   33AGAL    C417684   1.713   5.013  15.969
   33AGAL    H417685   1.808   4.958  15.980
   33AGAL    O417686   1.612   4.928  16.022
   33AGAL   HO417687   1.527   4.971  16.033
   33AGAL    C617688   1.686   4.924  15.728
   33AGAL   H6117689   1.709   4.956  15.625
   33AGAL   H6217690   1.762   4.849  15.758
   33AGAL    O617691   1.557   4.861  15.726
   33AGAL   HO617692   1.492   4.927  15.704
   34ARHM    C117693   1.540   5.358  16.204
   34ARHM    H117694   1.568   5.268  16.261
   34ARHM    C517695   1.347   5.472  16.118
   34ARHM    H517696   1.390   5.478  16.016
   34ARHM    O517697   1.397   5.355  16.185
   34ARHM    C217698   1.580   5.482  16.281
   34ARHM    H217699   1.691   5.485  16.284
   34ARHM    O217700   1.532   5.483  16.417
   34ARHM    C317701   1.532   5.606  16.210
   34ARHM    H317702   1.578   5.611  16.109
   34ARHM    O317703   1.572   5.724  16.280
   34ARHM   HO317704   1.668   5.729  16.280
   34ARHM    C417705   1.382   5.599  16.194
   34ARHM    H417706   1.335   5.593  16.295
   34ARHM    O417707   1.329   5.714  16.128
   34ARHM   HO417708   1.355   5.791  16.180
   34ARHM    C617709   1.195   5.449  16.103
   34ARHM   H6117710   1.147   5.441  16.203
   34ARHM   H6217711   1.149   5.533  16.047
   34ARHM   H6317712   1.176   5.355  16.047
   35ARHM    C117713   1.578   5.382  16.503
   35ARHM    H117714   1.684   5.357  16.480
   35ARHM    C517715   1.357   5.293  16.512
   35ARHM    H517716   1.322   5.367  16.436
   35ARHM    O517717   1.496   5.264  16.493
   35ARHM    C217718   1.564   5.437  16.643
   35ARHM    H217719   1.624   5.531  16.649
   35ARHM    O217720   1.608   5.348  16.747
   35ARHM    C317721   1.420   5.473  16.669
   35ARHM    H317722   1.387   5.551  16.596
   35ARHM    O317723   1.404   5.529  16.800
   35ARHM   HO317724   1.445   5.469  16.862
   35ARHM    C417725   1.334   5.350  16.651
   35ARHM    H417726   1.363   5.272  16.725
   35ARHM    O417727   1.196   5.382  16.672
   35ARHM   HO417728   1.196   5.471  16.708
   35ARHM    C617729   1.285   5.161  16.486
   35ARHM   H6117730   1.307   5.124  16.383
   35ARHM   H6217731   1.317   5.084  16.559
   35ARHM   H6317732   1.175   5.176  16.495
   36BMANN   C117733   1.745   5.316  16.744
   36BMANN   H117734   1.805   5.404  16.712
   36BMANN   C517735   1.910   5.166  16.659
   36BMANN   H517736   1.968   5.255  16.624
   36BMANN   O517737   1.771   5.202  16.661
   36BMANN   C217738   1.781   5.276  16.886
   36BMANN   H217739   1.762   5.366  16.949
   36BMANN    N17740   1.694   5.170  16.937
   36BMANN   HN17741   1.647   5.115  16.868
   36BMANN    C17742   1.675   5.144  17.066
   36BMANN    O17743   1.732   5.208  17.154
   36BMANN   CT17744   1.582   5.031  17.100
   36BMANN  HT117745   1.615   4.938  17.048
   36BMANN  HT217746   1.478   5.056  17.069
   36BMANN  HT317747   1.583   5.014  17.210
   36BMANN   C317748   1.929   5.246  16.892
   36BMANN   H317749   1.986   5.335  16.857
   36BMANN   O317750   1.971   5.219  17.026
   36BMANN  HO317751   1.895   5.228  17.083
   36BMANN   C417752   1.958   5.130  16.799
   36BMANN   H417753   1.906   5.039  16.835
   36BMANN   O417754   2.098   5.103  16.793
   36BMANN  HO417755   2.127   5.077  16.880
   36BMANN   C617756   1.931   5.055  16.557
   36BMANN  H6117757   1.872   5.077  16.466
   36BMANN  H6217758   2.038   5.051  16.528
   36BMANN   O617759   1.894   4.926  16.607
   36BMANN  HO617760   1.972   4.877  16.634
    1ECLIP HB6S17761   5.475   1.019   6.679
    1ECLIP  OB617762   5.399   0.875   6.804
    1ECLIP  CB617763   5.498   0.914   6.707
    1ECLIP HB6R17764   5.600   0.914   6.752
    1ECLIP  CB517765   5.499   0.831   6.580
    1ECLIP  OB517766   5.365   0.824   6.533
    1ECLIP  HB517767   5.539   0.730   6.602
    1ECLIP  CB117768   5.349   0.745   6.414
    1ECLIP  HB117769   5.383   0.641   6.432
    1ECLIP  OA617770   5.216   0.743   6.372
    1ECLIP  CA617771   5.138   0.858   6.410
    1ECLIP HA6R17772   5.200   0.946   6.438
    1ECLIP HA6S17773   5.075   0.830   6.497
    1ECLIP  CB417774   5.580   0.898   6.469
    1ECLIP  HB417775   5.527   0.994   6.448
    1ECLIP  OB417776   5.716   0.917   6.512
    1ECLIP   PB17777   5.775   1.069   6.533
    1ECLIP OPB417778   5.900   1.072   6.617
    1ECLIP OPB317779   5.661   1.149   6.592
    1ECLIP OPB217780   5.787   1.127   6.393
    1ECLIP  CB317781   5.570   0.818   6.339
    1ECLIP  OB317782   5.630   0.896   6.235
    1ECLIP  HB317783   5.612   0.717   6.352
    1ECLIP  C7117784   5.749   0.857   6.191
    1ECLIP  O7117785   5.811   0.760   6.231
    1ECLIP  C7217786   5.762   0.904   6.047
    1ECLIP H72R17787   5.683   0.856   5.986
    1ECLIP H72S17788   5.861   0.867   6.012
    1ECLIP  CB217789   5.424   0.806   6.299
    1ECLIP  HB217790   5.383   0.908   6.282
    1ECLIP  NB217791   5.404   0.730   6.174
    1ECLIP HNB217792   5.381   0.634   6.182
    1ECLIP  CA417793   5.011   0.784   6.204
    1ECLIP  HA417794   5.107   0.748   6.161
    1ECLIP  OA417795   4.951   0.677   6.278
    1ECLIP HOA417796   4.871   0.703   6.325
    1ECLIP  CA517797   5.049   0.900   6.294
    1ECLIP  HA517798   4.958   0.950   6.335
    1ECLIP  OA517799   5.123   0.997   6.216
    1ECLIP  CA117800   5.045   1.054   6.109
    1ECLIP  HA117801   5.117   1.112   6.046
    1ECLIP  OA117802   4.946   1.146   6.155
    1ECLIP OPA217803   4.882   1.388   6.224
    1ECLIP OPA317804   5.021   1.254   6.375
    1ECLIP OPA417805   5.121   1.340   6.160
    1ECLIP   PA17806   4.997   1.287   6.228
    1ECLIP  CA317807   4.925   0.833   6.090
    1ECLIP  HA317808   4.833   0.879   6.132
    1ECLIP  OA317809   4.884   0.721   6.009
    1ECLIP  C3117810   4.982   0.641   5.960
    1ECLIP  O3117811   5.028   0.655   5.848
    1ECLIP  C3217812   4.961   0.499   6.016
    1ECLIP H32R17813   4.908   0.441   5.938
    1ECLIP H32S17814   4.896   0.505   6.105
    1ECLIP  CA217815   5.002   0.941   6.016
    1ECLIP  HA217816   5.095   0.895   5.976
    1ECLIP  NA217817   4.922   0.992   5.905
    1ECLIP HNA217818   4.829   1.019   5.929
    1ECLIP  C7317819   5.755   1.057   6.035
    1ECLIP H73R17820   5.787   1.105   6.129
    1ECLIP  O7317821   5.625   1.096   5.991
    1ECLIP  C8117822   5.542   1.149   6.080
    1ECLIP  O8117823   5.575   1.189   6.190
    1ECLIP  C8217824   5.421   1.210   6.011
    1ECLIP H82R17825   5.389   1.299   6.068
    1ECLIP H82S17826   5.337   1.137   6.016
    1ECLIP  C8317827   5.446   1.248   5.865
    1ECLIP H83R17828   5.458   1.153   5.807
    1ECLIP H83S17829   5.539   1.307   5.852
    1ECLIP  C8417830   5.328   1.326   5.808
    1ECLIP H84R17831   5.341   1.435   5.825
    1ECLIP H84S17832   5.235   1.295   5.862
    1ECLIP  C8517833   5.309   1.293   5.661
    1ECLIP H85R17834   5.288   1.184   5.655
    1ECLIP H85S17835   5.405   1.313   5.608
    1ECLIP  C8617836   5.195   1.368   5.594
    1ECLIP H86R17837   5.224   1.475   5.579
    1ECLIP H86S17838   5.106   1.367   5.660
    1ECLIP  C8717839   5.157   1.305   5.459
    1ECLIP H87R17840   5.091   1.374   5.403
    1ECLIP H87S17841   5.098   1.213   5.480
    1ECLIP  C8817842   5.280   1.264   5.377
    1ECLIP H88R17843   5.335   1.184   5.431
    1ECLIP H88S17844   5.348   1.351   5.365
    1ECLIP  C8917845   5.246   1.207   5.240
    1ECLIP H89R17846   5.169   1.127   5.249
    1ECLIP H89S17847   5.338   1.158   5.200
    1ECLIP C81017848   5.199   1.313   5.139
    1ECLIPH810R17849   5.263   1.404   5.148
    1ECLIPH810S17850   5.096   1.344   5.167
    1ECLIP C81117851   5.201   1.261   4.995
    1ECLIPH811R17852   5.144   1.332   4.931
    1ECLIPH811S17853   5.147   1.164   4.997
    1ECLIP C81217854   5.340   1.237   4.934
    1ECLIPH812R17855   5.327   1.194   4.833
    1ECLIPH812S17856   5.394   1.162   4.995
    1ECLIP C81317857   5.426   1.364   4.924
    1ECLIPH813R17858   5.373   1.438   4.860
    1ECLIPH813S17859   5.439   1.408   5.024
    1ECLIP C81417860   5.565   1.336   4.865
    1ECLIPH814R17861   5.556   1.290   4.763
    1ECLIPH814S17862   5.620   1.265   4.929
    1ECLIPH814T17863   5.623   1.430   4.856
    1ECLIP  C7417864   5.851   1.108   5.924
    1ECLIP H74R17865   5.954   1.071   5.944
    1ECLIP H74S17866   5.853   1.219   5.933
    1ECLIP  C7517867   5.812   1.077   5.776
    1ECLIP H75R17868   5.869   1.147   5.712
    1ECLIP H75S17869   5.704   1.099   5.761
    1ECLIP  C7617870   5.841   0.935   5.726
    1ECLIP H76R17871   5.777   0.861   5.778
    1ECLIP H76S17872   5.947   0.908   5.747
    1ECLIP  C7717873   5.818   0.924   5.575
    1ECLIP H77R17874   5.870   1.008   5.524
    1ECLIP H77S17875   5.709   0.935   5.554
    1ECLIP  C7817876   5.868   0.792   5.512
    1ECLIP H78R17877   5.978   0.789   5.520
    1ECLIP H78S17878   5.828   0.707   5.572
    1ECLIP  C7917879   5.828   0.771   5.365
    1ECLIP H79R17880   5.725   0.730   5.361
    1ECLIP H79S17881   5.895   0.694   5.321
    1ECLIP C71017882   5.831   0.898   5.278
    1ECLIPH710R17883   5.759   0.972   5.318
    1ECLIPH710S17884   5.933   0.943   5.282
    1ECLIP C71117885   5.795   0.868   5.132
    1ECLIPH711R17886   5.862   0.787   5.096
    1ECLIPH711S17887   5.690   0.830   5.129
    1ECLIP C71217888   5.806   0.990   5.040
    1ECLIPH712R17889   5.912   1.024   5.040
    1ECLIPH712S17890   5.744   1.073   5.082
    1ECLIP C71317891   5.761   0.962   4.896
    1ECLIPH713R17892   5.651   0.946   4.898
    1ECLIPH713S17893   5.782   1.051   4.834
    1ECLIP C71417894   5.828   0.839   4.833
    1ECLIPH714R17895   5.939   0.848   4.837
    1ECLIPH714S17896   5.799   0.746   4.887
    1ECLIPH714T17897   5.797   0.826   4.727
    1ECLIP  C5117898   5.404   0.782   6.049
    1ECLIP  O5117899   5.415   0.902   6.030
    1ECLIP  C5217900   5.391   0.685   5.932
    1ECLIP H52R17901   5.486   0.629   5.921
    1ECLIP H52S17902   5.311   0.613   5.960
    1ECLIP  C5317903   5.351   0.747   5.795
    1ECLIP H53R17904   5.262   0.812   5.809
    1ECLIP  O5317905   5.320   0.633   5.714
    1ECLIP  C6117906   5.218   0.644   5.629
    1ECLIP  O6117907   5.172   0.748   5.587
    1ECLIP  C6217908   5.208   0.513   5.549
    1ECLIP H62R17909   5.177   0.432   5.620
    1ECLIP H62S17910   5.309   0.490   5.510
    1ECLIP  C6317911   5.106   0.526   5.433
    1ECLIP H63R17912   5.133   0.615   5.372
    1ECLIP H63S17913   5.005   0.545   5.476
    1ECLIP  C6417914   5.100   0.405   5.339
    1ECLIP H64R17915   5.013   0.421   5.270
    1ECLIP H64S17916   5.081   0.312   5.396
    1ECLIP  C6517917   5.227   0.389   5.254
    1ECLIP H65R17918   5.309   0.359   5.323
    1ECLIP H65S17919   5.255   0.488   5.212
    1ECLIP  C6617920   5.219   0.285   5.142
    1ECLIP H66R17921   5.197   0.186   5.186
    1ECLIP H66S17922   5.320   0.279   5.094
    1ECLIP  C6717923   5.116   0.315   5.031
    1ECLIP H67R17924   5.014   0.299   5.071
    1ECLIP H67S17925   5.132   0.242   4.950
    1ECLIP  C6817926   5.125   0.457   4.973
    1ECLIP H68R17927   5.231   0.486   4.960
    1ECLIP H68S17928   5.081   0.527   5.047
    1ECLIP  C6917929   5.052   0.471   4.839
    1ECLIP H69R17930   4.967   0.399   4.839
    1ECLIP H69S17931   5.121   0.442   4.757
    1ECLIP C61017932   4.995   0.612   4.816
    1ECLIPH610R17933   5.077   0.687   4.822
    1ECLIPH610S17934   4.926   0.635   4.900
    1ECLIP C61117935   4.917   0.628   4.686
    1ECLIPH611R17936   4.827   0.563   4.689
    1ECLIPH611S17937   4.880   0.733   4.681
    1ECLIP C61217938   4.990   0.596   4.554
    1ECLIPH612R17939   5.066   0.674   4.532
    1ECLIPH612S17940   5.039   0.496   4.561
    1ECLIPH612T17941   4.918   0.594   4.470
    1ECLIP  C5417942   5.466   0.829   5.729
    1ECLIP H54R17943   5.553   0.762   5.712
    1ECLIP H54S17944   5.497   0.906   5.804
    1ECLIP  C5517945   5.431   0.904   5.599
    1ECLIP H55R17946   5.494   0.996   5.594
    1ECLIP H55S17947   5.326   0.938   5.605
    1ECLIP  C5617948   5.454   0.822   5.471
    1ECLIP H56R17949   5.405   0.723   5.480
    1ECLIP H56S17950   5.563   0.802   5.460
    1ECLIP  C5717951   5.401   0.890   5.344
    1ECLIP H57R17952   5.463   0.980   5.322
    1ECLIP H57S17953   5.297   0.924   5.362
    1ECLIP  C5817954   5.402   0.796   5.222
    1ECLIP H58R17955   5.501   0.747   5.216
    1ECLIP H58S17956   5.326   0.716   5.240
    1ECLIP  C5917957   5.373   0.868   5.090
    1ECLIP H59R17958   5.445   0.952   5.080
    1ECLIP H59S17959   5.270   0.911   5.094
    1ECLIP C51017960   5.387   0.777   4.967
    1ECLIPH510R17961   5.312   0.695   4.972
    1ECLIPH510S17962   5.488   0.730   4.971
    1ECLIP C51117963   5.373   0.853   4.835
    1ECLIPH511R17964   5.268   0.886   4.822
    1ECLIPH511S17965   5.435   0.945   4.842
    1ECLIP C51217966   5.420   0.774   4.712
    1ECLIPH512R17967   5.432   0.845   4.627
    1ECLIPH512S17968   5.519   0.728   4.733
    1ECLIP C51317969   5.320   0.667   4.667
    1ECLIPH513R17970   5.219   0.710   4.679
    1ECLIPH513S17971   5.327   0.578   4.734
    1ECLIP C51417972   5.334   0.623   4.521
    1ECLIPH514R17973   5.437   0.586   4.500
    1ECLIPH514S17974   5.263   0.541   4.497
    1ECLIPH514T17975   5.313   0.708   4.453
    1ECLIP  C3317976   5.090   0.424   6.054
    1ECLIP H33R17977   5.063   0.331   6.109
    1ECLIP  O3317978   5.166   0.506   6.141
    1ECLIP HO3317979   5.117   0.539   6.216
    1ECLIP  C3417980   5.173   0.383   5.931
    1ECLIP H34R17981   5.186   0.473   5.866
    1ECLIP H34S17982   5.114   0.309   5.872
    1ECLIP  C3517983   5.314   0.324   5.957
    1ECLIP H35R17984   5.307   0.224   6.004
    1ECLIP H35S17985   5.367   0.391   6.028
    1ECLIP  C3617986   5.396   0.317   5.826
    1ECLIP H36R17987   5.382   0.414   5.774
    1ECLIP H36S17988   5.357   0.238   5.760
    1ECLIP  C3717989   5.548   0.300   5.846
    1ECLIP H37R17990   5.573   0.192   5.853
    1ECLIP H37S17991   5.578   0.347   5.941
    1ECLIP  C3817992   5.631   0.366   5.733
    1ECLIP H38R17993   5.616   0.476   5.740
    1ECLIP H38S17994   5.738   0.346   5.750
    1ECLIP  C3917995   5.591   0.321   5.591
    1ECLIP H39R17996   5.483   0.345   5.576
    1ECLIP H39S17997   5.602   0.211   5.583
    1ECLIP C31017998   5.671   0.390   5.480
    1ECLIPH310R17999   5.774   0.348   5.477
    1ECLIPH310S18000   5.679   0.499   5.503
    1ECLIP C31118001   5.603   0.375   5.344
    1ECLIPH311R18002   5.583   0.267   5.325
    1ECLIPH311S18003   5.505   0.427   5.349
    1ECLIP C31218004   5.681   0.434   5.226
    1ECLIPH312R18005   5.706   0.540   5.249
    1ECLIPH312S18006   5.777   0.379   5.214
    1ECLIP C31318007   5.601   0.431   5.095
    1ECLIPH313R18008   5.582   0.325   5.068
    1ECLIPH313S18009   5.502   0.478   5.113
    1ECLIP C31418010   5.669   0.503   4.979
    1ECLIPH314R18011   5.769   0.459   4.959
    1ECLIPH314S18012   5.607   0.498   4.887
    1ECLIPH314T18013   5.684   0.610   5.006
    1ECLIP  C1118014   4.963   1.004   5.778
    1ECLIP  O1118015   5.080   0.987   5.745
    1ECLIP  C1218016   4.857   1.047   5.677
    1ECLIP H12R18017   4.852   1.158   5.681
    1ECLIP H12S18018   4.759   1.005   5.707
    1ECLIP  C1318019   4.891   1.002   5.535
    1ECLIP H13R18020   4.998   1.025   5.511
    1ECLIP  O1318021   4.810   1.078   5.446
    1ECLIP HO1318022   4.821   1.052   5.354
    1ECLIP  C1418023   4.864   0.853   5.504
    1ECLIP H14R18024   4.766   0.826   5.549
    1ECLIP H14S18025   4.942   0.793   5.556
    1ECLIP  C1518026   4.859   0.815   5.354
    1ECLIP H15R18027   4.765   0.857   5.312
    1ECLIP H15S18028   4.850   0.705   5.345
    1ECLIP  C1618029   4.978   0.861   5.268
    1ECLIP H16R18030   5.062   0.789   5.282
    1ECLIP H16S18031   5.017   0.960   5.300
    1ECLIP  C1718032   4.944   0.871   5.118
    1ECLIP H17R18033   4.890   0.779   5.087
    1ECLIP H17S18034   5.039   0.874   5.061
    1ECLIP  C1818035   4.861   0.996   5.084
    1ECLIP H18R18036   4.768   0.994   5.145
    1ECLIP H18S18037   4.918   1.086   5.113
    1ECLIP  C1918038   4.821   1.006   4.936
    1ECLIP H19R18039   4.750   1.091   4.926
    1ECLIP H19S18040   4.768   0.914   4.905
    1ECLIP C11018041   4.940   1.033   4.844
    1ECLIPH110R18042   4.990   1.126   4.878
    1ECLIPH110S18043   5.013   0.950   4.849
    1ECLIP C11118044   4.900   1.055   4.697
    1ECLIPH111R18045   4.855   0.962   4.657
    1ECLIPH111S18046   4.822   1.134   4.694
    1ECLIP C11218047   5.018   1.099   4.609
    1ECLIPH112R18048   5.061   1.193   4.650
    1ECLIPH112S18049   5.097   1.022   4.611
    1ECLIP C11318050   4.971   1.123   4.466
    1ECLIPH113R18051   4.951   1.024   4.420
    1ECLIPH113S18052   4.874   1.178   4.470
    1ECLIP C11418053   5.066   1.200   4.375
    1ECLIPH114R18054   5.112   1.286   4.429
    1ECLIPH114S18055   5.146   1.131   4.339
    1ECLIPH114T18056   5.012   1.237   4.285
    2AKDO    C118057   5.523   0.687   6.885
    2AKDO   O1118058   5.649   0.686   6.882
    2AKDO   O1218059   5.447   0.587   6.875
    2AKDO    C218060   5.454   0.822   6.924
    2AKDO    C618061   5.494   1.041   7.014
    2AKDO    H618062   5.447   1.077   6.921
    2AKDO    O618063   5.549   0.911   6.986
    2AKDO    C318064   5.334   0.810   7.021
    2AKDO   H3118065   5.368   0.759   7.115
    2AKDO   H3218066   5.257   0.746   6.972
    2AKDO    C418067   5.274   0.943   7.054
    2AKDO    H418068   5.242   0.989   6.958
    2AKDO    O418069   5.162   0.936   7.144
    2AKDO    C518070   5.379   1.034   7.117
    2AKDO    H518071   5.332   1.135   7.123
    2AKDO    O518072   5.413   0.991   7.252
    2AKDO    C718073   5.611   1.137   7.036
    2AKDO    H718074   5.673   1.101   7.122
    2AKDO    O718075   5.563   1.270   7.061
    2AKDO   HO718076   5.496   1.285   6.993
    2AKDO    C818077   5.700   1.136   6.912
    2AKDO   H8118078   5.729   1.032   6.888
    2AKDO   H8218079   5.640   1.173   6.826
    2AKDO    O818080   5.820   1.214   6.921
    2AKDO   HO818081   5.867   1.186   6.841
    3AKDO    C118082   4.965   1.009   6.993
    3AKDO   O1118083   5.041   1.087   6.931
    3AKDO   O1218084   4.838   1.017   6.997
    3AKDO    C218085   5.027   0.913   7.103
    3AKDO    C618086   5.044   0.679   7.165
    3AKDO    H618087   5.152   0.697   7.186
    3AKDO    O618088   5.001   0.775   7.065
    3AKDO    C318089   4.956   0.938   7.237
    3AKDO   H3118090   4.846   0.929   7.222
    3AKDO   H3218091   4.976   1.042   7.269
    3AKDO    C418092   4.997   0.842   7.345
    3AKDO    H418093   5.106   0.850   7.365
    3AKDO    O418094   4.928   0.876   7.465
    3AKDO   HO418095   4.983   0.935   7.516
    3AKDO    C518096   4.968   0.701   7.295
    3AKDO    H518097   5.003   0.629   7.372
    3AKDO    O518098   4.828   0.678   7.273
    3AKDO   HO518099   4.815   0.693   7.179
    3AKDO    C718100   5.032   0.535   7.115
    3AKDO    H718101   4.926   0.503   7.116
    3AKDO    O718102   5.109   0.448   7.200
    3AKDO   HO718103   5.157   0.398   7.134
    3AKDO    C818104   5.084   0.518   6.972
    3AKDO   H8118105   5.033   0.589   6.905
    3AKDO   H8218106   5.193   0.539   6.969
    3AKDO    O818107   5.060   0.384   6.927
    3AKDO   HO818108   4.977   0.389   6.878
    4AHEP    C118109   5.462   1.092   7.339
    4AHEP    H118110   5.557   1.130   7.294
    4AHEP    C518111   5.255   1.178   7.424
    4AHEP    H518112   5.207   1.090   7.375
    4AHEP    O518113   5.376   1.207   7.351
    4AHEP    C218114   5.499   1.042   7.478
    4AHEP    H218115   5.552   0.946   7.464
    4AHEP    O218116   5.590   1.128   7.547
    4AHEP   HO218117   5.537   1.174   7.613
    4AHEP    C318118   5.376   1.014   7.563
    4AHEP    H318119   5.319   0.930   7.517
    4AHEP    O318120   5.416   0.985   7.698
    4AHEP    C418121   5.290   1.139   7.568
    4AHEP    H418122   5.349   1.221   7.612
    4AHEP    O418123   5.170   1.114   7.644
    4AHEP    P418124   5.131   1.206   7.778
    4AHEP  OP4218125   5.008   1.140   7.840
    4AHEP  OP4318126   5.103   1.347   7.727
    4AHEP  OP4418127   5.253   1.206   7.868
    4AHEP    C618128   5.154   1.292   7.410
    4AHEP    H618129   5.056   1.256   7.448
    4AHEP    O618130   5.193   1.404   7.491
    4AHEP   HO618131   5.164   1.379   7.579
    4AHEP    C718132   5.135   1.338   7.266
    4AHEP   H7118133   5.054   1.414   7.260
    4AHEP   H7218134   5.103   1.251   7.204
    4AHEP    O718135   5.255   1.393   7.208
    4AHEP   HO718136   5.323   1.340   7.252
    5AHEP    C118137   5.367   0.865   7.752
    5AHEP    H118138   5.272   0.837   7.702
    5AHEP    C518139   5.589   0.787   7.804
    5AHEP    H518140   5.628   0.883   7.763
    5AHEP    O518141   5.462   0.759   7.740
    5AHEP    C218142   5.338   0.883   7.900
    5AHEP    H218143   5.275   0.974   7.911
    5AHEP    O218144   5.258   0.775   7.952
    5AHEP   HO218145   5.168   0.803   7.936
    5AHEP    C318146   5.466   0.910   7.977
    5AHEP    H318147   5.508   1.007   7.943
    5AHEP    O318148   5.446   0.910   8.120
    5AHEP    C418149   5.566   0.800   7.953
    5AHEP    H418150   5.520   0.706   7.991
    5AHEP    O418151   5.689   0.836   8.016
    5AHEP    P418152   5.763   0.737   8.123
    5AHEP  OP4218153   5.843   0.823   8.219
    5AHEP  OP4318154   5.844   0.639   8.040
    5AHEP  OP4418155   5.655   0.651   8.186
    5AHEP    C618156   5.686   0.677   7.763
    5AHEP    H618157   5.788   0.705   7.799
    5AHEP    O618158   5.646   0.553   7.822
    5AHEP   HO618159   5.602   0.516   7.745
    5AHEP    C718160   5.686   0.660   7.611
    5AHEP   H7118161   5.791   0.639   7.580
    5AHEP   H7218162   5.657   0.753   7.559
    5AHEP    O718163   5.607   0.546   7.571
    6AHEP    C118164   5.487   0.582   7.505
    6AHEP    H118165   5.459   0.688   7.523
    6AHEP    C518166   5.535   0.431   7.326
    6AHEP    H518167   5.632   0.404   7.373
    6AHEP    O518168   5.499   0.565   7.365
    6AHEP    C218169   5.378   0.492   7.556
    6AHEP    H218170   5.375   0.503   7.667
    6AHEP    O218171   5.248   0.531   7.509
    6AHEP   HO218172   5.246   0.527   7.413
    6AHEP    C318173   5.412   0.347   7.524
    6AHEP    H318174   5.510   0.322   7.570
    6AHEP    O318175   5.316   0.256   7.580
    6AHEP   HO318176   5.305   0.185   7.516
    6AHEP    C418177   5.428   0.333   7.374
    6AHEP    H418178   5.331   0.359   7.325
    6AHEP    O418179   5.462   0.200   7.339
    6AHEP   HO418180   5.438   0.186   7.247
    6AHEP    C618181   5.556   0.425   7.175
    6AHEP    H618182   5.578   0.321   7.145
    6AHEP    O618183   5.433   0.462   7.110
    6AHEP   HO618184   5.454   0.517   7.035
    6AHEP    C718185   5.675   0.509   7.130
    6AHEP   H7118186   5.688   0.495   7.020
    6AHEP   H7218187   5.766   0.468   7.179
    6AHEP    O718188   5.674   0.649   7.160
    6AHEP   HO718189   5.644   0.692   7.079
    7AGLC    C118190   5.424   1.036   8.174
    7AGLC    H118191   5.491   1.112   8.128
    7AGLC    C518192   5.195   0.983   8.215
    7AGLC    H518193   5.212   0.881   8.175
    7AGLC    O518194   5.288   1.076   8.158
    7AGLC    C218195   5.453   1.027   8.323
    7AGLC    H218196   5.438   1.128   8.366
    7AGLC    O218197   5.589   0.991   8.347
    7AGLC   HO218198   5.609   0.912   8.296
    7AGLC    C318199   5.359   0.930   8.394
    7AGLC    H318200   5.372   0.829   8.351
    7AGLC    O318201   5.380   0.927   8.538
    7AGLC    C418202   5.219   0.980   8.365
    7AGLC    H418203   5.216   1.086   8.398
    7AGLC    O418204   5.116   0.910   8.433
    7AGLC   HO418205   5.054   0.977   8.464
    7AGLC    C618206   5.056   1.027   8.174
    7AGLC   H6118207   5.051   1.031   8.063
    7AGLC   H6218208   4.981   0.953   8.207
    7AGLC    O618209   5.025   1.156   8.227
    7AGLC   HO618210   5.058   1.217   8.160
    8AGLC    C118211   5.402   0.797   8.590
    8AGLC    H118212   5.337   0.723   8.539
    8AGLC    C518213   5.633   0.847   8.635
    8AGLC    H518214   5.619   0.948   8.594
    8AGLC    O518215   5.539   0.757   8.575
    8AGLC    C218216   5.374   0.796   8.740
    8AGLC    H218217   5.394   0.693   8.778
    8AGLC    O218218   5.239   0.831   8.773
    8AGLC    C318219   5.466   0.891   8.814
    8AGLC    H318220   5.449   0.993   8.773
    8AGLC    O318221   5.425   0.894   8.954
    8AGLC    C418222   5.610   0.851   8.786
    8AGLC    H418223   5.628   0.748   8.823
    8AGLC    O418224   5.703   0.939   8.849
    8AGLC   HO418225   5.690   1.028   8.814
    8AGLC    C618226   5.772   0.798   8.594
    8AGLC   H6118227   5.769   0.762   8.490
    8AGLC   H6218228   5.843   0.884   8.595
    8AGLC    O618229   5.824   0.695   8.679
    8AGLC   HO618230   5.888   0.733   8.740
    9AGAL    C118231   5.136   0.744   8.730
    9AGAL    H118232   5.137   0.733   8.620
    9AGAL    C518233   5.146   0.619   8.932
    9AGAL    H518234   5.227   0.687   8.965
    9AGAL    O518235   5.147   0.614   8.789
    9AGAL    C218236   5.005   0.810   8.771
    9AGAL    H218237   4.921   0.746   8.736
    9AGAL    O218238   5.001   0.935   8.697
    9AGAL    C318239   4.998   0.817   8.924
    9AGAL    H318240   5.085   0.876   8.959
    9AGAL    O318241   4.881   0.881   8.972
    9AGAL   HO318242   4.891   0.975   8.954
    9AGAL    C418243   5.013   0.677   8.983
    9AGAL    H418244   5.019   0.685   9.094
    9AGAL    O418245   4.903   0.591   8.952
    9AGAL   HO418246   4.939   0.504   8.938
    9AGAL    C618247   5.183   0.482   8.986
    9AGAL   H6118248   5.281   0.451   8.944
    9AGAL   H6218249   5.196   0.488   9.097
    9AGAL    O618250   5.087   0.380   8.958
    9AGAL   HO618251   5.089   0.359   8.865
   10AGAL    C118252   4.929   1.049   8.740
   10AGAL    H118253   4.822   1.023   8.752
   10AGAL    C518254   5.119   1.142   8.855
   10AGAL    H518255   5.179   1.055   8.820
   10AGAL    O518256   4.981   1.101   8.865
   10AGAL    C218257   4.941   1.157   8.632
   10AGAL    H218258   4.884   1.245   8.667
   10AGAL    O218259   4.883   1.117   8.506
   10AGAL   HO218260   4.885   1.194   8.450
   10AGAL    C318261   5.088   1.199   8.618
   10AGAL    H318262   5.149   1.108   8.597
   10AGAL    O318263   5.112   1.292   8.512
   10AGAL   HO318264   5.092   1.254   8.426
   10AGAL    C418265   5.139   1.252   8.752
   10AGAL    H418266   5.247   1.274   8.742
   10AGAL    O418267   5.073   1.374   8.787
   10AGAL   HO418268   5.057   1.422   8.707
   10AGAL    C618269   5.172   1.175   8.995
   10AGAL   H6118270   5.160   1.087   9.061
   10AGAL   H6218271   5.281   1.197   8.987
   10AGAL    O618272   5.106   1.286   9.054
   10AGAL   HO618273   5.093   1.350   8.983
   11BGLC    C118274   5.497   0.821   9.051
   11BGLC    H118275   5.595   0.871   9.068
   11BGLC    C518276   5.596   0.610   9.104
   11BGLC    H518277   5.693   0.662   9.122
   11BGLC    O518278   5.516   0.685   9.011
   11BGLC    C218279   5.419   0.820   9.183
   11BGLC    H218280   5.322   0.771   9.165
   11BGLC    O218281   5.394   0.952   9.233
   11BGLC   HO218282   5.321   0.992   9.184
   11BGLC    C318283   5.495   0.741   9.288
   11BGLC    H318284   5.590   0.792   9.313
   11BGLC    O318285   5.414   0.724   9.406
   11BGLC    C418286   5.521   0.603   9.236
   11BGLC    H418287   5.425   0.550   9.219
   11BGLC    O418288   5.597   0.529   9.332
   11BGLC   HO418289   5.546   0.526   9.412
   11BGLC    C618290   5.626   0.475   9.040
   11BGLC   H6118291   5.667   0.406   9.117
   11BGLC   H6218292   5.533   0.430   9.000
   11BGLC    O618293   5.724   0.487   8.936
   11BGLC   HO618294   5.685   0.521   8.856
   12BGLCN   C118295   5.459   0.786   9.525
   12BGLCN   H118296   5.466   0.896   9.509
   12BGLCN   C518297   5.632   0.784   9.688
   12BGLCN   H518298   5.641   0.894   9.681
   12BGLCN   O518299   5.584   0.729   9.565
   12BGLCN   C218300   5.353   0.752   9.630
   12BGLCN   H218301   5.350   0.641   9.638
   12BGLCN    N18302   5.223   0.798   9.583
   12BGLCN   HN18303   5.223   0.877   9.523
   12BGLCN    C18304   5.106   0.736   9.601
   12BGLCN    O18305   5.091   0.637   9.674
   12BGLCN   CT18306   4.988   0.796   9.530
   12BGLCN  HT118307   4.900   0.798   9.598
   12BGLCN  HT218308   4.964   0.736   9.441
   12BGLCN  HT318309   5.011   0.900   9.498
   12BGLCN   C318310   5.395   0.808   9.766
   12BGLCN   H318311   5.400   0.919   9.759
   12BGLCN   O318312   5.301   0.770   9.870
   12BGLCN   C418313   5.532   0.752   9.799
   12BGLCN   H418314   5.524   0.641   9.808
   12BGLCN   O418315   5.583   0.801   9.924
   12BGLCN  HO418316   5.596   0.896   9.919
   12BGLCN   C618317   5.770   0.723   9.712
   12BGLCN  H6118318   5.795   0.724   9.819
   12BGLCN  H6218319   5.770   0.617   9.679
   12BGLCN   O618320   5.872   0.795   9.641
   12BGLCN  HO618321   5.869   0.771   9.549
   13AGAL    C118322   5.283   0.859   9.978
   13AGAL    H118323   5.378   0.913  10.002
   13AGAL    C518324   5.053   0.897   9.924
   13AGAL    H518325   5.067   0.823   9.841
   13AGAL    O518326   5.181   0.957   9.950
   13AGAL    C218327   5.238   0.784  10.103
   13AGAL    H218328   5.217   0.863  10.179
   13AGAL    O218329   5.341   0.699  10.160
   13AGAL    C318330   5.106   0.712  10.076
   13AGAL    H318331   5.121   0.646   9.988
   13AGAL    O318332   5.064   0.628  10.184
   13AGAL   HO318333   5.045   0.540  10.153
   13AGAL    C418334   5.002   0.817  10.043
   13AGAL    H418335   4.908   0.765  10.014
   13AGAL    O418336   4.971   0.902  10.155
   13AGAL   HO418337   5.052   0.944  10.186
   13AGAL    C618338   4.953   0.998   9.867
   13AGAL   H6118339   5.000   1.055   9.785
   13AGAL   H6218340   4.866   0.944   9.826
   13AGAL    O618341   4.906   1.090   9.966
   13AGAL   HO618342   4.909   1.043  10.050
   14ARHM    C118343   5.387   0.733  10.289
   14ARHM    H118344   5.390   0.843  10.299
   14ARHM    C518345   5.536   0.548  10.309
   14ARHM    H518346   5.507   0.510  10.209
   14ARHM    O518347   5.523   0.691  10.312
   14ARHM    C218348   5.294   0.674  10.394
   14ARHM    H218349   5.190   0.706  10.372
   14ARHM    O218350   5.319   0.713  10.531
   14ARHM    C318351   5.303   0.524  10.389
   14ARHM    H318352   5.276   0.489  10.287
   14ARHM    O318353   5.212   0.462  10.480
   14ARHM   HO318354   5.229   0.496  10.569
   14ARHM    C418355   5.447   0.483  10.415
   14ARHM    H418356   5.479   0.522  10.514
   14ARHM    O418357   5.464   0.342  10.417
   14ARHM   HO418358   5.392   0.305  10.469
   14ARHM    C618359   5.686   0.521  10.329
   14ARHM   H6118360   5.744   0.562  10.245
   14ARHM   H6218361   5.722   0.567  10.424
   14ARHM   H6318362   5.704   0.411  10.335
   15ARHM    C118363   5.306   0.850  10.556
   15ARHM    H118364   5.236   0.897  10.483
   15ARHM    C518365   5.528   0.864  10.642
   15ARHM    H518366   5.545   0.756  10.622
   15ARHM    O518367   5.434   0.916  10.549
   15ARHM    C218368   5.249   0.869  10.694
   15ARHM    H218369   5.151   0.817  10.700
   15ARHM    O218370   5.228   1.010  10.708
   15ARHM    C318371   5.343   0.809  10.796
   15ARHM    H318372   5.359   0.703  10.767
   15ARHM    O318373   5.287   0.812  10.929
   15ARHM    C418374   5.476   0.881  10.785
   15ARHM    H418375   5.458   0.990  10.800
   15ARHM    O418376   5.571   0.840  10.883
   15ARHM   HO418377   5.614   0.919  10.915
   15ARHM    C618378   5.660   0.937  10.613
   15ARHM   H6118379   5.742   0.897  10.676
   15ARHM   H6218380   5.688   0.925  10.506
   15ARHM   H6318381   5.649   1.046  10.634
   16BMANN   C118382   5.184   1.061  10.832
   16BMANN   H118383   5.264   1.048  10.908
   16BMANN   C518384   5.020   1.052  11.003
   16BMANN   H518385   5.100   1.034  11.078
   16BMANN   O518386   5.062   0.999  10.877
   16BMANN   C218387   5.163   1.209  10.807
   16BMANN   H218388   5.262   1.253  10.782
   16BMANN    N18389   5.071   1.237  10.696
   16BMANN   HN18390   4.973   1.231  10.715
   16BMANN    C18391   5.111   1.269  10.572
   16BMANN    O18392   5.229   1.274  10.539
   16BMANN   CT18393   5.003   1.297  10.472
   16BMANN  HT118394   5.012   1.401  10.436
   16BMANN  HT218395   4.902   1.283  10.517
   16BMANN  HT318396   5.014   1.227  10.386
   16BMANN   C318397   5.121   1.270  10.939
   16BMANN   H318398   5.203   1.250  11.012
   16BMANN   O318399   5.108   1.411  10.930
   16BMANN  HO318400   5.182   1.450  10.977
   16BMANN   C418401   4.995   1.202  10.991
   16BMANN   H418402   4.914   1.217  10.916
   16BMANN   O418403   4.952   1.258  11.114
   16BMANN  HO418404   4.946   1.353  11.102
   16BMANN   C618405   4.896   0.975  11.047
   16BMANN  H6118406   4.865   1.007  11.148
   16BMANN  H6218407   4.814   0.998  10.975
   16BMANN   O618408   4.919   0.834  11.047
   16BMANN  HO618409   4.984   0.816  10.978
   17BGLCN   C118410   5.306   0.693  10.998
   17BGLCN   H118411   5.407   0.653  10.977
   17BGLCN   C518412   5.229   0.470  11.033
   17BGLCN   H518413   5.330   0.432  11.003
   17BGLCN   O518414   5.206   0.595  10.967
   17BGLCN   C218415   5.296   0.723  11.147
   17BGLCN   H218416   5.190   0.750  11.168
   17BGLCN    N18417   5.376   0.839  11.180
   17BGLCN   HN18418   5.444   0.867  11.113
   17BGLCN    C18419   5.356   0.916  11.288
   17BGLCN    O18420   5.267   0.894  11.370
   17BGLCN   CT18421   5.453   1.030  11.307
   17BGLCN  HT118422   5.445   1.100  11.220
   17BGLCN  HT218423   5.557   0.992  11.314
   17BGLCN  HT318424   5.428   1.085  11.398
   17BGLCN   C318425   5.329   0.595  11.222
   17BGLCN   H318426   5.427   0.560  11.183
   17BGLCN   O318427   5.342   0.621  11.363
   17BGLCN   C418428   5.226   0.490  11.184
   17BGLCN   H418429   5.125   0.524  11.214
   17BGLCN   O418430   5.253   0.365  11.248
   17BGLCN  HO418431   5.194   0.353  11.321
   17BGLCN   C618432   5.127   0.370  10.981
   17BGLCN  H6118433   5.139   0.272  11.033
   17BGLCN  H6218434   5.025   0.408  11.005
   17BGLCN   O618435   5.137   0.349  10.839
   17BGLCN  HO618436   5.216   0.301  10.815
   18AGAL    C118437   5.430   0.537  11.437
   18AGAL    H118438   5.381   0.439  11.453
   18AGAL    C518439   5.631   0.637  11.352
   18AGAL    H518440   5.566   0.710  11.298
   18AGAL    O518441   5.555   0.515  11.370
   18AGAL    C218442   5.461   0.596  11.575
   18AGAL    H218443   5.529   0.522  11.621
   18AGAL    O218444   5.343   0.606  11.658
   18AGAL    C318445   5.536   0.727  11.559
   18AGAL    H318446   5.472   0.796  11.500
   18AGAL    O318447   5.562   0.794  11.683
   18AGAL   HO318448   5.561   0.889  11.669
   18AGAL    C418449   5.666   0.702  11.485
   18AGAL    H418450   5.715   0.799  11.464
   18AGAL    O418451   5.757   0.624  11.564
   18AGAL   HO418452   5.768   0.674  11.645
   18AGAL    C618453   5.748   0.614  11.259
   18AGAL   H6118454   5.711   0.578  11.161
   18AGAL   H6218455   5.801   0.710  11.241
   18AGAL    O618456   5.841   0.520  11.311
   18AGAL   HO618457   5.819   0.508  11.404
   19ARHM    C118458   5.372   0.578  11.793
   19ARHM    H118459   5.475   0.613  11.818
   19ARHM    C518460   5.241   0.380  11.811
   19ARHM    H518461   5.202   0.397  11.710
   19ARHM    O518462   5.372   0.438  11.824
   19ARHM    C218463   5.276   0.652  11.885
   19ARHM    H218464   5.267   0.755  11.846
   19ARHM    O218465   5.321   0.657  12.023
   19ARHM    C318466   5.137   0.593  11.877
   19ARHM    H318467   5.098   0.604  11.774
   19ARHM    O318468   5.048   0.662  11.965
   19ARHM   HO318469   5.095   0.676  12.048
   19ARHM    C418470   5.148   0.446  11.912
   19ARHM    H418471   5.197   0.438  12.012
   19ARHM    O418472   5.022   0.379  11.922
   19ARHM   HO418473   4.959   0.421  11.863
   19ARHM    C618474   5.256   0.228  11.832
   19ARHM   H6118475   5.324   0.186  11.753
   19ARHM   H6218476   5.299   0.207  11.932
   19ARHM   H6318477   5.158   0.177  11.822
   20ARHM    C118478   5.428   0.746  12.043
   20ARHM    H118479   5.437   0.817  11.957
   20ARHM    C518480   5.560   0.592  12.168
   20ARHM    H518481   5.481   0.514  12.158
   20ARHM    O518482   5.554   0.679  12.055
   20ARHM    C218483   5.397   0.825  12.168
   20ARHM    H218484   5.294   0.866  12.161
   20ARHM    O218485   5.489   0.934  12.183
   20ARHM    C318486   5.401   0.736  12.288
   20ARHM    H318487   5.324   0.658  12.277
   20ARHM    O318488   5.373   0.815  12.405
   20ARHM    C418489   5.537   0.671  12.297
   20ARHM    H418490   5.615   0.750  12.304
   20ARHM    O418491   5.551   0.590  12.415
   20ARHM   HO418492   5.584   0.503  12.390
   20ARHM    C618493   5.697   0.521  12.161
   20ARHM   H6118494   5.779   0.596  12.170
   20ARHM   H6218495   5.709   0.446  12.242
   20ARHM   H6318496   5.708   0.470  12.064
   21BMANN   C118497   5.459   1.049  12.109
   21BMANN   H118498   5.374   1.032  12.040
   21BMANN   C518499   5.552   1.209  11.957
   21BMANN   H518500   5.466   1.193  11.887
   21BMANN   O518501   5.574   1.089  12.033
   21BMANN   C218502   5.428   1.157  12.210
   21BMANN   H218503   5.336   1.125  12.263
   21BMANN    N18504   5.535   1.166  12.307
   21BMANN   HN18505   5.617   1.115  12.283
   21BMANN    C18506   5.529   1.229  12.425
   21BMANN    O18507   5.431   1.294  12.460
   21BMANN   CT18508   5.651   1.218  12.512
   21BMANN  HT118509   5.723   1.297  12.486
   21BMANN  HT218510   5.697   1.118  12.499
   21BMANN  HT318511   5.619   1.229  12.618
   21BMANN   C318512   5.397   1.284  12.133
   21BMANN   H318513   5.314   1.264  12.061
   21BMANN   O318514   5.350   1.387  12.218
   21BMANN  HO318515   5.379   1.368  12.308
   21BMANN   C418516   5.518   1.325  12.050
   21BMANN   H418517   5.605   1.340  12.118
   21BMANN   O418518   5.497   1.447  11.981
   21BMANN  HO418519   5.460   1.508  12.044
   21BMANN   C618520   5.675   1.234  11.871
   21BMANN  H6118521   5.654   1.312  11.797
   21BMANN  H6218522   5.758   1.269  11.936
   21BMANN   O618523   5.718   1.114  11.805
   21BMANN  HO618524   5.738   1.049  11.873
   22BGLCN   C118525   5.293   0.753  12.502
   22BGLCN   H118526   5.306   0.642  12.499
   22BGLCN   C518527   5.072   0.735  12.583
   22BGLCN   H518528   5.086   0.625  12.588
   22BGLCN   O518529   5.156   0.789  12.481
   22BGLCN   C218530   5.343   0.808  12.633
   22BGLCN   H218531   5.331   0.919  12.630
   22BGLCN    N18532   5.485   0.779  12.647
   22BGLCN   HN18533   5.517   0.700  12.595
   22BGLCN    C18534   5.575   0.855  12.708
   22BGLCN    O18535   5.550   0.963  12.762
   22BGLCN   CT18536   5.715   0.801  12.710
   22BGLCN  HT118537   5.780   0.861  12.641
   22BGLCN  HT218538   5.716   0.695  12.675
   22BGLCN  HT318539   5.755   0.806  12.812
   22BGLCN   C318540   5.257   0.755  12.746
   22BGLCN   H318541   5.265   0.644  12.745
   22BGLCN   O318542   5.312   0.804  12.870
   22BGLCN   C418543   5.113   0.794  12.718
   22BGLCN   H418544   5.106   0.904  12.711
   22BGLCN   O418545   5.022   0.752  12.819
   22BGLCN  HO418546   5.027   0.812  12.894
   22BGLCN   C618547   4.928   0.759  12.544
   22BGLCN  H6118548   4.860   0.712  12.618
   22BGLCN  H6218549   4.907   0.868  12.541
   22BGLCN   O618550   4.898   0.702  12.416
   22BGLCN  HO618551   4.949   0.749  12.352
   23AGAL    C118552   5.282   0.738  12.991
   23AGAL    H118553   5.176   0.760  13.019
   23AGAL    C518554   5.432   0.555  12.957
   23AGAL    H518555   5.465   0.600  12.860
   23AGAL    O518556   5.296   0.596  12.984
   23AGAL    C218557   5.371   0.791  13.102
   23AGAL    H218558   5.341   0.738  13.196
   23AGAL    O218559   5.352   0.932  13.123
   23AGAL    C318560   5.516   0.756  13.075
   23AGAL    H318561   5.546   0.803  12.979
   23AGAL    O318562   5.602   0.806  13.176
   23AGAL   HO318563   5.599   0.742  13.248
   23AGAL    C418564   5.528   0.605  13.065
   23AGAL    H418565   5.631   0.579  13.036
   23AGAL    O418566   5.502   0.542  13.191
   23AGAL   HO418567   5.456   0.461  13.168
   23AGAL    C618568   5.434   0.404  12.939
   23AGAL   H6118569   5.369   0.377  12.852
   23AGAL   H6218570   5.538   0.373  12.915
   23AGAL    O618571   5.391   0.331  13.054
   23AGAL   HO618572   5.455   0.261  13.071
   24ARHM    C118573   5.253   0.966  13.215
   24ARHM    H118574   5.180   0.883  13.224
   24ARHM    C518575   5.258   1.197  13.162
   24ARHM    H518576   5.337   1.179  13.086
   24ARHM    O518577   5.177   1.080  13.175
   24ARHM    C218578   5.318   0.990  13.349
   24ARHM    H218579   5.382   0.903  13.375
   24ARHM    O218580   5.217   1.009  13.450
   24ARHM    C318581   5.407   1.112  13.342
   24ARHM    H318582   5.487   1.094  13.266
   24ARHM    O318583   5.471   1.135  13.467
   24ARHM   HO318584   5.517   1.219  13.460
   24ARHM    C418585   5.323   1.230  13.297
   24ARHM    H418586   5.243   1.247  13.371
   24ARHM    O418587   5.400   1.351  13.290
   24ARHM   HO418588   5.396   1.388  13.201
   24ARHM    C618589   5.163   1.305  13.109
   24ARHM   H6118590   5.216   1.400  13.088
   24ARHM   H6218591   5.116   1.270  13.015
   24ARHM   H6318592   5.081   1.326  13.182
   25ARHM    C118593   5.168   0.891  13.508
   25ARHM    H118594   5.179   0.807  13.436
   25ARHM    C518595   5.000   0.999  13.635
   25ARHM    H518596   5.034   1.098  13.599
   25ARHM    O518597   5.028   0.899  13.536
   25ARHM    C218598   5.251   0.861  13.630
   25ARHM    H218599   5.359   0.867  13.604
   25ARHM    O218600   5.222   0.731  13.682
   25ARHM    C318601   5.224   0.965  13.734
   25ARHM    H318602   5.254   1.064  13.694
   25ARHM    O318603   5.306   0.935  13.847
   25ARHM    C418604   5.075   0.966  13.765
   25ARHM    H418605   5.045   0.864  13.797
   25ARHM    O418606   5.041   1.057  13.870
   25ARHM   HO418607   4.947   1.078  13.863
   25ARHM    C618608   4.847   1.004  13.649
   25ARHM   H6118609   4.801   1.022  13.550
   25ARHM   H6218610   4.808   0.907  13.687
   25ARHM   H6318611   4.815   1.086  13.717
   26BMANN   C118612   5.286   0.623  13.618
   26BMANN   H118613   5.387   0.653  13.582
   26BMANN   C518614   5.265   0.457  13.446
   26BMANN   H518615   5.367   0.486  13.412
   26BMANN   O518616   5.205   0.572  13.512
   26BMANN   C218617   5.298   0.516  13.724
   26BMANN   H218618   5.368   0.559  13.800
   26BMANN    N18619   5.173   0.486  13.794
   26BMANN   HN18620   5.088   0.499  13.742
   26BMANN    C18621   5.169   0.442  13.920
   26BMANN    O18622   5.272   0.424  13.985
   26BMANN   CT18623   5.034   0.414  13.979
   26BMANN  HT118624   4.954   0.469  13.925
   26BMANN  HT218625   5.033   0.444  14.086
   26BMANN  HT318626   5.012   0.305  13.974
   26BMANN   C318627   5.364   0.394  13.663
   26BMANN   H318628   5.463   0.423  13.624
   26BMANN   O318629   5.387   0.294  13.763
   26BMANN  HO318630   5.351   0.327  13.846
   26BMANN   C418631   5.280   0.344  13.547
   26BMANN   H418632   5.179   0.315  13.585
   26BMANN   O418633   5.337   0.229  13.484
   26BMANN  HO418634   5.322   0.154  13.543
   26BMANN   C618635   5.186   0.421  13.321
   26BMANN  H6118636   5.193   0.505  13.248
   26BMANN  H6218637   5.232   0.333  13.273
   26BMANN   O618638   5.047   0.394  13.345
   26BMANN  HO618639   5.037   0.341  13.425
   27BGLCN   C118640   5.345   1.044  13.927
   27BGLCN   H118641   5.273   1.128  13.918
   27BGLCN   C518642   5.523   1.192  13.984
   27BGLCN   H518643   5.451   1.276  13.981
   27BGLCN   O518644   5.478   1.087  13.895
   27BGLCN   C218645   5.343   0.985  14.066
   27BGLCN   H218646   5.417   0.901  14.068
   27BGLCN    N18647   5.210   0.932  14.095
   27BGLCN   HN18648   5.136   0.976  14.045
   27BGLCN    C18649   5.185   0.821  14.165
   27BGLCN    O18650   5.273   0.751  14.215
   27BGLCN   CT18651   5.040   0.783  14.179
   27BGLCN  HT118652   4.975   0.850  14.120
   27BGLCN  HT218653   5.010   0.788  14.286
   27BGLCN  HT318654   5.026   0.678  14.144
   27BGLCN   C318655   5.390   1.089  14.165
   27BGLCN   H318656   5.320   1.175  14.155
   27BGLCN   O318657   5.377   1.033  14.298
   27BGLCN   C418658   5.528   1.138  14.127
   27BGLCN   H418659   5.599   1.053  14.130
   27BGLCN   O418660   5.577   1.239  14.214
   27BGLCN  HO418661   5.507   1.303  14.231
   27BGLCN   C618662   5.656   1.242  13.930
   27BGLCN  H6118663   5.711   1.297  14.010
   27BGLCN  H6218664   5.721   1.157  13.899
   27BGLCN   O618665   5.640   1.334  13.821
   27BGLCN  HO618666   5.624   1.284  13.739
   28AGAL    C118667   5.379   1.123  14.407
   28AGAL    H118668   5.483   1.156  14.426
   28AGAL    C518669   5.157   1.204  14.365
   28AGAL    H518670   5.147   1.130  14.283
   28AGAL    O518671   5.296   1.238  14.380
   28AGAL    C218672   5.330   1.058  14.536
   28AGAL    H218673   5.332   1.142  14.609
   28AGAL    O218674   5.412   0.950  14.586
   28AGAL    C318675   5.186   1.014  14.519
   28AGAL    H318676   5.181   0.945  14.432
   28AGAL    O318677   5.138   0.941  14.633
   28AGAL   HO318678   5.164   0.849  14.623
   28AGAL    C418679   5.101   1.136  14.490
   28AGAL    H418680   4.998   1.101  14.467
   28AGAL    O418681   5.091   1.226  14.600
   28AGAL   HO418682   5.034   1.185  14.666
   28AGAL    C618683   5.081   1.328  14.321
   28AGAL   H6118684   5.122   1.364  14.222
   28AGAL   H6218685   4.974   1.304  14.304
   28AGAL    O618686   5.090   1.435  14.415
   28AGAL   HO618687   5.102   1.392  14.500
   29ARHM    C118688   5.445   0.965  14.723
   29ARHM    H118689   5.367   1.027  14.773
   29ARHM    C518690   5.680   0.952  14.680
   29ARHM    H518691   5.661   0.939  14.571
   29ARHM    O518692   5.573   1.028  14.738
   29ARHM    C218693   5.447   0.831  14.793
   29ARHM    H218694   5.350   0.781  14.774
   29ARHM    O218695   5.466   0.848  14.936
   29ARHM    C318696   5.556   0.744  14.735
   29ARHM    H318697   5.535   0.726  14.628
   29ARHM    O318698   5.561   0.617  14.801
   29ARHM   HO318699   5.652   0.587  14.790
   29ARHM    C418700   5.689   0.816  14.748
   29ARHM    H418701   5.710   0.835  14.855
   29ARHM    O418702   5.796   0.737  14.696
   29ARHM   HO418703   5.778   0.716  14.604
   29ARHM    C618704   5.806   1.038  14.699
   29ARHM   H6118705   5.793   1.136  14.649
   29ARHM   H6218706   5.824   1.054  14.808
   29ARHM   H6318707   5.894   0.987  14.655
   30ARHM    C118708   5.347   0.844  15.012
   30ARHM    H118709   5.289   0.754  14.984
   30ARHM    C518710   5.329   1.083  15.031
   30ARHM    H518711   5.422   1.099  14.973
   30ARHM    O518712   5.265   0.961  14.992
   30ARHM    C218713   5.384   0.836  15.159
   30ARHM    H218714   5.454   0.750  15.173
   30ARHM    O218715   5.267   0.818  15.239
   30ARHM    C318716   5.456   0.961  15.203
   30ARHM    H318717   5.545   0.973  15.138
   30ARHM    O318718   5.507   0.948  15.337
   30ARHM    C418719   5.366   1.081  15.179
   30ARHM    H418720   5.272   1.073  15.238
   30ARHM    O418721   5.433   1.201  15.215
   30ARHM   HO418722   5.435   1.206  15.311
   30ARHM    C618723   5.231   1.196  14.995
   30ARHM   H6118724   5.274   1.295  15.020
   30ARHM   H6218725   5.209   1.194  14.886
   30ARHM   H6318726   5.136   1.184  15.051
   31BMANN   C118727   5.231   0.685  15.265
   31BMANN   H118728   5.320   0.622  15.282
   31BMANN   C518729   5.108   0.497  15.184
   31BMANN   H518730   5.200   0.438  15.202
   31BMANN   O518731   5.149   0.633  15.159
   31BMANN   C218732   5.144   0.690  15.389
   31BMANN   H218733   5.207   0.727  15.473
   31BMANN    N18734   5.037   0.788  15.371
   31BMANN   HN18735   5.037   0.830  15.281
   31BMANN    C18736   4.949   0.831  15.462
   31BMANN    O18737   4.941   0.784  15.575
   31BMANN   CT18738   4.857   0.941  15.418
   31BMANN  HT118739   4.791   0.906  15.335
   31BMANN  HT218740   4.916   1.029  15.384
   31BMANN  HT318741   4.793   0.973  15.503
   31BMANN   C318742   5.103   0.548  15.423
   31BMANN   H318743   5.195   0.486  15.432
   31BMANN   O318744   5.039   0.537  15.550
   31BMANN  HO318745   5.001   0.623  15.572
   31BMANN   C418746   5.022   0.490  15.309
   31BMANN   H418747   4.930   0.551  15.294
   31BMANN   O418748   4.981   0.356  15.336
   31BMANN  HO418749   4.955   0.354  15.429
   31BMANN   C618750   5.041   0.440  15.060
   31BMANN  H6118751   5.006   0.337  15.080
   31BMANN  H6218752   4.953   0.502  15.034
   31BMANN   O618753   5.129   0.436  14.947
   31BMANN  HO618754   5.208   0.384  14.965
   32BGLCN   C118755   5.420   0.977  15.444
   32BGLCN   H118756   5.318   0.939  15.422
   32BGLCN   C518757   5.317   1.147  15.575
   32BGLCN   H518758   5.217   1.110  15.544
   32BGLCN   O518759   5.412   1.117  15.471
   32BGLCN   C218760   5.472   0.907  15.568
   32BGLCN   H218761   5.564   0.961  15.598
   32BGLCN    N18762   5.508   0.768  15.539
   32BGLCN   HN18763   5.453   0.719  15.472
   32BGLCN    C18764   5.620   0.709  15.584
   32BGLCN    O18765   5.696   0.761  15.666
   32BGLCN   CT18766   5.648   0.572  15.530
   32BGLCN  HT118767   5.618   0.567  15.423
   32BGLCN  HT218768   5.593   0.495  15.588
   32BGLCN  HT318769   5.757   0.552  15.536
   32BGLCN   C318770   5.369   0.927  15.677
   32BGLCN   H318771   5.271   0.891  15.637
   32BGLCN   O318772   5.397   0.854  15.798
   32BGLCN   C418773   5.358   1.076  15.703
   32BGLCN   H418774   5.457   1.115  15.735
   32BGLCN   O418775   5.264   1.104  15.806
   32BGLCN  HO418776   5.309   1.094  15.891
   32BGLCN   C618777   5.307   1.298  15.587
   32BGLCN  H6118778   5.231   1.326  15.663
   32BGLCN  H6218779   5.405   1.338  15.621
   32BGLCN   O618780   5.274   1.360  15.462
   32BGLCN  HO618781   5.186   1.337  15.433
   33AGAL    C118782   5.282   0.793  15.853
   33AGAL    H118783   5.193   0.858  15.840
   33AGAL    C518784   5.362   0.571  15.814
   33AGAL    H518785   5.457   0.612  15.773
   33AGAL    O518786   5.257   0.666  15.791
   33AGAL    C218787   5.300   0.770  16.002
   33AGAL    H218788   5.208   0.719  16.037
   33AGAL    O218789   5.309   0.896  16.072
   33AGAL    C318790   5.418   0.678  16.027
   33AGAL    H318791   5.508   0.722  15.979
   33AGAL    O318792   5.450   0.663  16.166
   33AGAL   HO318793   5.396   0.590  16.197
   33AGAL    C418794   5.387   0.545  15.963
   33AGAL    H418795   5.476   0.478  15.973
   33AGAL    O418796   5.276   0.480  16.022
   33AGAL   HO418797   5.231   0.433  15.951
   33AGAL    C618798   5.331   0.444  15.736
   33AGAL   H6118799   5.337   0.465  15.627
   33AGAL   H6218800   5.406   0.366  15.759
   33AGAL    O618801   5.201   0.392  15.765
   33AGAL   HO618802   5.136   0.437  15.710
   34ARHM    C118803   5.238   0.897  16.194
   34ARHM    H118804   5.262   0.806  16.252
   34ARHM    C518805   5.053   1.017  16.101
   34ARHM    H518806   5.097   1.016  15.999
   34ARHM    O518807   5.095   0.901  16.174
   34ARHM    C218808   5.282   1.019  16.270
   34ARHM    H218809   5.393   1.016  16.279
   34ARHM    O218810   5.226   1.027  16.402
   34ARHM    C318811   5.246   1.144  16.191
   34ARHM    H318812   5.293   1.138  16.091
   34ARHM    O318813   5.295   1.262  16.254
   34ARHM   HO318814   5.371   1.294  16.204
   34ARHM    C418815   5.095   1.145  16.172
   34ARHM    H418816   5.045   1.148  16.272
   34ARHM    O418817   5.052   1.259  16.097
   34ARHM   HO418818   5.045   1.335  16.156
   34ARHM    C618819   4.900   1.002  16.087
   34ARHM   H6118820   4.852   1.003  16.188
   34ARHM   H6218821   4.858   1.087  16.028
   34ARHM   H6318822   4.875   0.907  16.037
   35ARHM    C118823   5.262   0.926  16.492
   35ARHM    H118824   5.367   0.895  16.475
   35ARHM    C518825   5.038   0.842  16.506
   35ARHM    H518826   5.004   0.914  16.428
   35ARHM    O518827   5.176   0.811  16.484
   35ARHM    C218828   5.248   0.985  16.631
   35ARHM    H218829   5.312   1.076  16.637
   35ARHM    O218830   5.285   0.894  16.736
   35ARHM    C318831   5.104   1.027  16.654
   35ARHM    H318832   5.074   1.098  16.574
   35ARHM    O318833   5.087   1.098  16.777
   35ARHM   HO318834   5.148   1.065  16.844
   35ARHM    C418835   5.016   0.904  16.644
   35ARHM    H418836   5.047   0.830  16.720
   35ARHM    O418837   4.879   0.936  16.665
   35ARHM   HO418838   4.877   1.004  16.733
   35ARHM    C618839   4.961   0.711  16.486
   35ARHM   H6118840   4.977   0.672  16.383
   35ARHM   H6218841   4.997   0.635  16.559
   35ARHM   H6318842   4.852   0.727  16.502
   36BMANN   C118843   5.420   0.856  16.738
   36BMANN   H118844   5.483   0.941  16.702
   36BMANN   C518845   5.585   0.702  16.660
   36BMANN   H518846   5.640   0.789  16.617
   36BMANN   O518847   5.446   0.738  16.659
   36BMANN   C218848   5.456   0.825  16.882
   36BMANN   H218849   5.436   0.916  16.942
   36BMANN    N18850   5.371   0.719  16.936
   36BMANN   HN18851   5.318   0.668  16.869
   36BMANN    C18852   5.355   0.688  17.065
   36BMANN    O18853   5.414   0.747  17.156
   36BMANN   CT18854   5.259   0.576  17.095
   36BMANN  HT118855   5.269   0.496  17.019
   36BMANN  HT218856   5.155   0.615  17.094
   36BMANN  HT318857   5.281   0.534  17.196
   36BMANN   C318858   5.605   0.796  16.886
   36BMANN   H318859   5.658   0.883  16.843
   36BMANN   O318860   5.652   0.783  17.020
   36BMANN  HO318861   5.578   0.761  17.076
   36BMANN   C418862   5.635   0.675  16.801
   36BMANN   H418863   5.585   0.585  16.843
   36BMANN   O418864   5.776   0.652  16.797
   36BMANN  HO418865   5.803   0.627  16.885
   36BMANN   C618866   5.607   0.585  16.564
   36BMANN  H6118867   5.547   0.600  16.472
   36BMANN  H6218868   5.714   0.584  16.533
   36BMANN   O618869   5.577   0.457  16.621
   36BMANN  HO618870   5.657   0.405  16.617
    1ECLIP HB6S18871   3.543   7.248   6.650
    1ECLIP  OB618872   3.707   7.274   6.776
    1ECLIP  CB618873   3.612   7.329   6.681
    1ECLIP HB6R18874   3.550   7.408   6.729
    1ECLIP  CB518875   3.676   7.388   6.556
    1ECLIP  OB518876   3.755   7.283   6.500
    1ECLIP  HB518877   3.742   7.472   6.585
    1ECLIP  CB118878   3.827   7.325   6.384
    1ECLIP  HB118879   3.891   7.412   6.411
    1ECLIP  OA618880   3.910   7.223   6.335
    1ECLIP  CA618881   3.861   7.090   6.359
    1ECLIP HA6R18882   3.750   7.086   6.351
    1ECLIP HA6S18883   3.887   7.061   6.464
    1ECLIP  CB418884   3.573   7.435   6.451
    1ECLIP  HB418885   3.506   7.349   6.429
    1ECLIP  OB418886   3.502   7.543   6.510
    1ECLIP   PB18887   3.343   7.572   6.500
    1ECLIP OPB418888   3.323   7.713   6.551
    1ECLIP OPB318889   3.264   7.465   6.575
    1ECLIP OPB218890   3.298   7.553   6.358
    1ECLIP  CB318891   3.644   7.480   6.323
    1ECLIP  OB318892   3.552   7.501   6.217
    1ECLIP  HB318893   3.707   7.569   6.342
    1ECLIP  C7118894   3.505   7.618   6.181
    1ECLIP  O7118895   3.542   7.729   6.219
    1ECLIP  C7218896   3.442   7.604   6.044
    1ECLIP H72R18897   3.518   7.565   5.973
    1ECLIP H72S18898   3.410   7.706   6.011
    1ECLIP  CB218899   3.731   7.365   6.275
    1ECLIP  HB218900   3.663   7.278   6.260
    1ECLIP  NB218901   3.801   7.393   6.149
    1ECLIP HNB218902   3.874   7.461   6.151
    1ECLIP  CA418903   4.043   7.052   6.188
    1ECLIP  HA418904   4.008   7.141   6.132
    1ECLIP  OA418905   4.141   7.095   6.283
    1ECLIP HOA418906   4.096   7.157   6.339
    1ECLIP  CA518907   3.924   6.992   6.260
    1ECLIP  HA518908   3.956   6.900   6.315
    1ECLIP  OA518909   3.822   6.956   6.167
    1ECLIP  CA118910   3.866   6.865   6.063
    1ECLIP  HA118911   3.782   6.855   5.992
    1ECLIP  OA118912   3.902   6.737   6.113
    1ECLIP OPA218913   3.758   6.675   6.316
    1ECLIP OPA318914   3.660   6.646   6.103
    1ECLIP OPA418915   3.848   6.493   6.167
    1ECLIP   PA18916   3.792   6.634   6.174
    1ECLIP  CA318917   4.097   6.955   6.084
    1ECLIP  HA318918   4.119   6.859   6.136
    1ECLIP  OA318919   4.225   7.004   6.043
    1ECLIP  C3118920   4.248   7.069   5.929
    1ECLIP  O3118921   4.259   7.012   5.822
    1ECLIP  C3218922   4.356   7.171   5.970
    1ECLIP H32R18923   4.432   7.172   5.889
    1ECLIP H32S18924   4.406   7.136   6.063
    1ECLIP  CA218925   3.983   6.926   5.985
    1ECLIP  HA218926   3.949   7.025   5.946
    1ECLIP  NA218927   4.019   6.846   5.870
    1ECLIP HNA218928   4.105   6.796   5.874
    1ECLIP  C7318929   3.319   7.514   6.047
    1ECLIP H73R18930   3.260   7.534   6.139
    1ECLIP  O7318931   3.364   7.379   6.036
    1ECLIP  C8118932   3.312   7.288   6.115
    1ECLIP  O8118933   3.237   7.308   6.210
    1ECLIP  C8218934   3.354   7.148   6.064
    1ECLIP H82R18935   3.283   7.074   6.106
    1ECLIP H82S18936   3.456   7.128   6.105
    1ECLIP  C8318937   3.359   7.136   5.910
    1ECLIP H83R18938   3.436   7.206   5.872
    1ECLIP H83S18939   3.262   7.165   5.865
    1ECLIP  C8418940   3.396   6.995   5.859
    1ECLIP H84R18941   3.310   6.926   5.874
    1ECLIP H84S18942   3.482   6.956   5.917
    1ECLIP  C8518943   3.435   6.997   5.712
    1ECLIP H85R18944   3.528   7.057   5.703
    1ECLIP H85S18945   3.356   7.048   5.653
    1ECLIP  C8618946   3.464   6.859   5.648
    1ECLIP H86R18947   3.368   6.804   5.638
    1ECLIP H86S18948   3.530   6.802   5.716
    1ECLIP  C8718949   3.533   6.868   5.510
    1ECLIP H87R18950   3.541   6.765   5.467
    1ECLIP H87S18951   3.636   6.907   5.525
    1ECLIP  C8818952   3.460   6.959   5.410
    1ECLIP H88R18953   3.461   7.062   5.451
    1ECLIP H88S18954   3.354   6.927   5.400
    1ECLIP  C8918955   3.524   6.966   5.270
    1ECLIP H89R18956   3.635   6.963   5.280
    1ECLIP H89S18957   3.497   7.065   5.227
    1ECLIP C81018958   3.476   6.858   5.172
    1ECLIPH810R18959   3.365   6.851   5.176
    1ECLIPH810S18960   3.516   6.760   5.207
    1ECLIP C81118961   3.521   6.883   5.028
    1ECLIPH811R18962   3.497   6.793   4.966
    1ECLIPH811S18963   3.631   6.897   5.028
    1ECLIP C81218964   3.458   7.006   4.958
    1ECLIPH812R18965   3.505   7.019   4.858
    1ECLIPH812S18966   3.482   7.097   5.017
    1ECLIP C81318967   3.306   7.000   4.940
    1ECLIPH813R18968   3.281   6.914   4.875
    1ECLIPH813S18969   3.258   6.983   5.039
    1ECLIP C81418970   3.248   7.129   4.880
    1ECLIPH814R18971   3.293   7.150   4.781
    1ECLIPH814S18972   3.269   7.215   4.947
    1ECLIPH814T18973   3.138   7.120   4.870
    1ECLIP  C7418974   3.222   7.541   5.931
    1ECLIP H74R18975   3.186   7.646   5.938
    1ECLIP H74S18976   3.134   7.475   5.943
    1ECLIP  C7518977   3.279   7.516   5.789
    1ECLIP H75R18978   3.193   7.496   5.722
    1ECLIP H75S18979   3.343   7.426   5.789
    1ECLIP  C7618980   3.355   7.635   5.729
    1ECLIP H76R18981   3.450   7.656   5.785
    1ECLIP H76S18982   3.292   7.726   5.735
    1ECLIP  C7718983   3.390   7.609   5.583
    1ECLIP H77R18984   3.296   7.579   5.531
    1ECLIP H77S18985   3.460   7.523   5.577
    1ECLIP  C7818986   3.450   7.731   5.511
    1ECLIP H78R18987   3.373   7.811   5.510
    1ECLIP H78S18988   3.537   7.769   5.568
    1ECLIP  C7918989   3.493   7.700   5.367
    1ECLIP H79R18990   3.587   7.640   5.370
    1ECLIP H79S18991   3.517   7.796   5.316
    1ECLIP C71018992   3.390   7.622   5.286
    1ECLIPH710R18993   3.372   7.523   5.332
    1ECLIPH710S18994   3.294   7.678   5.286
    1ECLIP C71118995   3.437   7.600   5.142
    1ECLIPH711R18996   3.457   7.700   5.099
    1ECLIPH711S18997   3.532   7.543   5.143
    1ECLIP C71218998   3.334   7.524   5.058
    1ECLIPH712R18999   3.238   7.580   5.058
    1ECLIPH712S19000   3.316   7.424   5.104
    1ECLIP C71319001   3.380   7.505   4.913
    1ECLIPH713R19002   3.475   7.446   4.913
    1ECLIPH713S19003   3.304   7.446   4.858
    1ECLIP C71419004   3.404   7.637   4.840
    1ECLIPH714R19005   3.309   7.695   4.832
    1ECLIPH714S19006   3.479   7.700   4.893
    1ECLIPH714T19007   3.443   7.618   4.738
    1ECLIP  C5119008   3.775   7.330   6.033
    1ECLIP  O5119009   3.688   7.244   6.025
    1ECLIP  C5219010   3.860   7.369   5.914
    1ECLIP H52R19011   3.857   7.479   5.901
    1ECLIP H52S19012   3.965   7.339   5.936
    1ECLIP  C5319013   3.814   7.300   5.783
    1ECLIP H53R19014   3.808   7.190   5.799
    1ECLIP  O5319015   3.904   7.336   5.679
    1ECLIP  C6119016   3.996   7.246   5.643
    1ECLIP  O6119017   4.030   7.151   5.710
    1ECLIP  C6219018   4.083   7.313   5.535
    1ECLIP H62R19019   4.148   7.388   5.584
    1ECLIP H62S19020   4.013   7.365   5.465
    1ECLIP  C6319021   4.176   7.221   5.454
    1ECLIP H63R19022   4.113   7.149   5.398
    1ECLIP H63S19023   4.241   7.162   5.523
    1ECLIP  C6419024   4.264   7.297   5.353
    1ECLIP H64R19025   4.322   7.223   5.293
    1ECLIP H64S19026   4.338   7.359   5.408
    1ECLIP  C6519027   4.184   7.387   5.259
    1ECLIP H65R19028   4.139   7.469   5.319
    1ECLIP H65S19029   4.100   7.329   5.214
    1ECLIP  C6619030   4.266   7.454   5.148
    1ECLIP H66R19031   4.349   7.511   5.194
    1ECLIP H66S19032   4.200   7.527   5.095
    1ECLIP  C6719033   4.325   7.360   5.040
    1ECLIP H67R19034   4.410   7.303   5.085
    1ECLIP H67S19035   4.366   7.421   4.958
    1ECLIP  C6819036   4.223   7.261   4.984
    1ECLIP H68R19037   4.130   7.314   4.955
    1ECLIP H68S19038   4.196   7.190   5.065
    1ECLIP  C6919039   4.274   7.179   4.865
    1ECLIP H69R19040   4.384   7.169   4.870
    1ECLIP H69S19041   4.248   7.232   4.770
    1ECLIP C61019042   4.213   7.038   4.867
    1ECLIPH610R19043   4.104   7.048   4.888
    1ECLIPH610S19044   4.259   6.982   4.951
    1ECLIP C61119045   4.227   6.957   4.738
    1ECLIPH611R19046   4.331   6.965   4.700
    1ECLIPH611S19047   4.210   6.850   4.762
    1ECLIP C61219048   4.125   7.000   4.632
    1ECLIPH612R19049   4.022   6.988   4.671
    1ECLIPH612S19050   4.139   7.107   4.608
    1ECLIPH612T19051   4.135   6.939   4.540
    1ECLIP  C5419052   3.676   7.351   5.736
    1ECLIP H54R19053   3.679   7.462   5.723
    1ECLIP H54S19054   3.600   7.328   5.814
    1ECLIP  C5519055   3.630   7.286   5.604
    1ECLIP H55R19056   3.519   7.284   5.601
    1ECLIP H55S19057   3.666   7.181   5.604
    1ECLIP  C5619058   3.682   7.355   5.478
    1ECLIP H56R19059   3.789   7.380   5.488
    1ECLIP H56S19060   3.628   7.452   5.464
    1ECLIP  C5719061   3.665   7.268   5.355
    1ECLIP H57R19062   3.556   7.260   5.332
    1ECLIP H57S19063   3.703   7.166   5.377
    1ECLIP  C5819064   3.740   7.324   5.235
    1ECLIP H58R19065   3.714   7.431   5.224
    1ECLIP H58S19066   3.850   7.318   5.253
    1ECLIP  C5919067   3.704   7.251   5.106
    1ECLIP H59R19068   3.594   7.258   5.092
    1ECLIP H59S19069   3.731   7.143   5.115
    1ECLIP C51019070   3.774   7.313   4.986
    1ECLIPH510R19071   3.884   7.311   5.003
    1ECLIPH510S19072   3.742   7.419   4.978
    1ECLIP C51119073   3.741   7.241   4.854
    1ECLIPH511R19074   3.790   7.142   4.854
    1ECLIPH511S19075   3.631   7.225   4.848
    1ECLIP C51219076   3.785   7.323   4.733
    1ECLIPH512R19077   3.765   7.263   4.641
    1ECLIPH512S19078   3.724   7.415   4.727
    1ECLIP C51319079   3.933   7.363   4.736
    1ECLIPH513R19080   3.995   7.271   4.741
    1ECLIPH513S19081   3.954   7.422   4.828
    1ECLIP C51419082   3.972   7.447   4.616
    1ECLIPH514R19083   3.914   7.542   4.615
    1ECLIPH514S19084   4.080   7.472   4.618
    1ECLIPH514T19085   3.950   7.392   4.523
    1ECLIP  C3319086   4.304   7.314   5.993
    1ECLIP H33R19087   4.387   7.377   6.033
    1ECLIP  O3319088   4.200   7.311   6.089
    1ECLIP HO3319089   4.213   7.250   6.162
    1ECLIP  C3419090   4.251   7.379   5.865
    1ECLIP H34R19091   4.163   7.320   5.832
    1ECLIP H34S19092   4.329   7.371   5.785
    1ECLIP  C3519093   4.208   7.527   5.878
    1ECLIP H35R19094   4.298   7.591   5.888
    1ECLIP H35S19095   4.144   7.536   5.969
    1ECLIP  C3619096   4.127   7.576   5.759
    1ECLIP H36R19097   4.055   7.495   5.736
    1ECLIP H36S19098   4.193   7.591   5.670
    1ECLIP  C3719099   4.038   7.699   5.780
    1ECLIP H37R19100   4.099   7.792   5.773
    1ECLIP H37S19101   3.994   7.697   5.882
    1ECLIP  C3819102   3.924   7.702   5.677
    1ECLIP H38R19103   3.849   7.624   5.703
    1ECLIP H38S19104   3.872   7.800   5.682
    1ECLIP  C3919105   3.972   7.676   5.535
    1ECLIP H39R19106   4.011   7.572   5.528
    1ECLIP H39S19107   4.057   7.744   5.511
    1ECLIP C31019108   3.864   7.691   5.427
    1ECLIPH310R19109   3.827   7.796   5.426
    1ECLIPH310S19110   3.778   7.626   5.453
    1ECLIP C31119111   3.919   7.652   5.289
    1ECLIPH311R19112   4.019   7.697   5.278
    1ECLIPH311S19113   3.931   7.542   5.285
    1ECLIP C31219114   3.832   7.697   5.170
    1ECLIPH312R19115   3.733   7.646   5.176
    1ECLIPH312S19116   3.814   7.806   5.176
    1ECLIP C31319117   3.900   7.664   5.037
    1ECLIPH313R19118   3.996   7.720   5.031
    1ECLIPH313S19119   3.925   7.556   5.035
    1ECLIP C31419120   3.814   7.698   4.915
    1ECLIPH314R19121   3.791   7.806   4.913
    1ECLIPH314S19122   3.866   7.671   4.821
    1ECLIPH314T19123   3.718   7.642   4.919
    1ECLIP  C1119124   3.940   6.836   5.761
    1ECLIP  O1119125   3.841   6.905   5.745
    1ECLIP  C1219126   3.975   6.728   5.662
    1ECLIP H12R19127   3.904   6.644   5.679
    1ECLIP H12S19128   4.079   6.691   5.681
    1ECLIP  C1319129   3.961   6.778   5.518
    1ECLIP H13R19130   3.862   6.826   5.503
    1ECLIP  O1319131   3.968   6.664   5.434
    1ECLIP HO1319132   3.948   6.684   5.342
    1ECLIP  C1419133   4.073   6.876   5.476
    1ECLIP H14R19134   4.169   6.836   5.514
    1ECLIP H14S19135   4.055   6.973   5.526
    1ECLIP  C1519136   4.088   6.896   5.323
    1ECLIP H15R19137   4.113   6.798   5.278
    1ECLIP H15S19138   4.176   6.961   5.304
    1ECLIP  C1619139   3.965   6.955   5.252
    1ECLIP H16R19140   3.964   7.065   5.268
    1ECLIP H16S19141   3.871   6.916   5.295
    1ECLIP  C1719142   3.967   6.926   5.101
    1ECLIP H17R19143   4.072   6.936   5.066
    1ECLIP H17S19144   3.905   7.002   5.049
    1ECLIP  C1819145   3.915   6.786   5.068
    1ECLIP H18R19146   3.972   6.712   5.127
    1ECLIP H18S19147   3.808   6.778   5.097
    1ECLIP  C1919148   3.930   6.747   4.919
    1ECLIP H19R19149   3.901   6.641   4.908
    1ECLIP H19S19150   4.037   6.756   4.891
    1ECLIP C11019151   3.844   6.830   4.823
    1ECLIPH110R19152   3.738   6.828   4.856
    1ECLIPH110S19153   3.878   6.936   4.825
    1ECLIP C11119154   3.850   6.777   4.679
    1ECLIPH111R19155   3.957   6.766   4.649
    1ECLIPH111S19156   3.805   6.675   4.677
    1ECLIP C11219157   3.778   6.866   4.576
    1ECLIPH112R19158   3.672   6.879   4.608
    1ECLIPH112S19159   3.825   6.967   4.575
    1ECLIP C11319160   3.784   6.806   4.436
    1ECLIPH113R19161   3.891   6.785   4.411
    1ECLIPH113S19162   3.731   6.708   4.439
    1ECLIP C11419163   3.722   6.891   4.326
    1ECLIPH114R19164   3.619   6.921   4.353
    1ECLIPH114S19165   3.783   6.983   4.311
    1ECLIPH114T19166   3.719   6.835   4.230
    2AKDO    C119167   3.776   7.489   6.855
    2AKDO   O1119168   3.698   7.589   6.865
    2AKDO   O1219169   3.898   7.492   6.825
    2AKDO    C219170   3.719   7.349   6.896
    2AKDO    C619171   3.532   7.240   7.000
    2AKDO    H619172   3.534   7.173   6.911
    2AKDO    O619173   3.592   7.365   6.962
    2AKDO    C319174   3.809   7.271   6.995
    2AKDO   H3119175   3.823   7.334   7.085
    2AKDO   H3219176   3.908   7.255   6.947
    2AKDO    C419177   3.753   7.139   7.040
    2AKDO    H419178   3.740   7.072   6.953
    2AKDO    O419179   3.841   7.076   7.136
    2AKDO    C519180   3.616   7.164   7.106
    2AKDO    H519181   3.571   7.064   7.120
    2AKDO    O519182   3.626   7.225   7.240
    2AKDO    C719183   3.385   7.273   7.021
    2AKDO    H719184   3.375   7.349   7.102
    2AKDO    O719185   3.309   7.156   7.054
    2AKDO   HO719186   3.238   7.158   6.988
    2AKDO    C819187   3.330   7.334   6.892
    2AKDO   H8119188   3.385   7.427   6.870
    2AKDO   H8219189   3.347   7.264   6.807
    2AKDO    O819190   3.191   7.367   6.898
    2AKDO   HO819191   3.177   7.424   6.822
    3AKDO    C119192   3.946   6.890   6.995
    3AKDO   O1119193   4.046   6.875   6.918
    3AKDO   O1219194   3.859   6.802   7.018
    3AKDO    C219195   3.960   7.004   7.103
    3AKDO    C619196   4.106   7.189   7.169
    3AKDO    H619197   4.020   7.259   7.179
    3AKDO    O619198   4.075   7.087   7.071
    3AKDO    C319199   3.988   6.941   7.241
    3AKDO   H3119200   4.074   6.872   7.233
    3AKDO   H3219201   3.900   6.879   7.269
    3AKDO    C419202   4.013   7.044   7.347
    3AKDO    H419203   3.926   7.113   7.356
    3AKDO    O419204   4.030   6.980   7.473
    3AKDO   HO419205   3.944   6.954   7.506
    3AKDO    C519206   4.134   7.127   7.306
    3AKDO    H519207   4.147   7.209   7.380
    3AKDO    O519208   4.256   7.052   7.307
    3AKDO   HO519209   4.238   6.970   7.260
    3AKDO    C719210   4.226   7.266   7.115
    3AKDO    H719211   4.306   7.192   7.090
    3AKDO    O719212   4.279   7.359   7.210
    3AKDO   HO719213   4.233   7.442   7.197
    3AKDO    C819214   4.188   7.338   6.986
    3AKDO   H8119215   4.133   7.268   6.920
    3AKDO   H8219216   4.119   7.423   7.009
    3AKDO    O819217   4.301   7.389   6.915
    3AKDO   HO819218   4.264   7.418   6.832
    4AHEP    C119219   3.516   7.202   7.325
    4AHEP    H119220   3.427   7.243   7.273
    4AHEP    C519221   3.574   6.998   7.438
    4AHEP    H519222   3.677   7.019   7.400
    4AHEP    O519223   3.483   7.063   7.345
    4AHEP    C219224   3.515   7.275   7.462
    4AHEP    H219225   3.560   7.374   7.441
    4AHEP    O219226   3.383   7.303   7.511
    4AHEP   HO219227   3.360   7.391   7.481
    4AHEP    C319228   3.606   7.208   7.565
    4AHEP    H319229   3.709   7.213   7.525
    4AHEP    O319230   3.596   7.269   7.698
    4AHEP    C419231   3.562   7.063   7.576
    4AHEP    H419232   3.454   7.062   7.602
    4AHEP    O419233   3.642   6.995   7.675
    4AHEP    P419234   3.567   6.908   7.795
    4AHEP  OP4219235   3.662   6.897   7.913
    4AHEP  OP4319236   3.539   6.770   7.738
    4AHEP  OP4419237   3.439   6.982   7.833
    4AHEP    C619238   3.561   6.845   7.432
    4AHEP    H619239   3.646   6.802   7.490
    4AHEP    O619240   3.440   6.802   7.497
    4AHEP   HO619241   3.467   6.793   7.589
    4AHEP    C719242   3.566   6.789   7.292
    4AHEP   H7119243   3.571   6.678   7.295
    4AHEP   H7219244   3.658   6.825   7.240
    4AHEP    O719245   3.454   6.828   7.212
    4AHEP   HO719246   3.429   6.913   7.247
    5AHEP    C119247   3.721   7.288   7.764
    5AHEP    H119248   3.800   7.233   7.708
    5AHEP    C519249   3.671   7.509   7.849
    5AHEP    H519250   3.567   7.495   7.815
    5AHEP    O519251   3.757   7.426   7.768
    5AHEP    C219252   3.731   7.237   7.907
    5AHEP    H219253   3.687   7.135   7.908
    5AHEP    O219254   3.867   7.220   7.951
    5AHEP   HO219255   3.880   7.125   7.950
    5AHEP    C319256   3.645   7.317   8.002
    5AHEP    H319257   3.538   7.304   7.976
    5AHEP    O319258   3.669   7.279   8.139
    5AHEP    C419259   3.682   7.462   7.995
    5AHEP    H419260   3.787   7.475   8.028
    5AHEP    O419261   3.588   7.536   8.071
    5AHEP    P419262   3.630   7.614   8.208
    5AHEP  OP4219263   3.504   7.674   8.267
    5AHEP  OP4319264   3.732   7.717   8.165
    5AHEP  OP4419265   3.695   7.515   8.304
    5AHEP    C619266   3.711   7.654   7.822
    5AHEP    H619267   3.644   7.720   7.881
    5AHEP    O619268   3.848   7.677   7.859
    5AHEP   HO619269   3.889   7.653   7.775
    5AHEP    C719270   3.695   7.686   7.672
    5AHEP   H7119271   3.665   7.793   7.665
    5AHEP   H7219272   3.610   7.630   7.628
    5AHEP    O719273   3.816   7.673   7.594
    6AHEP    C119274   3.821   7.552   7.519
    6AHEP    H119275   3.735   7.486   7.544
    6AHEP    C519276   3.927   7.640   7.323
    6AHEP    H519277   3.926   7.738   7.377
    6AHEP    O519278   3.814   7.569   7.377
    6AHEP    C219279   3.949   7.481   7.561
    6AHEP    H219280   3.956   7.486   7.672
    6AHEP    O219281   3.953   7.342   7.528
    6AHEP   HO219282   4.044   7.319   7.509
    6AHEP    C319283   4.068   7.555   7.509
    6AHEP    H319284   4.068   7.659   7.549
    6AHEP    O319285   4.190   7.494   7.554
    6AHEP   HO319286   4.256   7.514   7.486
    6AHEP    C419287   4.054   7.562   7.359
    6AHEP    H419288   4.041   7.459   7.319
    6AHEP    O419289   4.174   7.613   7.300
    6AHEP   HO419290   4.178   7.707   7.318
    6AHEP    C619291   3.920   7.674   7.174
    6AHEP    H619292   4.006   7.739   7.148
    6AHEP    O619293   3.936   7.553   7.099
    6AHEP   HO619294   3.902   7.567   7.010
    6AHEP    C719295   3.796   7.749   7.127
    6AHEP   H7119296   3.808   7.778   7.020
    6AHEP   H7219297   3.788   7.844   7.186
    6AHEP    O719298   3.672   7.678   7.141
    6AHEP   HO719299   3.673   7.613   7.069
    7AGLC    C119300   3.588   7.178   8.191
    7AGLC    H119301   3.489   7.179   8.141
    7AGLC    C519302   3.778   7.040   8.238
    7AGLC    H519303   3.842   7.119   8.193
    7AGLC    O519304   3.648   7.048   8.179
    7AGLC    C219305   3.571   7.203   8.341
    7AGLC    H219306   3.506   7.122   8.381
    7AGLC    O219307   3.503   7.327   8.365
    7AGLC   HO219308   3.562   7.397   8.337
    7AGLC    C319309   3.702   7.200   8.415
    7AGLC    H319310   3.768   7.279   8.374
    7AGLC    O319311   3.684   7.218   8.558
    7AGLC    C419312   3.763   7.065   8.386
    7AGLC    H419313   3.694   6.988   8.426
    7AGLC    O419314   3.891   7.047   8.446
    7AGLC   HO419315   3.922   6.961   8.418
    7AGLC    C619316   3.842   6.906   8.207
    7AGLC   H6119317   3.810   6.871   8.105
    7AGLC   H6219318   3.952   6.918   8.202
    7AGLC    O619319   3.812   6.805   8.304
    7AGLC   HO619320   3.763   6.736   8.259
    8AGLC    C119321   3.745   7.334   8.612
    8AGLC    H119322   3.843   7.353   8.564
    8AGLC    C519323   3.533   7.444   8.649
    8AGLC    H519324   3.482   7.354   8.610
    8AGLC    O519325   3.665   7.451   8.592
    8AGLC    C219326   3.761   7.322   8.763
    8AGLC    H219327   3.813   7.413   8.799
    8AGLC    O219328   3.839   7.209   8.806
    8AGLC    C319329   3.627   7.311   8.832
    8AGLC    H319330   3.575   7.223   8.790
    8AGLC    O319331   3.646   7.287   8.973
    8AGLC    C419332   3.544   7.433   8.801
    8AGLC    H419333   3.596   7.524   8.837
    8AGLC    O419334   3.413   7.428   8.860
    8AGLC   HO419335   3.354   7.463   8.793
    8AGLC    C619336   3.458   7.565   8.599
    8AGLC   H6119337   3.499   7.596   8.500
    8AGLC   H6219338   3.352   7.540   8.582
    8AGLC    O619339   3.465   7.675   8.690
    8AGLC   HO619340   3.441   7.754   8.641
    9AGAL    C119341   3.960   7.180   8.738
    9AGAL    H119342   3.946   7.181   8.628
    9AGAL    C519343   4.091   7.282   8.910
    9AGAL    H519344   3.999   7.311   8.964
    9AGAL    O519345   4.062   7.276   8.769
    9AGAL    C219346   3.999   7.040   8.781
    9AGAL    H219347   4.094   7.014   8.729
    9AGAL    O219348   3.897   6.951   8.730
    9AGAL    C319349   4.028   7.043   8.931
    9AGAL    H319350   3.934   7.073   8.983
    9AGAL    O319351   4.064   6.916   8.984
    9AGAL   HO319352   4.133   6.880   8.929
    9AGAL    C419353   4.136   7.146   8.962
    9AGAL    H419354   4.148   7.151   9.071
    9AGAL    O419355   4.263   7.109   8.908
    9AGAL   HO419356   4.298   7.186   8.865
    9AGAL    C619357   4.192   7.395   8.931
    9AGAL   H6119358   4.146   7.491   8.901
    9AGAL   H6219359   4.217   7.402   9.039
    9AGAL    O619360   4.314   7.377   8.858
    9AGAL   HO619361   4.299   7.401   8.766
   10AGAL    C119362   3.859   6.832   8.795
   10AGAL    H119363   3.949   6.771   8.818
   10AGAL    C519364   3.663   6.933   8.886
   10AGAL    H519365   3.692   7.022   8.826
   10AGAL    O519366   3.783   6.859   8.914
   10AGAL    C219367   3.769   6.750   8.702
   10AGAL    H219368   3.739   6.660   8.761
   10AGAL    O219369   3.840   6.698   8.589
   10AGAL   HO219370   3.834   6.756   8.512
   10AGAL    C319371   3.641   6.825   8.668
   10AGAL    H319372   3.669   6.922   8.622
   10AGAL    O319373   3.557   6.754   8.577
   10AGAL   HO319374   3.579   6.772   8.485
   10AGAL    C419375   3.567   6.855   8.797
   10AGAL    H419376   3.480   6.920   8.773
   10AGAL    O419377   3.517   6.737   8.859
   10AGAL   HO419378   3.491   6.678   8.787
   10AGAL    C619379   3.609   6.992   9.016
   10AGAL   H6119380   3.688   7.060   9.054
   10AGAL   H6219381   3.518   7.053   8.993
   10AGAL    O619382   3.578   6.898   9.118
   10AGAL   HO619383   3.642   6.827   9.115
   11BGLC    C119384   3.651   7.393   9.065
   11BGLC    H119385   3.549   7.434   9.080
   11BGLC    C519386   3.747   7.606   9.117
   11BGLC    H519387   3.645   7.643   9.139
   11BGLC    O519388   3.740   7.497   9.023
   11BGLC    C219389   3.703   7.333   9.194
   11BGLC    H219390   3.803   7.288   9.175
   11BGLC    O219391   3.614   7.231   9.245
   11BGLC   HO219392   3.647   7.145   9.216
   11BGLC    C319393   3.717   7.441   9.299
   11BGLC    H319394   3.617   7.480   9.325
   11BGLC    O319395   3.785   7.388   9.413
   11BGLC    C419396   3.805   7.552   9.248
   11BGLC    H419397   3.908   7.514   9.229
   11BGLC    O419398   3.811   7.654   9.347
   11BGLC   HO419399   3.784   7.614   9.431
   11BGLC    C619400   3.827   7.718   9.054
   11BGLC   H6119401   3.879   7.777   9.132
   11BGLC   H6219402   3.905   7.677   8.987
   11BGLC    O619403   3.742   7.808   8.981
   11BGLC   HO619404   3.755   7.798   8.886
   12BGLCN   C119405   3.715   7.387   9.535
   12BGLCN   H119406   3.635   7.311   9.530
   12BGLCN   C519407   3.595   7.522   9.690
   12BGLCN   H519408   3.512   7.448   9.693
   12BGLCN   O519409   3.662   7.517   9.563
   12BGLCN   C219410   3.820   7.351   9.638
   12BGLCN   H219411   3.893   7.435   9.638
   12BGLCN    N19412   3.890   7.227   9.604
   12BGLCN   HN19413   3.836   7.145   9.589
   12BGLCN    C19414   4.023   7.219   9.587
   12BGLCN    O19415   4.097   7.316   9.598
   12BGLCN   CT19416   4.079   7.084   9.550
   12BGLCN  HT119417   4.125   7.037   9.639
   12BGLCN  HT219418   4.158   7.097   9.473
   12BGLCN  HT319419   3.999   7.018   9.509
   12BGLCN   C319420   3.756   7.349   9.776
   12BGLCN   H319421   3.677   7.271   9.778
   12BGLCN   O319422   3.855   7.320   9.877
   12BGLCN   C419423   3.695   7.486   9.800
   12BGLCN   H419424   3.777   7.561   9.799
   12BGLCN   O419425   3.630   7.492   9.927
   12BGLCN  HO419426   3.662   7.570   9.973
   12BGLCN   C619427   3.537   7.661   9.704
   12BGLCN  H6119428   3.517   7.683   9.811
   12BGLCN  H6219429   3.611   7.737   9.669
   12BGLCN   O619430   3.414   7.677   9.634
   12BGLCN  HO619431   3.352   7.720   9.693
   13AGAL    C119432   3.811   7.242   9.986
   13AGAL    H119433   3.708   7.270  10.016
   13AGAL    C519434   3.949   7.057   9.920
   13AGAL    H519435   3.984   7.119   9.834
   13AGAL    O519436   3.815   7.101   9.954
   13AGAL    C219437   3.904   7.263  10.105
   13AGAL    H219438   3.871   7.189  10.181
   13AGAL    O219439   3.889   7.393  10.163
   13AGAL    C319440   4.047   7.227  10.068
   13AGAL    H319441   4.076   7.287   9.978
   13AGAL    O319442   4.142   7.257  10.169
   13AGAL   HO319443   4.147   7.180  10.226
   13AGAL    C419444   4.050   7.080  10.033
   13AGAL    H419445   4.151   7.054   9.995
   13AGAL    O419446   4.023   6.998  10.148
   13AGAL   HO419447   3.980   6.919  10.112
   13AGAL    C619448   3.944   6.913   9.870
   13AGAL   H6119449   3.872   6.906   9.786
   13AGAL   H6219450   4.044   6.886   9.832
   13AGAL    O619451   3.907   6.819   9.971
   13AGAL   HO619452   3.921   6.730   9.938
   14ARHM    C119453   3.831   7.396  10.292
   14ARHM    H119454   3.751   7.319  10.299
   14ARHM    C519455   3.855   7.630  10.315
   14ARHM    H519456   3.903   7.636  10.214
   14ARHM    O519457   3.765   7.520  10.318
   14ARHM    C219458   3.938   7.368  10.398
   14ARHM    H219459   3.990   7.274  10.370
   14ARHM    O219460   3.888   7.351  10.531
   14ARHM    C319461   4.038   7.482  10.396
   14ARHM    H319462   4.084   7.488  10.295
   14ARHM    O319463   4.143   7.462  10.490
   14ARHM   HO319464   4.203   7.393  10.462
   14ARHM    C419465   3.963   7.612  10.421
   14ARHM    H419466   3.913   7.605  10.520
   14ARHM    O419467   4.051   7.725  10.426
   14ARHM   HO419468   4.137   7.690  10.451
   14ARHM    C619469   3.769   7.756  10.333
   14ARHM   H6119470   3.689   7.759  10.256
   14ARHM   H6219471   3.721   7.757  10.433
   14ARHM   H6319472   3.831   7.848  10.320
   15ARHM    C119473   3.793   7.251  10.554
   15ARHM    H119474   3.804   7.168  10.479
   15ARHM    C519475   3.640   7.414  10.638
   15ARHM    H519476   3.711   7.496  10.613
   15ARHM    O519477   3.660   7.305  10.546
   15ARHM    C219478   3.814   7.197  10.693
   15ARHM    H219479   3.915   7.151  10.700
   15ARHM    O219480   3.715   7.095  10.717
   15ARHM    C319481   3.805   7.311  10.792
   15ARHM    H319482   3.878   7.389  10.762
   15ARHM    O319483   3.840   7.264  10.922
   15ARHM    C419484   3.665   7.368  10.782
   15ARHM    H419485   3.592   7.287  10.804
   15ARHM    O419486   3.640   7.471  10.877
   15ARHM   HO419487   3.683   7.552  10.847
   15ARHM    C619488   3.498   7.466  10.613
   15ARHM   H6119489   3.475   7.550  10.681
   15ARHM   H6219490   3.489   7.502  10.509
   15ARHM   H6319491   3.423   7.385  10.629
   16BMANN   C119492   3.713   7.031  10.842
   16BMANN   H119493   3.676   7.100  10.922
   16BMANN   C519494   3.838   6.908  11.005
   16BMANN   H519495   3.804   6.978  11.083
   16BMANN   O519496   3.840   6.976  10.877
   16BMANN   C219497   3.614   6.917  10.826
   16BMANN   H219498   3.515   6.963  10.806
   16BMANN    N19499   3.653   6.834  10.714
   16BMANN   HN19500   3.747   6.802  10.712
   16BMANN    C19501   3.577   6.812  10.605
   16BMANN    O19502   3.462   6.854  10.594
   16BMANN   CT19503   3.645   6.737  10.495
   16BMANN  HT119504   3.571   6.675  10.439
   16BMANN  HT219505   3.724   6.671  10.535
   16BMANN  HT319506   3.691   6.809  10.424
   16BMANN   C319507   3.604   6.846  10.960
   16BMANN   H319508   3.577   6.922  11.036
   16BMANN   O319509   3.499   6.750  10.964
   16BMANN  HO319510   3.451   6.761  11.047
   16BMANN   C419511   3.740   6.791  10.998
   16BMANN   H419512   3.775   6.721  10.918
   16BMANN   O419513   3.739   6.716  11.120
   16BMANN  HO419514   3.708   6.771  11.193
   16BMANN   C619515   3.980   6.868  11.036
   16BMANN  H6119516   3.984   6.801  11.124
   16BMANN  H6219517   4.024   6.813  10.950
   16BMANN   O619518   4.060   6.984  11.064
   16BMANN  HO619519   4.060   7.040  10.986
   17BGLCN   C119520   3.910   7.356  11.000
   17BGLCN   H119521   3.881   7.460  10.974
   17BGLCN   C519522   4.122   7.433  11.074
   17BGLCN   H519523   4.095   7.537  11.043
   17BGLCN   O519524   4.052   7.340  10.989
   17BGLCN   C219525   3.869   7.325  11.141
   17BGLCN   H219526   3.913   7.225  11.165
   17BGLCN    N19527   3.724   7.316  11.155
   17BGLCN   HN19528   3.672   7.376  11.095
   17BGLCN    C19529   3.662   7.227  11.234
   17BGLCN    O19530   3.721   7.139  11.295
   17BGLCN   CT19531   3.512   7.237  11.241
   17BGLCN  HT119532   3.466   7.160  11.175
   17BGLCN  HT219533   3.478   7.338  11.211
   17BGLCN  HT319534   3.481   7.217  11.345
   17BGLCN   C319535   3.934   7.427  11.232
   17BGLCN   H319536   3.905   7.527  11.193
   17BGLCN   O319537   3.882   7.411  11.366
   17BGLCN   C419538   4.085   7.415  11.220
   17BGLCN   H419539   4.117   7.314  11.255
   17BGLCN   O419540   4.150   7.515  11.297
   17BGLCN  HO419541   4.242   7.498  11.314
   17BGLCN   C619542   4.270   7.413  11.047
   17BGLCN  H6119543   4.330   7.480  11.113
   17BGLCN  H6219544   4.299   7.308  11.069
   17BGLCN   O619545   4.304   7.444  10.912
   17BGLCN  HO619546   4.275   7.373  10.856
   18AGAL    C119547   3.885   7.528  11.444
   18AGAL    H119548   3.989   7.558  11.467
   18AGAL    C519549   3.678   7.615  11.359
   18AGAL    H519550   3.667   7.523  11.297
   18AGAL    O519551   3.819   7.639  11.380
   18AGAL    C219552   3.816   7.503  11.576
   18AGAL    H219553   3.819   7.602  11.627
   18AGAL    O219554   3.888   7.407  11.658
   18AGAL    C319555   3.670   7.469  11.557
   18AGAL    H319556   3.662   7.378  11.493
   18AGAL    O319557   3.609   7.441  11.683
   18AGAL   HO319558   3.529   7.390  11.675
   18AGAL    C419559   3.603   7.588  11.489
   18AGAL    H419560   3.499   7.560  11.464
   18AGAL    O419561   3.597   7.702  11.575
   18AGAL   HO419562   3.574   7.670  11.661
   18AGAL    C619563   3.624   7.730  11.273
   18AGAL   H6119564   3.658   7.716  11.169
   18AGAL   H6219565   3.512   7.728  11.273
   18AGAL    O619566   3.669   7.858  11.318
   18AGAL   HO619567   3.763   7.849  11.335
   19ARHM    C119568   3.906   7.461  11.786
   19ARHM    H119569   3.808   7.501  11.819
   19ARHM    C519570   4.127   7.537  11.748
   19ARHM    H519571   4.127   7.475  11.655
   19ARHM    O519572   3.993   7.575  11.780
   19ARHM    C219573   3.954   7.362  11.890
   19ARHM    H219574   3.896   7.269  11.870
   19ARHM    O219575   3.926   7.400  12.026
   19ARHM    C319576   4.097   7.322  11.866
   19ARHM    H319577   4.106   7.269  11.769
   19ARHM    O319578   4.141   7.232  11.968
   19ARHM   HO319579   4.190   7.284  12.033
   19ARHM    C419580   4.182   7.449  11.860
   19ARHM    H419581   4.166   7.504  11.957
   19ARHM    O419582   4.322   7.427  11.849
   19ARHM   HO419583   4.342   7.361  11.781
   19ARHM    C619584   4.203   7.666  11.714
   19ARHM   H6119585   4.161   7.708  11.618
   19ARHM   H6219586   4.188   7.742  11.793
   19ARHM   H6319587   4.311   7.645  11.696
   20ARHM    C119588   3.787   7.407  12.052
   20ARHM    H119589   3.729   7.357  11.971
   20ARHM    C519590   3.805   7.615  12.165
   20ARHM    H519591   3.915   7.611  12.151
   20ARHM    O519592   3.741   7.542  12.061
   20ARHM    C219593   3.758   7.335  12.182
   20ARHM    H219594   3.804   7.234  12.179
   20ARHM    O219595   3.617   7.320  12.204
   20ARHM    C319596   3.821   7.409  12.298
   20ARHM    H319597   3.931   7.409  12.283
   20ARHM    O319598   3.789   7.338  12.418
   20ARHM    C419599   3.771   7.552  12.300
   20ARHM    H419600   3.661   7.551  12.312
   20ARHM    O419601   3.827   7.626  12.409
   20ARHM   HO419602   3.800   7.718  12.401
   20ARHM    C619603   3.760   7.761  12.148
   20ARHM   H6119604   3.655   7.774  12.180
   20ARHM   H6219605   3.826   7.828  12.207
   20ARHM   H6319606   3.768   7.791  12.041
   21BMANN   C119607   3.552   7.230  12.118
   21BMANN   H119608   3.624   7.176  12.054
   21BMANN   C519609   3.380   7.210  11.953
   21BMANN   H519610   3.451   7.156  11.887
   21BMANN   O519611   3.454   7.298  12.040
   21BMANN   C219612   3.481   7.132  12.210
   21BMANN   H219613   3.561   7.076  12.263
   21BMANN    N19614   3.401   7.201  12.309
   21BMANN   HN19615   3.380   7.297  12.290
   21BMANN    C19616   3.363   7.149  12.426
   21BMANN    O19617   3.390   7.033  12.457
   21BMANN   CT19618   3.285   7.238  12.519
   21BMANN  HT119619   3.177   7.216  12.508
   21BMANN  HT219620   3.304   7.345  12.495
   21BMANN  HT319621   3.316   7.219  12.623
   21BMANN   C319622   3.404   7.034  12.123
   21BMANN   H319623   3.477   6.984  12.055
   21BMANN   O319624   3.345   6.930  12.200
   21BMANN  HO319625   3.346   6.956  12.293
   21BMANN   C419626   3.304   7.109  12.037
   21BMANN   H419627   3.234   7.164  12.104
   21BMANN   O419628   3.226   7.023  11.956
   21BMANN  HO419629   3.249   6.932  11.979
   21BMANN   C619630   3.288   7.292  11.864
   21BMANN  H6119631   3.246   7.227  11.784
   21BMANN  H6219632   3.203   7.332  11.925
   21BMANN   O619633   3.355   7.401  11.802
   21BMANN  HO619634   3.407   7.447  11.870
   22BGLCN   C119635   3.892   7.328  12.512
   22BGLCN   H119636   3.964   7.412  12.503
   22BGLCN   C519637   4.060   7.183  12.599
   22BGLCN   H519638   4.131   7.268  12.593
   22BGLCN   O519639   3.959   7.202  12.498
   22BGLCN   C219640   3.821   7.333  12.645
   22BGLCN   H219641   3.749   7.248  12.648
   22BGLCN    N19642   3.745   7.457  12.652
   22BGLCN   HN19643   3.777   7.529  12.592
   22BGLCN    C19644   3.629   7.477  12.717
   22BGLCN    O19645   3.572   7.391  12.783
   22BGLCN   CT19646   3.571   7.615  12.704
   22BGLCN  HT119647   3.481   7.611  12.640
   22BGLCN  HT219648   3.645   7.685  12.661
   22BGLCN  HT319649   3.540   7.651  12.804
   22BGLCN   C319650   3.922   7.315  12.758
   22BGLCN   H319651   3.994   7.399  12.752
   22BGLCN   O319652   3.848   7.323  12.880
   22BGLCN   C419653   3.996   7.184  12.738
   22BGLCN   H419654   3.924   7.100  12.745
   22BGLCN   O419655   4.099   7.165  12.833
   22BGLCN  HO419656   4.072   7.100  12.898
   22BGLCN   C619657   4.133   7.053  12.564
   22BGLCN  H6119658   4.155   6.995  12.658
   22BGLCN  H6219659   4.069   6.988  12.502
   22BGLCN   O619660   4.257   7.078  12.498
   22BGLCN  HO619661   4.241   7.117  12.412
   23AGAL    C119662   3.918   7.341  13.002
   23AGAL    H119663   3.978   7.250  13.024
   23AGAL    C519664   3.932   7.578  12.977
   23AGAL    H519665   3.873   7.569  12.884
   23AGAL    O519666   4.004   7.456  12.999
   23AGAL    C219667   3.817   7.356  13.114
   23AGAL    H219668   3.873   7.362  13.210
   23AGAL    O219669   3.729   7.243  13.116
   23AGAL    C319670   3.738   7.484  13.097
   23AGAL    H319671   3.682   7.478  13.002
   23AGAL    O319672   3.641   7.501  13.201
   23AGAL   HO319673   3.686   7.526  13.283
   23AGAL    C419674   3.832   7.603  13.092
   23AGAL    H419675   3.773   7.694  13.068
   23AGAL    O419676   3.900   7.626  13.214
   23AGAL   HO419677   3.985   7.662  13.190
   23AGAL    C619678   4.031   7.692  12.956
   23AGAL   H6119679   4.094   7.668  12.867
   23AGAL   H6219680   3.975   7.785  12.932
   23AGAL    O619681   4.115   7.717  13.068
   23AGAL   HO619682   4.194   7.663  13.062
   24ARHM    C119683   3.749   7.143  13.213
   24ARHM    H119684   3.858   7.131  13.231
   24ARHM    C519685   3.561   7.022  13.134
   24ARHM    H519686   3.545   7.098  13.054
   24ARHM    O519687   3.700   7.016  13.166
   24ARHM    C219688   3.678   7.184  13.340
   24ARHM    H219689   3.711   7.287  13.368
   24ARHM    O219690   3.704   7.096  13.450
   24ARHM    C319691   3.530   7.192  13.309
   24ARHM    H319692   3.518   7.268  13.229
   24ARHM    O319693   3.457   7.239  13.423
   24ARHM   HO319694   3.463   7.174  13.493
   24ARHM    C419695   3.479   7.059  13.256
   24ARHM    H419696   3.493   6.981  13.333
   24ARHM    O419697   3.340   7.067  13.222
   24ARHM   HO419698   3.298   6.981  13.229
   24ARHM    C619699   3.526   6.885  13.075
   24ARHM   H6119700   3.420   6.881  13.043
   24ARHM   H6219701   3.590   6.864  12.985
   24ARHM   H6319702   3.544   6.805  13.149
   25ARHM    C119703   3.832   7.116  13.508
   25ARHM    H119704   3.891   7.185  13.443
   25ARHM    C519705   3.852   6.898  13.602
   25ARHM    H519706   3.753   6.867  13.564
   25ARHM    O519707   3.909   6.996  13.515
   25ARHM    C219708   3.816   7.179  13.644
   25ARHM    H219709   3.742   7.262  13.635
   25ARHM    O219710   3.941   7.232  13.694
   25ARHM    C319711   3.753   7.080  13.738
   25ARHM    H319712   3.650   7.056  13.704
   25ARHM    O319713   3.749   7.146  13.864
   25ARHM    C419714   3.837   6.955  13.743
   25ARHM    H419715   3.938   6.981  13.780
   25ARHM    O419716   3.782   6.856  13.831
   25ARHM   HO419717   3.851   6.795  13.856
   25ARHM    C619718   3.949   6.779  13.595
   25ARHM   H6119719   3.955   6.741  13.491
   25ARHM   H6219720   4.050   6.812  13.627
   25ARHM   H6319721   3.916   6.697  13.662
   26BMANN   C119722   3.975   7.354  13.631
   26BMANN   H119723   3.884   7.405  13.593
   26BMANN   C519724   4.090   7.452  13.447
   26BMANN   H519725   3.991   7.490  13.413
   26BMANN   O519726   4.065   7.331  13.522
   26BMANN   C219727   4.044   7.449  13.729
   26BMANN   H219728   3.972   7.466  13.811
   26BMANN    N19729   4.166   7.393  13.784
   26BMANN   HN19730   4.222   7.341  13.720
   26BMANN    C19731   4.210   7.411  13.909
   26BMANN    O19732   4.148   7.474  13.995
   26BMANN   CT19733   4.341   7.344  13.944
   26BMANN  HT119734   4.387   7.299  13.853
   26BMANN  HT219735   4.322   7.266  14.020
   26BMANN  HT319736   4.411   7.420  13.986
   26BMANN   C319737   4.064   7.580  13.655
   26BMANN   H319738   3.965   7.614  13.620
   26BMANN   O319739   4.113   7.683  13.742
   26BMANN  HO319740   4.078   7.765  13.708
   26BMANN   C419741   4.154   7.558  13.536
   26BMANN   H419742   4.253   7.522  13.571
   26BMANN   O419743   4.174   7.677  13.460
   26BMANN  HO419744   4.268   7.695  13.450
   26BMANN   C619745   4.170   7.417  13.324
   26BMANN  H6119746   4.128   7.325  13.276
   26BMANN  H6219747   4.160   7.499  13.248
   26BMANN   O619748   4.309   7.397  13.350
   26BMANN  HO619749   4.352   7.482  13.357
   27BGLCN   C119750   3.639   7.120  13.946
   27BGLCN   H119751   3.613   7.012  13.946
   27BGLCN   C519752   3.416   7.186  14.002
   27BGLCN   H519753   3.384   7.079  14.003
   27BGLCN   O519754   3.527   7.202  13.911
   27BGLCN   C219755   3.688   7.164  14.082
   27BGLCN   H219756   3.704   7.274  14.076
   27BGLCN    N19757   3.816   7.102  14.117
   27BGLCN   HN19758   3.830   7.008  14.086
   27BGLCN    C19759   3.915   7.167  14.179
   27BGLCN    O19760   3.909   7.286  14.210
   27BGLCN   CT19761   4.039   7.087  14.208
   27BGLCN  HT119762   4.040   6.992  14.151
   27BGLCN  HT219763   4.045   7.065  14.318
   27BGLCN  HT319764   4.129   7.147  14.180
   27BGLCN   C319765   3.578   7.139  14.183
   27BGLCN   H319766   3.548   7.033  14.173
   27BGLCN   O319767   3.632   7.160  14.315
   27BGLCN   C419768   3.459   7.225  14.144
   27BGLCN   H419769   3.493   7.331  14.141
   27BGLCN   O419770   3.349   7.221  14.234
   27BGLCN  HO419771   3.332   7.133  14.269
   27BGLCN   C619772   3.299   7.268  13.950
   27BGLCN  H6119773   3.218   7.273  14.026
   27BGLCN  H6219774   3.333   7.373  13.932
   27BGLCN   O619775   3.243   7.213  13.832
   27BGLCN  HO619776   3.170   7.270  13.804
   28AGAL    C119777   3.562   7.099  14.421
   28AGAL    H119778   3.466   7.153  14.438
   28AGAL    C519779   3.655   6.881  14.384
   28AGAL    H519780   3.718   6.926  14.304
   28AGAL    O519781   3.535   6.960  14.395
   28AGAL    C219782   3.639   7.108  14.551
   28AGAL    H219783   3.573   7.056  14.623
   28AGAL    O219784   3.661   7.244  14.594
   28AGAL    C319785   3.769   7.031  14.543
   28AGAL    H319786   3.829   7.073  14.459
   28AGAL    O319787   3.846   7.043  14.663
   28AGAL   HO319788   3.927   7.092  14.645
   28AGAL    C419789   3.737   6.886  14.513
   28AGAL    H419790   3.833   6.831  14.495
   28AGAL    O419791   3.673   6.823  14.624
   28AGAL   HO419792   3.721   6.848  14.703
   28AGAL    C619793   3.616   6.743  14.334
   28AGAL   H6119794   3.563   6.753  14.238
   28AGAL   H6219795   3.707   6.682  14.316
   28AGAL    O619796   3.530   6.673  14.425
   28AGAL   HO619797   3.472   6.738  14.465
   29ARHM    C119798   3.622   7.264  14.727
   29ARHM    H119799   3.625   7.167  14.781
   29ARHM    C519800   3.479   7.448  14.677
   29ARHM    H519801   3.505   7.443  14.569
   29ARHM    O519802   3.489   7.318  14.736
   29ARHM    C219803   3.719   7.355  14.797
   29ARHM    H219804   3.822   7.314  14.781
   29ARHM    O219805   3.689   7.358  14.938
   29ARHM    C319806   3.715   7.493  14.737
   29ARHM    H319807   3.742   7.486  14.629
   29ARHM    O319808   3.809   7.579  14.800
   29ARHM   HO319809   3.790   7.668  14.767
   29ARHM    C419810   3.573   7.546  14.747
   29ARHM    H419811   3.544   7.550  14.854
   29ARHM    O419812   3.561   7.678  14.695
   29ARHM   HO419813   3.616   7.688  14.617
   29ARHM    C619814   3.331   7.488  14.689
   29ARHM   H6119815   3.267   7.413  14.638
   29ARHM   H6219816   3.301   7.494  14.796
   29ARHM   H6319817   3.314   7.588  14.642
   30ARHM    C119818   3.769   7.272  15.014
   30ARHM    H119819   3.876   7.288  14.988
   30ARHM    C519820   3.602   7.099  15.029
   30ARHM    H519821   3.530   7.161  14.970
   30ARHM    O519822   3.737   7.133  14.993
   30ARHM    C219823   3.749   7.305  15.160
   30ARHM    H219824   3.763   7.414  15.173
   30ARHM    O219825   3.845   7.233  15.238
   30ARHM    C319826   3.606   7.273  15.204
   30ARHM    H319827   3.539   7.332  15.138
   30ARHM    O319828   3.580   7.316  15.339
   30ARHM    C419829   3.576   7.127  15.176
   30ARHM    H419830   3.644   7.062  15.236
   30ARHM    O419831   3.441   7.093  15.208
   30ARHM   HO419832   3.387   7.089  15.128
   30ARHM    C619833   3.582   6.952  14.990
   30ARHM   H6119834   3.478   6.918  15.011
   30ARHM   H6219835   3.600   6.938  14.881
   30ARHM   H6319836   3.652   6.887  15.047
   31BMANN   C119837   3.967   7.298  15.261
   31BMANN   H119838   3.953   7.407  15.277
   31BMANN   C519839   4.190   7.332  15.179
   31BMANN   H519840   4.179   7.440  15.198
   31BMANN   O519841   4.060   7.274  15.154
   31BMANN   C219842   4.020   7.231  15.385
   31BMANN   H219843   3.951   7.258  15.467
   31BMANN    N19844   4.016   7.085  15.371
   31BMANN   HN19845   4.013   7.051  15.278
   31BMANN    C19846   4.004   7.001  15.474
   31BMANN    O19847   4.008   7.039  15.590
   31BMANN   CT19848   3.982   6.856  15.439
   31BMANN  HT119849   4.061   6.821  15.370
   31BMANN  HT219850   3.883   6.844  15.390
   31BMANN  HT319851   3.984   6.795  15.532
   31BMANN   C319852   4.156   7.289  15.419
   31BMANN   H319853   4.144   7.399  15.431
   31BMANN   O319854   4.204   7.241  15.544
   31BMANN  HO319855   4.164   7.155  15.562
   31BMANN   C419856   4.251   7.268  15.304
   31BMANN   H419857   4.267   7.159  15.286
   31BMANN   O419858   4.378   7.327  15.332
   31BMANN  HO419859   4.389   7.324  15.428
   31BMANN   C619860   4.275   7.314  15.054
   31BMANN  H6119861   4.381   7.341  15.076
   31BMANN  H6219862   4.273   7.208  15.023
   31BMANN   O619863   4.230   7.395  14.944
   31BMANN  HO619864   4.281   7.477  14.941
   32BGLCN   C119865   3.626   7.233  15.444
   32BGLCN   H119866   3.729   7.196  15.424
   32BGLCN   C519867   3.591   7.029  15.565
   32BGLCN   H519868   3.692   6.993  15.535
   32BGLCN   O519869   3.541   7.120  15.467
   32BGLCN   C219870   3.629   7.311  15.575
   32BGLCN   H219871   3.522   7.322  15.603
   32BGLCN    N19872   3.685   7.445  15.562
   32BGLCN   HN19873   3.759   7.457  15.496
   32BGLCN    C19874   3.633   7.551  15.625
   32BGLCN    O19875   3.542   7.541  15.707
   32BGLCN   CT19876   3.690   7.685  15.590
   32BGLCN  HT119877   3.758   7.676  15.502
   32BGLCN  HT219878   3.745   7.725  15.677
   32BGLCN  HT319879   3.607   7.755  15.565
   32BGLCN   C319880   3.694   7.222  15.682
   32BGLCN   H319881   3.790   7.187  15.639
   32BGLCN   O319882   3.723   7.290  15.806
   32BGLCN   C419883   3.604   7.101  15.699
   32BGLCN   H419884   3.502   7.136  15.729
   32BGLCN   O419885   3.651   7.013  15.800
   32BGLCN  HO419886   3.623   7.046  15.885
   32BGLCN   C619887   3.497   6.910  15.565
   32BGLCN  H6119888   3.533   6.833  15.637
   32BGLCN  H6219889   3.396   6.943  15.597
   32BGLCN   O619890   3.488   6.852  15.434
   32BGLCN  HO619891   3.458   6.921  15.375
   33AGAL    C119892   3.850   7.253  15.858
   33AGAL    H119893   3.866   7.144  15.846
   33AGAL    C519894   3.957   7.462  15.806
   33AGAL    H519895   3.861   7.504  15.769
   33AGAL    O519896   3.956   7.319  15.787
   33AGAL    C219897   3.864   7.287  16.006
   33AGAL    H219898   3.965   7.252  16.035
   33AGAL    O219899   3.768   7.213  16.083
   33AGAL    C319900   3.858   7.437  16.029
   33AGAL    H319901   3.760   7.474  15.990
   33AGAL    O319902   3.866   7.471  16.167
   33AGAL   HO319903   3.956   7.452  16.195
   33AGAL    C419904   3.971   7.502  15.952
   33AGAL    H419905   3.961   7.612  15.959
   33AGAL    O419906   4.099   7.467  16.003
   33AGAL   HO419907   4.157   7.457  15.927
   33AGAL    C619908   4.068   7.518  15.718
   33AGAL   H6119909   4.042   7.501  15.612
   33AGAL   H6219910   4.077   7.628  15.735
   33AGAL    O619911   4.196   7.458  15.744
   33AGAL   HO619912   4.204   7.378  15.691
   34ARHM    C119913   3.817   7.162  16.204
   34ARHM    H119914   3.869   7.242  16.262
   34ARHM    C519915   3.851   6.944  16.113
   34ARHM    H519916   3.819   6.978  16.012
   34ARHM    O519917   3.909   7.054  16.185
   34ARHM    C219918   3.697   7.115  16.282
   34ARHM    H219919   3.626   7.200  16.290
   34ARHM    O219920   3.728   7.069  16.415
   34ARHM    C319921   3.629   7.003  16.207
   34ARHM    H319922   3.598   7.040  16.106
   34ARHM    O319923   3.510   6.961  16.273
   34ARHM   HO319924   3.474   6.886  16.225
   34ARHM    C419925   3.729   6.890  16.187
   34ARHM    H419926   3.761   6.854  16.287
   34ARHM    O419927   3.672   6.780  16.117
   34ARHM   HO419928   3.718   6.699  16.142
   34ARHM    C619929   3.964   6.842  16.095
   34ARHM   H6119930   3.999   6.804  16.194
   34ARHM   H6219931   3.930   6.756  16.033
   34ARHM   H6319932   4.050   6.891  16.044
   35ARHM    C119933   3.785   7.163  16.503
   35ARHM    H119934   3.748   7.265  16.478
   35ARHM    C519935   3.981   7.028  16.522
   35ARHM    H519936   3.940   6.956  16.448
   35ARHM    O519937   3.928   7.160  16.497
   35ARHM    C219938   3.739   7.123  16.642
   35ARHM    H219939   3.628   7.118  16.641
   35ARHM    O219940   3.781   7.213  16.746
   35ARHM    C319941   3.790   6.985  16.675
   35ARHM    H319942   3.748   6.912  16.602
   35ARHM    O319943   3.747   6.944  16.804
   35ARHM   HO319944   3.807   6.985  16.867
   35ARHM    C419945   3.941   6.984  16.663
   35ARHM    H419946   3.982   7.061  16.733
   35ARHM    O419947   4.001   6.860  16.700
   35ARHM   HO419948   3.971   6.787  16.645
   35ARHM    C619949   4.133   7.037  16.500
   35ARHM   H6119950   4.154   7.068  16.395
   35ARHM   H6219951   4.179   7.110  16.570
   35ARHM   H6319952   4.180   6.937  16.517
   36BMANN   C119953   3.714   7.337  16.748
   36BMANN   H119954   3.607   7.324  16.723
   36BMANN   C519955   3.712   7.556  16.654
   36BMANN   H519956   3.605   7.541  16.628
   36BMANN   O519957   3.777   7.428  16.656
   36BMANN   C219958   3.729   7.395  16.887
   36BMANN   H219959   3.676   7.326  16.956
   36BMANN    N19960   3.868   7.405  16.931
   36BMANN   HN19961   3.936   7.416  16.860
   36BMANN    C19962   3.907   7.405  17.060
   36BMANN    O19963   3.831   7.382  17.153
   36BMANN   CT19964   4.052   7.434  17.085
   36BMANN  HT119965   4.083   7.523  17.028
   36BMANN  HT219966   4.114   7.347  17.055
   36BMANN  HT319967   4.068   7.454  17.193
   36BMANN   C319968   3.654   7.528  16.890
   36BMANN   H319969   3.549   7.510  16.858
   36BMANN   O319970   3.647   7.583  17.022
   36BMANN  HO319971   3.594   7.662  17.022
   36BMANN   C419972   3.718   7.623  16.790
   36BMANN   H419973   3.824   7.641  16.819
   36BMANN   O419974   3.651   7.748  16.783
   36BMANN  HO419975   3.633   7.784  16.870
   36BMANN   C619976   3.772   7.639  16.541
   36BMANN  H6119977   3.756   7.584  16.446
   36BMANN  H6219978   3.719   7.736  16.533
   36BMANN   O619979   3.913   7.663  16.556
   36BMANN  HO619980   3.928   7.721  16.631
    1ECLIP HB6S19981   5.009   7.242   6.672
    1ECLIP  OB619982   5.166   7.193   6.800
    1ECLIP  CB619983   5.110   7.281   6.700
    1ECLIP HB6R19984   5.095   7.383   6.741
    1ECLIP  CB519985   5.196   7.286   6.577
    1ECLIP  OB519986   5.207   7.151   6.530
    1ECLIP  HB519987   5.297   7.322   6.605
    1ECLIP  CB119988   5.296   7.140   6.418
    1ECLIP  HB119989   5.395   7.181   6.446
    1ECLIP  OA619990   5.314   7.006   6.381
    1ECLIP  CA619991   5.196   6.926   6.391
    1ECLIP HA6R19992   5.104   6.987   6.380
    1ECLIP HA6S19993   5.194   6.879   6.491
    1ECLIP  CB419994   5.139   7.374   6.465
    1ECLIP  HB419995   5.036   7.342   6.440
    1ECLIP  OB419996   5.144   7.507   6.512
    1ECLIP   PB19997   5.025   7.615   6.535
    1ECLIP OPB419998   5.105   7.738   6.568
    1ECLIP OPB319999   4.923   7.577   6.638
    1ECLIP OPB220000   4.944   7.639   6.410
    1ECLIP  CB320001   5.228   7.362   6.344
    1ECLIP  OB320002   5.173   7.429   6.230
    1ECLIP  HB320003   5.331   7.398   6.365
    1ECLIP  C7120004   5.195   7.556   6.212
    1ECLIP  O7120005   5.257   7.630   6.288
    1ECLIP  C7220006   5.144   7.595   6.075
    1ECLIP H72R20007   5.195   7.533   5.998
    1ECLIP H72S20008   5.169   7.702   6.057
    1ECLIP  CB220009   5.241   7.218   6.301
    1ECLIP  HB220010   5.138   7.180   6.281
    1ECLIP  NB220011   5.321   7.203   6.179
    1ECLIP HNB220012   5.420   7.211   6.186
    1ECLIP  CA420013   5.331   6.812   6.208
    1ECLIP  HA420014   5.352   6.912   6.164
    1ECLIP  OA420015   5.433   6.778   6.301
    1ECLIP HOA420016   5.436   6.846   6.368
    1ECLIP  CA520017   5.200   6.819   6.283
    1ECLIP  HA520018   5.179   6.722   6.332
    1ECLIP  OA520019   5.094   6.851   6.193
    1ECLIP  CA120020   5.078   6.753   6.089
    1ECLIP  HA120021   4.994   6.785   6.023
    1ECLIP  OA120022   5.052   6.625   6.144
    1ECLIP OPA220023   4.931   6.433   6.240
    1ECLIP OPA320024   4.892   6.657   6.354
    1ECLIP OPA420025   4.806   6.594   6.120
    1ECLIP   PA20026   4.916   6.584   6.223
    1ECLIP  CA320027   5.323   6.712   6.096
    1ECLIP  HA320028   5.298   6.614   6.141
    1ECLIP  OA320029   5.446   6.688   6.026
    1ECLIP  C3120030   5.513   6.795   5.976
    1ECLIP  O3120031   5.514   6.816   5.856
    1ECLIP  C3220032   5.643   6.809   6.056
    1ECLIP H32R20033   5.725   6.765   5.995
    1ECLIP H32S20034   5.637   6.752   6.153
    1ECLIP  CA220035   5.207   6.752   6.004
    1ECLIP  HA220036   5.225   6.857   5.973
    1ECLIP  NA220037   5.202   6.674   5.881
    1ECLIP HNA220038   5.271   6.602   5.873
    1ECLIP  C7320039   4.992   7.574   6.068
    1ECLIP H73R20040   4.946   7.621   6.156
    1ECLIP  O7320041   4.964   7.434   6.061
    1ECLIP  C8120042   4.845   7.397   6.105
    1ECLIP  O8120043   4.764   7.469   6.160
    1ECLIP  C8220044   4.812   7.256   6.056
    1ECLIP H82R20045   4.713   7.228   6.097
    1ECLIP H82S20046   4.889   7.186   6.095
    1ECLIP  C8320047   4.809   7.246   5.901
    1ECLIP H83R20048   4.912   7.260   5.863
    1ECLIP H83S20049   4.746   7.327   5.858
    1ECLIP  C8420050   4.755   7.111   5.851
    1ECLIP H84R20051   4.647   7.102   5.872
    1ECLIP H84S20052   4.808   7.029   5.903
    1ECLIP  C8520053   4.780   7.095   5.700
    1ECLIP H85R20054   4.890   7.092   5.684
    1ECLIP H85S20055   4.741   7.185   5.646
    1ECLIP  C8620056   4.719   6.969   5.637
    1ECLIP H86R20057   4.609   6.982   5.628
    1ECLIP H86S20058   4.737   6.883   5.705
    1ECLIP  C8720059   4.779   6.934   5.499
    1ECLIP H87R20060   4.721   6.851   5.454
    1ECLIP H87S20061   4.883   6.899   5.516
    1ECLIP  C8820062   4.783   7.054   5.403
    1ECLIP H88R20063   4.848   7.132   5.448
    1ECLIP H88S20064   4.681   7.097   5.391
    1ECLIP  C8920065   4.842   7.022   5.266
    1ECLIP H89R20066   4.929   6.954   5.275
    1ECLIP H89S20067   4.881   7.117   5.223
    1ECLIP C81020068   4.740   6.963   5.167
    1ECLIPH810R20069   4.646   7.021   5.172
    1ECLIPH810S20070   4.717   6.859   5.197
    1ECLIP C81120071   4.792   6.963   5.020
    1ECLIPH811R20072   4.723   6.902   4.958
    1ECLIPH811S20073   4.891   6.913   5.021
    1ECLIP C81220074   4.807   7.102   4.955
    1ECLIPH812R20075   4.856   7.090   4.856
    1ECLIPH812S20076   4.874   7.165   5.017
    1ECLIP C81320077   4.674   7.176   4.936
    1ECLIPH813R20078   4.610   7.115   4.867
    1ECLIPH813S20079   4.621   7.183   5.032
    1ECLIP C81420080   4.690   7.317   4.878
    1ECLIPH814R20081   4.745   7.314   4.781
    1ECLIPH814S20082   4.748   7.380   4.950
    1ECLIPH814T20083   4.591   7.364   4.862
    1ECLIP  C7420084   4.929   7.640   5.941
    1ECLIP H74R20085   4.951   7.749   5.943
    1ECLIP H74S20086   4.819   7.627   5.951
    1ECLIP  C7520087   4.968   7.582   5.804
    1ECLIP H75R20088   4.881   7.598   5.736
    1ECLIP H75S20089   4.985   7.472   5.811
    1ECLIP  C7620090   5.089   7.649   5.737
    1ECLIP H76R20091   5.183   7.618   5.786
    1ECLIP H76S20092   5.080   7.759   5.747
    1ECLIP  C7720093   5.095   7.613   5.587
    1ECLIP H77R20094   4.999   7.642   5.542
    1ECLIP H77S20095   5.105   7.503   5.578
    1ECLIP  C7820096   5.210   7.681   5.512
    1ECLIP H78R20097   5.194   7.791   5.513
    1ECLIP H78S20098   5.306   7.661   5.565
    1ECLIP  C7920099   5.224   7.634   5.366
    1ECLIP H79R20100   5.258   7.528   5.365
    1ECLIP H79S20101   5.303   7.695   5.316
    1ECLIP C71020102   5.094   7.644   5.285
    1ECLIPH710R20103   5.016   7.580   5.332
    1ECLIPH710S20104   5.058   7.749   5.286
    1ECLIP C71120105   5.111   7.598   5.139
    1ECLIPH711R20106   5.191   7.659   5.092
    1ECLIPH711S20107   5.145   7.492   5.141
    1ECLIP C71220108   4.981   7.609   5.059
    1ECLIPH712R20109   4.955   7.716   5.049
    1ECLIPH712S20110   4.899   7.560   5.116
    1ECLIP C71320111   4.989   7.544   4.920
    1ECLIPH713R20112   4.995   7.434   4.933
    1ECLIPH713S20113   4.894   7.566   4.866
    1ECLIP C71420114   5.108   7.592   4.835
    1ECLIPH714R20115   5.105   7.702   4.826
    1ECLIPH714S20116   5.204   7.563   4.884
    1ECLIPH714T20117   5.105   7.546   4.734
    1ECLIP  C5120118   5.268   7.186   6.057
    1ECLIP  O5120119   5.149   7.164   6.040
    1ECLIP  C5220120   5.365   7.195   5.943
    1ECLIP H52R20121   5.404   7.298   5.934
    1ECLIP H52S20122   5.450   7.127   5.965
    1ECLIP  C5320123   5.303   7.152   5.808
    1ECLIP H53R20124   5.247   7.057   5.822
    1ECLIP  O5320125   5.415   7.138   5.719
    1ECLIP  C6120126   5.425   7.023   5.653
    1ECLIP  O6120127   5.334   6.943   5.641
    1ECLIP  C6220128   5.540   7.040   5.552
    1ECLIP H62R20129   5.634   7.056   5.609
    1ECLIP H62S20130   5.518   7.132   5.493
    1ECLIP  C6320131   5.556   6.920   5.455
    1ECLIP H63R20132   5.458   6.893   5.412
    1ECLIP H63S20133   5.592   6.832   5.514
    1ECLIP  C6420134   5.653   6.946   5.339
    1ECLIP H64R20135   5.677   6.849   5.290
    1ECLIP H64S20136   5.748   6.988   5.378
    1ECLIP  C6520137   5.595   7.040   5.233
    1ECLIP H65R20138   5.568   7.136   5.281
    1ECLIP H65S20139   5.502   6.996   5.191
    1ECLIP  C6620140   5.692   7.073   5.116
    1ECLIP H66R20141   5.786   7.114   5.160
    1ECLIP H66S20142   5.646   7.153   5.054
    1ECLIP  C6720143   5.727   6.954   5.025
    1ECLIP H67R20144   5.782   6.878   5.084
    1ECLIP H67S20145   5.796   6.990   4.946
    1ECLIP  C6820146   5.606   6.887   4.958
    1ECLIP H68R20147   5.543   6.963   4.907
    1ECLIP H68S20148   5.544   6.839   5.037
    1ECLIP  C6920149   5.650   6.781   4.858
    1ECLIP H69R20150   5.732   6.723   4.907
    1ECLIP H69S20151   5.693   6.830   4.767
    1ECLIP C61020152   5.541   6.681   4.818
    1ECLIPH610R20153   5.461   6.733   4.760
    1ECLIPH610S20154   5.494   6.642   4.911
    1ECLIP C61120155   5.593   6.560   4.738
    1ECLIPH611R20156   5.669   6.508   4.801
    1ECLIPH611S20157   5.508   6.489   4.726
    1ECLIP C61220158   5.654   6.591   4.601
    1ECLIPH612R20159   5.575   6.623   4.530
    1ECLIPH612S20160   5.730   6.672   4.609
    1ECLIPH612T20161   5.704   6.501   4.559
    1ECLIP  C5420162   5.206   7.259   5.752
    1ECLIP H54R20163   5.263   7.353   5.733
    1ECLIP H54S20164   5.131   7.282   5.832
    1ECLIP  C5520165   5.129   7.218   5.627
    1ECLIP H55R20166   5.034   7.275   5.620
    1ECLIP H55S20167   5.103   7.110   5.634
    1ECLIP  C5620168   5.209   7.244   5.498
    1ECLIP H56R20169   5.306   7.191   5.505
    1ECLIP H56S20170   5.233   7.352   5.490
    1ECLIP  C5720171   5.141   7.196   5.370
    1ECLIP H57R20172   5.053   7.261   5.349
    1ECLIP H57S20173   5.106   7.092   5.382
    1ECLIP  C5820174   5.243   7.204   5.257
    1ECLIP H58R20175   5.294   7.303   5.266
    1ECLIP H58S20176   5.321   7.126   5.273
    1ECLIP  C5920177   5.184   7.193   5.117
    1ECLIP H59R20178   5.095   7.259   5.108
    1ECLIP H59S20179   5.152   7.088   5.097
    1ECLIP C51020180   5.291   7.238   5.017
    1ECLIPH510R20181   5.380   7.172   5.028
    1ECLIPH510S20182   5.322   7.341   5.043
    1ECLIP C51120183   5.242   7.237   4.872
    1ECLIPH511R20184   5.222   7.132   4.842
    1ECLIPH511S20185   5.147   7.294   4.866
    1ECLIP C51220186   5.346   7.301   4.780
    1ECLIPH512R20187   5.302   7.315   4.679
    1ECLIPH512S20188   5.372   7.402   4.818
    1ECLIP C51320189   5.473   7.217   4.766
    1ECLIPH513R20190   5.445   7.113   4.740
    1ECLIPH513S20191   5.524   7.213   4.865
    1ECLIP C51420192   5.569   7.274   4.664
    1ECLIPH514R20193   5.587   7.381   4.688
    1ECLIPH514S20194   5.666   7.220   4.667
    1ECLIPH514T20195   5.527   7.268   4.561
    1ECLIP  C3320196   5.684   6.955   6.082
    1ECLIP H33R20197   5.778   6.958   6.141
    1ECLIP  O3320198   5.581   7.017   6.157
    1ECLIP HO3320199   5.575   6.982   6.247
    1ECLIP  C3420200   5.709   7.032   5.950
    1ECLIP H34R20201   5.618   7.026   5.887
    1ECLIP H34S20202   5.790   6.981   5.893
    1ECLIP  C3520203   5.744   7.182   5.962
    1ECLIP H35R20204   5.847   7.197   5.999
    1ECLIP H35S20205   5.676   7.230   6.035
    1ECLIP  C3620206   5.724   7.252   5.826
    1ECLIP H36R20207   5.625   7.220   5.788
    1ECLIP H36S20208   5.801   7.219   5.753
    1ECLIP  C3720209   5.720   7.405   5.834
    1ECLIP H37R20210   5.824   7.445   5.833
    1ECLIP H37S20211   5.677   7.435   5.932
    1ECLIP  C3820212   5.635   7.470   5.724
    1ECLIP H38R20213   5.527   7.455   5.749
    1ECLIP H38S20214   5.655   7.579   5.726
    1ECLIP  C3920215   5.658   7.413   5.583
    1ECLIP H39R20216   5.618   7.310   5.578
    1ECLIP H39S20217   5.768   7.407   5.563
    1ECLIP C31020218   5.594   7.498   5.472
    1ECLIPH310R20219   5.637   7.600   5.477
    1ECLIPH310S20220   5.484   7.506   5.491
    1ECLIP C31120221   5.618   7.439   5.333
    1ECLIPH311R20222   5.727   7.419   5.322
    1ECLIPH311S20223   5.565   7.342   5.325
    1ECLIP C31220224   5.573   7.531   5.219
    1ECLIPH312R20225   5.464   7.548   5.226
    1ECLIPH312S20226   5.624   7.630   5.231
    1ECLIP C31320227   5.606   7.474   5.080
    1ECLIPH313R20228   5.716   7.455   5.075
    1ECLIPH313S20229   5.556   7.376   5.069
    1ECLIP C31420230   5.565   7.567   4.966
    1ECLIPH314R20231   5.617   7.664   4.974
    1ECLIPH314S20232   5.590   7.521   4.868
    1ECLIPH314T20233   5.455   7.585   4.969
    1ECLIP  C1120234   5.123   6.704   5.775
    1ECLIP  O1120235   5.051   6.803   5.773
    1ECLIP  C1220236   5.114   6.601   5.664
    1ECLIP H12R20237   5.012   6.558   5.672
    1ECLIP H12S20238   5.188   6.519   5.681
    1ECLIP  C1320239   5.130   6.657   5.520
    1ECLIP H13R20240   5.085   6.758   5.512
    1ECLIP  O1320241   5.058   6.569   5.436
    1ECLIP HO1320242   5.062   6.595   5.344
    1ECLIP  C1420243   5.276   6.659   5.469
    1ECLIP H14R20244   5.327   6.568   5.506
    1ECLIP H14S20245   5.328   6.746   5.516
    1ECLIP  C1520246   5.296   6.662   5.315
    1ECLIP H15R20247   5.258   6.567   5.274
    1ECLIP H15S20248   5.405   6.663   5.295
    1ECLIP  C1620249   5.233   6.781   5.240
    1ECLIP H16R20250   5.295   6.871   5.259
    1ECLIP H16S20251   5.131   6.803   5.280
    1ECLIP  C1720252   5.223   6.758   5.089
    1ECLIP H17R20253   5.320   6.719   5.050
    1ECLIP H17S20254   5.203   6.855   5.038
    1ECLIP  C1820255   5.110   6.660   5.050
    1ECLIP H18R20256   5.125   6.564   5.104
    1ECLIP H18S20257   5.013   6.702   5.087
    1ECLIP  C1920258   5.098   6.629   4.900
    1ECLIP H19R20259   5.017   6.555   4.888
    1ECLIP H19S20260   5.192   6.583   4.863
    1ECLIP C11020261   5.064   6.752   4.814
    1ECLIPH110R20262   4.985   6.811   4.866
    1ECLIPH110S20263   5.153   6.818   4.806
    1ECLIP C11120264   5.010   6.715   4.676
    1ECLIPH111R20265   5.090   6.662   4.620
    1ECLIPH111S20266   4.924   6.646   4.689
    1ECLIP C11220267   4.965   6.837   4.596
    1ECLIPH112R20268   4.893   6.896   4.657
    1ECLIPH112S20269   5.055   6.899   4.579
    1ECLIP C11320270   4.902   6.805   4.460
    1ECLIPH113R20271   4.981   6.759   4.396
    1ECLIPH113S20272   4.822   6.729   4.473
    1ECLIP C11420273   4.843   6.928   4.391
    1ECLIPH114R20274   4.738   6.944   4.422
    1ECLIPH114S20275   4.902   7.019   4.417
    1ECLIPH114T20276   4.845   6.917   4.280
    2AKDO    C120277   5.331   7.354   6.872
    2AKDO   O1120278   5.306   7.478   6.863
    2AKDO   O1220279   5.441   7.299   6.846
    2AKDO    C220280   5.214   7.260   6.917
    2AKDO    C620281   4.994   7.258   7.011
    2AKDO    H620282   4.964   7.202   6.920
    2AKDO    O620283   5.110   7.338   6.977
    2AKDO    C320284   5.253   7.147   7.016
    2AKDO   H3120285   5.297   7.194   7.106
    2AKDO   H3220286   5.330   7.083   6.967
    2AKDO    C420287   5.135   7.062   7.056
    2AKDO    H420288   5.093   7.018   6.962
    2AKDO    O420289   5.167   6.957   7.149
    2AKDO    C520290   5.027   7.150   7.116
    2AKDO    H520291   4.937   7.086   7.128
    2AKDO    O520292   5.067   7.200   7.247
    2AKDO    C720293   4.879   7.353   7.037
    2AKDO    H720294   4.900   7.415   7.127
    2AKDO    O720295   4.758   7.279   7.056
    2AKDO   HO720296   4.692   7.340   7.023
    2AKDO    C820297   4.859   7.447   6.919
    2AKDO   H8120298   4.951   7.507   6.905
    2AKDO   H8220299   4.840   7.390   6.826
    2AKDO    O820300   4.749   7.537   6.944
    2AKDO   HO820301   4.756   7.606   6.878
    3AKDO    C120302   5.107   6.764   6.995
    3AKDO   O1120303   5.149   6.655   6.943
    3AKDO   O1220304   4.987   6.802   6.995
    3AKDO    C220305   5.200   6.825   7.106
    3AKDO    C620306   5.431   6.854   7.170
    3AKDO    H620307   5.406   6.957   7.203
    3AKDO    O620308   5.339   6.814   7.065
    3AKDO    C320309   5.181   6.739   7.233
    3AKDO   H3120310   5.194   6.632   7.205
    3AKDO   H3220311   5.076   6.751   7.267
    3AKDO    C420312   5.274   6.773   7.344
    3AKDO    H420313   5.257   6.878   7.377
    3AKDO    O420314   5.250   6.687   7.455
    3AKDO   HO420315   5.183   6.727   7.511
    3AKDO    C520316   5.416   6.760   7.290
    3AKDO    H520317   5.486   6.791   7.372
    3AKDO    O520318   5.449   6.627   7.250
    3AKDO   HO520319   5.410   6.622   7.162
    3AKDO    C720320   5.573   6.857   7.115
    3AKDO    H720321   5.597   6.758   7.070
    3AKDO    O720322   5.667   6.884   7.219
    3AKDO   HO720323   5.737   6.928   7.171
    3AKDO    C820324   5.590   6.964   7.009
    3AKDO   H8120325   5.518   6.948   6.925
    3AKDO   H8220326   5.570   7.065   7.050
    3AKDO    O820327   5.725   6.961   6.957
    3AKDO   HO820328   5.724   6.903   6.880
    4AHEP    C120329   4.962   7.225   7.339
    4AHEP    H120330   4.901   7.309   7.300
    4AHEP    C520331   4.930   7.001   7.418
    4AHEP    H520332   5.020   6.974   7.359
    4AHEP    O520333   4.870   7.116   7.355
    4AHEP    C220334   5.012   7.269   7.476
    4AHEP    H220335   5.096   7.340   7.457
    4AHEP    O220336   4.916   7.345   7.551
    4AHEP   HO220337   4.934   7.438   7.536
    4AHEP    C320338   5.073   7.153   7.552
    4AHEP    H320339   5.167   7.122   7.502
    4AHEP    O320340   5.098   7.199   7.688
    4AHEP    C420341   4.975   7.038   7.561
    4AHEP    H420342   4.888   7.068   7.623
    4AHEP    O420343   5.046   6.927   7.617
    4AHEP    P420344   4.990   6.828   7.736
    4AHEP  OP4220345   5.110   6.746   7.782
    4AHEP  OP4320346   4.882   6.740   7.675
    4AHEP  OP4420347   4.933   6.913   7.848
    4AHEP    C620348   4.834   6.881   7.408
    4AHEP    H620349   4.891   6.790   7.436
    4AHEP    O620350   4.728   6.895   7.503
    4AHEP   HO620351   4.766   6.851   7.579
    4AHEP    C720352   4.777   6.857   7.268
    4AHEP   H7120353   4.708   6.770   7.271
    4AHEP   H7220354   4.861   6.831   7.201
    4AHEP    O720355   4.707   6.968   7.212
    4AHEP   HO720356   4.743   7.042   7.260
    5AHEP    C120357   5.217   7.160   7.748
    5AHEP    H120358   5.256   7.068   7.700
    5AHEP    C520359   5.273   7.387   7.802
    5AHEP    H520360   5.177   7.417   7.755
    5AHEP    O520361   5.316   7.264   7.740
    5AHEP    C220362   5.191   7.131   7.895
    5AHEP    H220363   5.101   7.065   7.898
    5AHEP    O220364   5.293   7.051   7.955
    5AHEP   HO220365   5.257   6.963   7.946
    5AHEP    C320366   5.146   7.256   7.971
    5AHEP    H320367   5.048   7.287   7.929
    5AHEP    O320368   5.134   7.233   8.113
    5AHEP    C420369   5.249   7.365   7.952
    5AHEP    H420370   5.345   7.337   8.000
    5AHEP    O420371   5.209   7.494   7.995
    5AHEP    P420372   5.127   7.552   8.122
    5AHEP  OP4220373   4.982   7.517   8.094
    5AHEP  OP4320374   5.143   7.704   8.116
    5AHEP  OP4420375   5.180   7.488   8.248
    5AHEP    C620376   5.374   7.498   7.771
    5AHEP    H620377   5.347   7.591   7.826
    5AHEP    O620378   5.507   7.460   7.812
    5AHEP   HO620379   5.559   7.481   7.734
    5AHEP    C720380   5.373   7.532   7.623
    5AHEP   H7120381   5.376   7.643   7.615
    5AHEP   H7220382   5.278   7.502   7.573
    5AHEP    O720383   5.488   7.483   7.554
    6AHEP    C120384   5.464   7.362   7.486
    6AHEP    H120385   5.364   7.320   7.511
    6AHEP    C520386   5.594   7.435   7.299
    6AHEP    H520387   5.611   7.532   7.349
    6AHEP    O520388   5.468   7.380   7.344
    6AHEP    C220389   5.570   7.261   7.525
    6AHEP    H220390   5.567   7.251   7.636
    6AHEP    O220391   5.542   7.132   7.470
    6AHEP   HO220392   5.528   7.142   7.377
    6AHEP    C320393   5.706   7.315   7.486
    6AHEP    H320394   5.722   7.413   7.537
    6AHEP    O320395   5.813   7.230   7.528
    6AHEP   HO320396   5.885   7.245   7.465
    6AHEP    C420397   5.708   7.340   7.337
    6AHEP    H420398   5.692   7.242   7.285
    6AHEP    O420399   5.834   7.392   7.295
    6AHEP   HO420400   5.852   7.362   7.205
    6AHEP    C620401   5.589   7.462   7.148
    6AHEP    H620402   5.687   7.502   7.116
    6AHEP    O620403   5.571   7.337   7.080
    6AHEP   HO620404   5.517   7.350   7.002
    6AHEP    C720405   5.485   7.566   7.106
    6AHEP   H7120406   5.495   7.586   6.997
    6AHEP   H7220407   5.508   7.662   7.158
    6AHEP    O720408   5.348   7.533   7.135
    6AHEP   HO720409   5.322   7.473   7.065
    7AGLC    C120410   5.009   7.184   8.160
    7AGLC    H120411   4.926   7.235   8.106
    7AGLC    C520412   5.102   6.970   8.205
    7AGLC    H520413   5.200   7.014   8.179
    7AGLC    O520414   4.999   7.043   8.138
    7AGLC    C220415   4.994   7.206   8.311
    7AGLC    H220416   4.898   7.159   8.339
    7AGLC    O220417   4.979   7.344   8.346
    7AGLC   HO220418   5.054   7.392   8.309
    7AGLC    C320419   5.103   7.135   8.391
    7AGLC    H320420   5.200   7.170   8.349
    7AGLC    O320421   5.101   7.162   8.535
    7AGLC    C420422   5.089   6.987   8.356
    7AGLC    H420423   4.988   6.952   8.386
    7AGLC    O420424   5.184   6.904   8.420
    7AGLC   HO420425   5.152   6.814   8.411
    7AGLC    C620426   5.106   6.827   8.151
    7AGLC   H6120427   5.076   6.828   8.044
    7AGLC   H6220428   5.210   6.791   8.155
    7AGLC    O620429   5.023   6.735   8.223
    7AGLC   HO620430   4.944   6.722   8.170
    8AGLC    C120431   5.223   7.213   8.587
    8AGLC    H120432   5.310   7.163   8.537
    8AGLC    C520433   5.133   7.433   8.622
    8AGLC    H520434   5.037   7.393   8.583
    8AGLC    O520435   5.238   7.354   8.564
    8AGLC    C220436   5.231   7.194   8.738
    8AGLC    H220437   5.329   7.234   8.771
    8AGLC    O220438   5.222   7.057   8.782
    8AGLC    C320439   5.121   7.270   8.809
    8AGLC    H320440   5.024   7.233   8.768
    8AGLC    O320441   5.123   7.238   8.951
    8AGLC    C420442   5.134   7.417   8.774
    8AGLC    H420443   5.231   7.455   8.812
    8AGLC    O420444   5.028   7.494   8.832
    8AGLC   HO420445   4.947   7.474   8.782
    8AGLC    C620446   5.147   7.576   8.572
    8AGLC   H6120447   5.192   7.576   8.470
    8AGLC   H6220448   5.045   7.621   8.562
    8AGLC    O620449   5.224   7.660   8.658
    8AGLC   HO620450   5.184   7.657   8.747
    9AGAL    C120451   5.308   6.963   8.723
    9AGAL    H120452   5.304   6.968   8.612
    9AGAL    C520453   5.462   6.970   8.905
    9AGAL    H520454   5.398   7.046   8.954
    9AGAL    O520455   5.444   6.981   8.763
    9AGAL    C220456   5.256   6.826   8.766
    9AGAL    H220457   5.320   6.750   8.717
    9AGAL    O220458   5.124   6.814   8.709
    9AGAL    C320459   5.273   6.813   8.918
    9AGAL    H320460   5.216   6.896   8.965
    9AGAL    O320461   5.220   6.693   8.972
    9AGAL   HO320462   5.125   6.703   8.966
    9AGAL    C420463   5.419   6.832   8.954
    9AGAL    H420464   5.429   6.829   9.065
    9AGAL    O420465   5.502   6.730   8.900
    9AGAL   HO420466   5.584   6.774   8.878
    9AGAL    C620467   5.606   7.007   8.938
    9AGAL   H6120468   5.624   7.112   8.906
    9AGAL   H6220469   5.622   7.000   9.046
    9AGAL    O620470   5.701   6.923   8.872
    9AGAL   HO620471   5.712   6.953   8.780
   10AGAL    C120472   5.024   6.733   8.766
   10AGAL    H120473   5.063   6.629   8.775
   10AGAL    C520474   4.932   6.919   8.884
   10AGAL    H520475   5.006   6.982   8.829
   10AGAL    O520476   4.985   6.784   8.893
   10AGAL    C220477   4.901   6.727   8.674
   10AGAL    H220478   4.826   6.661   8.721
   10AGAL    O220479   4.936   6.669   8.547
   10AGAL   HO220480   4.866   6.681   8.483
   10AGAL    C320481   4.841   6.867   8.660
   10AGAL    H320482   4.917   6.933   8.613
   10AGAL    O320483   4.724   6.869   8.578
   10AGAL   HO320484   4.741   6.828   8.493
   10AGAL    C420485   4.806   6.920   8.799
   10AGAL    H420486   4.773   7.026   8.786
   10AGAL    O420487   4.701   6.848   8.861
   10AGAL   HO420488   4.636   6.830   8.793
   10AGAL    C620489   4.919   6.981   9.020
   10AGAL   H6120490   5.021   6.995   9.062
   10AGAL   H6220491   4.872   7.081   9.011
   10AGAL    O620492   4.843   6.902   9.111
   10AGAL   HO620493   4.774   6.861   9.059
   11BGLC    C120494   5.192   7.319   9.044
   11BGLC    H120495   5.136   7.414   9.059
   11BGLC    C520496   5.399   7.428   9.097
   11BGLC    H520497   5.340   7.519   9.120
   11BGLC    O520498   5.326   7.347   9.002
   11BGLC    C220499   5.198   7.240   9.175
   11BGLC    H220500   5.250   7.144   9.155
   11BGLC    O220501   5.068   7.212   9.226
   11BGLC   HO220502   5.030   7.138   9.177
   11BGLC    C320503   5.276   7.315   9.280
   11BGLC    H320504   5.222   7.408   9.309
   11BGLC    O320505   5.301   7.232   9.395
   11BGLC    C420506   5.413   7.349   9.227
   11BGLC    H420507   5.469   7.255   9.207
   11BGLC    O420508   5.484   7.423   9.326
   11BGLC   HO420509   5.439   7.405   9.410
   11BGLC    C620510   5.530   7.469   9.033
   11BGLC   H6120511   5.606   7.493   9.111
   11BGLC   H6220512   5.570   7.386   8.971
   11BGLC    O620513   5.512   7.585   8.953
   11BGLC   HO620514   5.591   7.609   8.903
   12BGLCN   C120515   5.244   7.271   9.517
   12BGLCN   H120516   5.133   7.266   9.509
   12BGLCN   C520517   5.228   7.446   9.679
   12BGLCN   H520518   5.117   7.449   9.667
   12BGLCN   O520519   5.286   7.402   9.554
   12BGLCN   C220520   5.293   7.173   9.624
   12BGLCN   H220521   5.402   7.195   9.634
   12BGLCN    N20522   5.281   7.034   9.582
   12BGLCN   HN20523   5.201   7.011   9.525
   12BGLCN    C20524   5.377   6.942   9.599
   12BGLCN    O20525   5.476   6.962   9.668
   12BGLCN   CT20526   5.357   6.810   9.530
   12BGLCN  HT120527   5.366   6.727   9.604
   12BGLCN  HT220528   5.434   6.797   9.452
   12BGLCN  HT320529   5.256   6.806   9.483
   12BGLCN   C320530   5.230   7.207   9.759
   12BGLCN   H320531   5.120   7.193   9.754
   12BGLCN   O320532   5.286   7.123   9.863
   12BGLCN   C420533   5.268   7.350   9.789
   12BGLCN   H420534   5.378   7.355   9.800
   12BGLCN   O420535   5.212   7.396   9.912
   12BGLCN  HO420536   5.117   7.382   9.917
   12BGLCN   C620537   5.278   7.586   9.708
   12BGLCN  H6120538   5.227   7.627   9.799
   12BGLCN  H6220539   5.387   7.580   9.733
   12BGLCN   O620540   5.264   7.679   9.601
   12BGLCN  HO620541   5.172   7.692   9.578
   13AGAL    C120542   5.206   7.090   9.976
   13AGAL    H120543   5.139   7.174  10.004
   13AGAL    C520544   5.208   6.859   9.914
   13AGAL    H520545   5.270   6.888   9.827
   13AGAL    O520546   5.127   6.973   9.950
   13AGAL    C220547   5.295   7.055  10.095
   13AGAL    H220548   5.226   7.013  10.171
   13AGAL    O220549   5.359   7.170  10.156
   13AGAL    C320550   5.390   6.941  10.058
   13AGAL    H320551   5.444   6.972   9.965
   13AGAL    O320552   5.490   6.915  10.156
   13AGAL   HO320553   5.566   6.876  10.112
   13AGAL    C420554   5.305   6.819  10.026
   13AGAL    H420555   5.371   6.738   9.988
   13AGAL    O420556   5.236   6.768  10.141
   13AGAL   HO420557   5.154   6.732  10.106
   13AGAL    C620558   5.118   6.746   9.865
   13AGAL   H6120559   5.050   6.786   9.786
   13AGAL   H6220560   5.181   6.668   9.818
   13AGAL    O620561   5.040   6.684   9.967
   13AGAL   HO620562   4.992   6.610   9.931
   14ARHM    C120563   5.314   7.203  10.287
   14ARHM    H120564   5.205   7.182  10.293
   14ARHM    C520565   5.462   7.388  10.316
   14ARHM    H520566   5.508   7.370  10.216
   14ARHM    O520567   5.326   7.343  10.315
   14ARHM    C220568   5.389   7.119  10.391
   14ARHM    H220569   5.382   7.012  10.359
   14ARHM    O220570   5.342   7.127  10.528
   14ARHM    C320571   5.533   7.162  10.392
   14ARHM    H320572   5.577   7.145  10.292
   14ARHM    O320573   5.608   7.083  10.484
   14ARHM   HO320574   5.557   7.080  10.565
   14ARHM    C420575   5.540   7.311  10.424
   14ARHM    H420576   5.489   7.329  10.520
   14ARHM    O420577   5.673   7.361  10.438
   14ARHM   HO420578   5.731   7.308  10.381
   14ARHM    C620579   5.456   7.540  10.340
   14ARHM   H6120580   5.398   7.588  10.259
   14ARHM   H6220581   5.406   7.562  10.438
   14ARHM   H6320582   5.558   7.584  10.341
   15ARHM    C120583   5.206   7.101  10.549
   15ARHM    H120584   5.168   7.025  10.478
   15ARHM    C520585   5.170   7.324  10.630
   15ARHM    H520586   5.276   7.351  10.609
   15ARHM    O520587   5.128   7.222  10.538
   15ARHM    C220588   5.190   7.048  10.691
   15ARHM    H220589   5.249   6.954  10.701
   15ARHM    O220590   5.050   7.016  10.708
   15ARHM    C320591   5.241   7.150  10.789
   15ARHM    H320592   5.346   7.174  10.761
   15ARHM    O320593   5.242   7.097  10.922
   15ARHM    C420594   5.158   7.276  10.774
   15ARHM    H420595   5.051   7.251  10.793
   15ARHM    O420596   5.196   7.377  10.867
   15ARHM   HO420597   5.140   7.453  10.852
   15ARHM    C620598   5.084   7.448  10.598
   15ARHM   H6120599   5.112   7.535  10.661
   15ARHM   H6220600   5.100   7.477  10.492
   15ARHM   H6320601   4.977   7.425  10.612
   16BMANN   C120602   5.008   6.966  10.832
   16BMANN   H120603   5.023   7.042  10.912
   16BMANN   C520604   5.031   6.795  10.998
   16BMANN   H520605   5.055   6.873  11.074
   16BMANN   O520606   5.074   6.843  10.868
   16BMANN   C220607   4.860   6.941  10.820
   16BMANN   H220608   4.814   7.039  10.799
   16BMANN    N20609   4.830   6.849  10.710
   16BMANN   HN20610   4.893   6.773  10.700
   16BMANN    C20611   4.728   6.865  10.625
   16BMANN    O20612   4.644   6.953  10.638
   16BMANN   CT20613   4.722   6.767  10.511
   16BMANN  HT120614   4.618   6.765  10.470
   16BMANN  HT220615   4.750   6.666  10.546
   16BMANN  HT320616   4.791   6.799  10.431
   16BMANN   C320617   4.809   6.896  10.957
   16BMANN   H320618   4.835   6.974  11.030
   16BMANN   O320619   4.668   6.882  10.958
   16BMANN  HO320620   4.629   6.968  10.974
   16BMANN   C420621   4.881   6.769  10.998
   16BMANN   H420622   4.858   6.688  10.925
   16BMANN   O420623   4.838   6.727  11.127
   16BMANN  HO420624   4.742   6.728  11.125
   16BMANN   C620625   5.108   6.670  11.034
   16BMANN  H6120626   5.079   6.638  11.137
   16BMANN  H6220627   5.082   6.588  10.964
   16BMANN   O620628   5.250   6.688  11.031
   16BMANN  HO620629   5.276   6.690  10.939
   17BGLCN   C120630   5.355   7.130  10.998
   17BGLCN   H120631   5.384   7.235  10.977
   17BGLCN   C520632   5.582   7.077  11.045
   17BGLCN   H520633   5.611   7.181  11.019
   17BGLCN   O520634   5.464   7.042  10.971
   17BGLCN   C220635   5.317   7.117  11.144
   17BGLCN   H220636   5.302   7.009  11.165
   17BGLCN    N20637   5.189   7.182  11.168
   17BGLCN   HN20638   5.161   7.248  11.099
   17BGLCN    C20639   5.103   7.150  11.266
   17BGLCN    O20640   5.123   7.062  11.349
   17BGLCN   CT20641   4.975   7.229  11.269
   17BGLCN  HT120642   4.900   7.182  11.201
   17BGLCN  HT220643   4.993   7.334  11.235
   17BGLCN  HT320644   4.934   7.230  11.373
   17BGLCN   C320645   5.437   7.165  11.227
   17BGLCN   H320646   5.464   7.265  11.186
   17BGLCN   O320647   5.403   7.180  11.366
   17BGLCN   C420648   5.554   7.072  11.196
   17BGLCN   H420649   5.525   6.969  11.225
   17BGLCN   O420650   5.672   7.109  11.267
   17BGLCN  HO420651   5.731   7.034  11.276
   17BGLCN   C620652   5.694   6.985  11.002
   17BGLCN  H6120653   5.790   7.021  11.045
   17BGLCN  H6220654   5.675   6.883  11.043
   17BGLCN   O620655   5.710   6.975  10.860
   17BGLCN  HO620656   5.715   7.063  10.823
   18AGAL    C120657   5.473   7.282  11.434
   18AGAL    H120658   5.580   7.255  11.446
   18AGAL    C520659   5.330   7.457  11.352
   18AGAL    H520660   5.270   7.379  11.300
   18AGAL    O520661   5.465   7.409  11.366
   18AGAL    C220662   5.416   7.303  11.575
   18AGAL    H220663   5.473   7.389  11.616
   18AGAL    O220664   5.439   7.190  11.661
   18AGAL    C320665   5.270   7.345  11.564
   18AGAL    H320666   5.219   7.267  11.502
   18AGAL    O320667   5.200   7.347  11.687
   18AGAL   HO320668   5.137   7.275  11.687
   18AGAL    C420669   5.264   7.477  11.488
   18AGAL    H420670   5.157   7.502  11.471
   18AGAL    O420671   5.323   7.586  11.559
   18AGAL   HO420672   5.252   7.640  11.593
   18AGAL    C620673   5.325   7.579  11.262
   18AGAL   H6120674   5.340   7.548  11.158
   18AGAL   H6220675   5.225   7.627  11.269
   18AGAL    O620676   5.426   7.675  11.297
   18AGAL   HO620677   5.424   7.681  11.394
   19ARHM    C120678   5.460   7.226  11.795
   19ARHM    H120679   5.414   7.325  11.818
   19ARHM    C520680   5.669   7.110  11.812
   19ARHM    H520681   5.661   7.077  11.707
   19ARHM    O520682   5.600   7.235  11.828
   19ARHM    C220683   5.394   7.122  11.883
   19ARHM    H220684   5.291   7.107  11.843
   19ARHM    O220685   5.385   7.158  12.022
   19ARHM    C320686   5.462   6.988  11.868
   19ARHM    H320687   5.454   6.954  11.762
   19ARHM    O320688   5.398   6.890  11.950
   19ARHM   HO320689   5.385   6.928  12.037
   19ARHM    C420690   5.609   7.004  11.904
   19ARHM    H420691   5.618   7.040  12.008
   19ARHM    O420692   5.680   6.880  11.894
   19ARHM   HO420693   5.640   6.828  11.824
   19ARHM    C620694   5.818   7.138  11.842
   19ARHM   H6120695   5.858   7.213  11.770
   19ARHM   H6220696   5.830   7.176  11.946
   19ARHM   H6320697   5.878   7.045  11.832
   20ARHM    C120698   5.281   7.249  12.050
   20ARHM    H120699   5.204   7.247  11.970
   20ARHM    C520700   5.420   7.403  12.168
   20ARHM    H520701   5.508   7.337  12.151
   20ARHM    O520702   5.326   7.384  12.061
   20ARHM    C220703   5.217   7.205  12.180
   20ARHM    H220704   5.196   7.096  12.175
   20ARHM    O220705   5.093   7.272  12.210
   20ARHM    C320706   5.312   7.225  12.295
   20ARHM    H320707   5.400   7.159  12.281
   20ARHM    O320708   5.241   7.189  12.413
   20ARHM    C420709   5.354   7.369  12.300
   20ARHM    H420710   5.264   7.433  12.311
   20ARHM    O420711   5.441   7.396  12.411
   20ARHM   HO420712   5.491   7.475  12.390
   20ARHM    C620713   5.467   7.549  12.158
   20ARHM   H6120714   5.383   7.619  12.176
   20ARHM   H6220715   5.549   7.570  12.231
   20ARHM   H6320716   5.507   7.569  12.057
   21BMANN   C120717   4.986   7.230  12.130
   21BMANN   H120718   5.016   7.146  12.064
   21BMANN   C520719   4.836   7.303  11.960
   21BMANN   H520720   4.872   7.219  11.895
   21BMANN   O520721   4.943   7.340  12.050
   21BMANN   C220722   4.873   7.185  12.220
   21BMANN   H220723   4.910   7.096  12.273
   21BMANN    N20724   4.840   7.286  12.319
   21BMANN   HN20725   4.874   7.377  12.300
   21BMANN    C20726   4.779   7.262  12.436
   21BMANN    O20727   4.736   7.151  12.467
   21BMANN   CT20728   4.766   7.379  12.530
   21BMANN  HT120729   4.667   7.428  12.515
   21BMANN  HT220730   4.847   7.452  12.512
   21BMANN  HT320731   4.773   7.343  12.634
   21BMANN   C320732   4.758   7.143  12.130
   21BMANN   H320733   4.792   7.059  12.065
   21BMANN   O320734   4.648   7.091  12.207
   21BMANN  HO320735   4.659   7.117  12.298
   21BMANN   C420736   4.716   7.257  12.040
   21BMANN   H420737   4.680   7.342  12.103
   21BMANN   O420738   4.611   7.219  11.953
   21BMANN  HO420739   4.551   7.164  12.003
   21BMANN   C620740   4.805   7.421  11.870
   21BMANN  H6120741   4.744   7.387  11.783
   21BMANN  H6220742   4.743   7.492  11.927
   21BMANN   O620743   4.921   7.490  11.821
   21BMANN  HO620744   4.980   7.431  11.776
   22BGLCN   C120745   5.316   7.121  12.510
   22BGLCN   H120746   5.422   7.152  12.509
   22BGLCN   C520747   5.363   6.907  12.597
   22BGLCN   H520748   5.470   6.937  12.606
   22BGLCN   O520749   5.302   6.981  12.492
   22BGLCN   C220750   5.249   7.166  12.638
   22BGLCN   H220751   5.142   7.137  12.633
   22BGLCN    N20752   5.255   7.311  12.647
   22BGLCN   HN20753   5.320   7.355  12.585
   22BGLCN    C20754   5.167   7.389  12.711
   22BGLCN    O20755   5.077   7.346  12.783
   22BGLCN   CT20756   5.184   7.537  12.691
   22BGLCN  HT120757   5.167   7.562  12.585
   22BGLCN  HT220758   5.286   7.568  12.721
   22BGLCN  HT320759   5.108   7.590  12.753
   22BGLCN   C320760   5.312   7.091  12.755
   22BGLCN   H320761   5.421   7.113  12.752
   22BGLCN   O320762   5.257   7.141  12.877
   22BGLCN   C420763   5.292   6.942  12.727
   22BGLCN   H420764   5.183   6.923  12.714
   22BGLCN   O420765   5.338   6.859  12.833
   22BGLCN  HO420766   5.264   6.804  12.861
   22BGLCN   C620767   5.359   6.760  12.559
   22BGLCN  H6120768   5.396   6.699  12.644
   22BGLCN  H6220769   5.254   6.729  12.537
   22BGLCN   O620770   5.442   6.732  12.446
   22BGLCN  HO620771   5.388   6.739  12.367
   23AGAL    C120772   5.334   7.122  12.995
   23AGAL    H120773   5.335   7.014  13.019
   23AGAL    C520774   5.478   7.309  12.958
   23AGAL    H520775   5.414   7.335  12.871
   23AGAL    O520776   5.470   7.167  12.979
   23AGAL    C220777   5.271   7.194  13.113
   23AGAL    H220778   5.326   7.165  13.204
   23AGAL    O220779   5.132   7.157  13.125
   23AGAL    C320780   5.278   7.344  13.097
   23AGAL    H320781   5.218   7.374  13.009
   23AGAL    O320782   5.227   7.410  13.214
   23AGAL   HO320783   5.305   7.426  13.267
   23AGAL    C420784   5.423   7.384  13.078
   23AGAL    H420785   5.427   7.493  13.057
   23AGAL    O420786   5.502   7.360  13.194
   23AGAL   HO420787   5.591   7.347  13.161
   23AGAL    C620788   5.619   7.349  12.918
   23AGAL   H6120789   5.649   7.291  12.828
   23AGAL   H6220790   5.621   7.457  12.891
   23AGAL    O620791   5.716   7.327  13.022
   23AGAL   HO620792   5.803   7.326  12.979
   24ARHM    C120793   5.101   7.053  13.214
   24ARHM    H120794   5.189   6.985  13.224
   24ARHM    C520795   4.871   7.046  13.155
   24ARHM    H520796   4.886   7.128  13.081
   24ARHM    O520797   4.993   6.972  13.168
   24ARHM    C220798   5.070   7.115  13.349
   24ARHM    H220799   5.152   7.185  13.377
   24ARHM    O220800   5.055   7.016  13.451
   24ARHM    C320801   4.943   7.197  13.339
   24ARHM    H320802   4.959   7.277  13.262
   24ARHM    O320803   4.915   7.262  13.463
   24ARHM   HO320804   4.881   7.196  13.523
   24ARHM    C420805   4.831   7.107  13.288
   24ARHM    H420806   4.819   7.023  13.360
   24ARHM    O420807   4.705   7.174  13.280
   24ARHM   HO420808   4.644   7.127  13.338
   24ARHM    C620809   4.768   6.947  13.096
   24ARHM   H6120810   4.671   6.998  13.078
   24ARHM   H6220811   4.805   6.906  13.000
   24ARHM   H6320812   4.752   6.863  13.168
   25ARHM    C120813   5.178   6.969  13.502
   25ARHM    H120814   5.260   6.995  13.432
   25ARHM    C520815   5.093   6.775  13.610
   25ARHM    H520816   4.989   6.805  13.585
   25ARHM    O520817   5.184   6.826  13.512
   25ARHM    C220818   5.207   7.037  13.634
   25ARHM    H220819   5.186   7.146  13.623
   25ARHM    O220820   5.342   7.019  13.675
   25ARHM    C320821   5.112   6.985  13.738
   25ARHM    H320822   5.008   7.007  13.707
   25ARHM    O320823   5.140   7.052  13.860
   25ARHM    C420824   5.130   6.835  13.746
   25ARHM    H420825   5.237   6.813  13.766
   25ARHM    O420826   5.055   6.776  13.852
   25ARHM   HO420827   5.098   6.692  13.873
   25ARHM    C620828   5.101   6.621  13.604
   25ARHM   H6120829   5.072   6.586  13.503
   25ARHM   H6220830   5.204   6.587  13.627
   25ARHM   H6320831   5.030   6.577  13.677
   26BMANN   C120832   5.435   7.103  13.611
   26BMANN   H120833   5.386   7.194  13.571
   26BMANN   C520834   5.603   7.114  13.440
   26BMANN   H520835   5.551   7.205  13.404
   26BMANN   O520836   5.504   7.033  13.506
   26BMANN   C220837   5.536   7.141  13.718
   26BMANN   H220838   5.480   7.199  13.794
   26BMANN    N20839   5.593   7.024  13.786
   26BMANN   HN20840   5.588   6.939  13.734
   26BMANN    C20841   5.645   7.024  13.908
   26BMANN    O20842   5.653   7.125  13.977
   26BMANN   CT20843   5.695   6.892  13.960
   26BMANN  HT120844   5.690   6.815  13.880
   26BMANN  HT220845   5.633   6.861  14.047
   26BMANN  HT320846   5.801   6.903  13.992
   26BMANN   C320847   5.636   7.233  13.652
   26BMANN   H320848   5.578   7.315  13.603
   26BMANN   O320849   5.723   7.298  13.745
   26BMANN  HO320850   5.695   7.390  13.749
   26BMANN   C420851   5.708   7.159  13.541
   26BMANN   H420852   5.759   7.070  13.585
   26BMANN   O420853   5.808   7.240  13.479
   26BMANN  HO420854   5.850   7.289  13.551
   26BMANN   C620855   5.659   7.044  13.318
   26BMANN  H6120856   5.576   6.995  13.262
   26BMANN  H6220857   5.703   7.120  13.249
   26BMANN   O620858   5.759   6.947  13.349
   26BMANN  HO620859   5.833   6.991  13.391
   27BGLCN   C120860   5.027   7.079  13.939
   27BGLCN   H120861   4.952   6.997  13.930
   27BGLCN   C520862   4.856   7.238  13.984
   27BGLCN   H520863   4.780   7.158  13.975
   27BGLCN   O520864   4.969   7.205  13.902
   27BGLCN   C220865   5.080   7.089  14.079
   27BGLCN   H220866   5.149   7.176  14.082
   27BGLCN    N20867   5.155   6.970  14.114
   27BGLCN   HN20868   5.127   6.886  14.068
   27BGLCN    C20869   5.264   6.970  14.193
   27BGLCN    O20870   5.310   7.071  14.245
   27BGLCN   CT20871   5.330   6.836  14.214
   27BGLCN  HT120872   5.273   6.756  14.163
   27BGLCN  HT220873   5.334   6.815  14.324
   27BGLCN  HT320874   5.434   6.840  14.175
   27BGLCN   C320875   4.965   7.118  14.173
   27BGLCN   H320876   4.890   7.037  14.161
   27BGLCN   O320877   5.015   7.114  14.308
   27BGLCN   C420878   4.901   7.249  14.130
   27BGLCN   H420879   4.977   7.330  14.138
   27BGLCN   O420880   4.790   7.286  14.211
   27BGLCN  HO420881   4.730   7.212  14.220
   27BGLCN   C620882   4.797   7.367  13.932
   27BGLCN  H6120883   4.719   7.406  14.000
   27BGLCN  H6220884   4.878   7.443  13.925
   27BGLCN   O620885   4.737   7.351  13.802
   27BGLCN  HO620886   4.732   7.438  13.762
   28AGAL    C120887   4.921   7.108  14.413
   28AGAL    H120888   4.875   7.208  14.426
   28AGAL    C520889   4.868   6.876  14.382
   28AGAL    H520890   4.948   6.871  14.305
   28AGAL    O520891   4.818   7.011  14.387
   28AGAL    C220892   4.986   7.074  14.546
   28AGAL    H220893   4.901   7.074  14.617
   28AGAL    O220894   5.082   7.172  14.590
   28AGAL    C320895   5.044   6.934  14.547
   28AGAL    H320896   5.123   6.928  14.469
   28AGAL    O320897   5.101   6.905  14.674
   28AGAL   HO320898   5.172   6.841  14.672
   28AGAL    C420899   4.932   6.836  14.515
   28AGAL    H420900   4.977   6.735  14.503
   28AGAL    O420901   4.837   6.827  14.622
   28AGAL   HO420902   4.887   6.826  14.703
   28AGAL    C620903   4.756   6.784  14.333
   28AGAL   H6120904   4.717   6.822  14.236
   28AGAL   H6220905   4.797   6.682  14.315
   28AGAL    O620906   4.648   6.775  14.425
   28AGAL   HO620907   4.676   6.820  14.505
   29ARHM    C120908   5.065   7.207  14.725
   29ARHM    H120909   5.022   7.121  14.781
   29ARHM    C520910   5.028   7.436  14.672
   29ARHM    H520911   5.040   7.415  14.563
   29ARHM    O520912   4.977   7.320  14.739
   29ARHM    C220913   5.198   7.240  14.789
   29ARHM    H220914   5.265   7.153  14.772
   29ARHM    O220915   5.184   7.264  14.931
   29ARHM    C320916   5.259   7.359  14.718
   29ARHM    H320917   5.268   7.333  14.610
   29ARHM    O320918   5.391   7.388  14.764
   29ARHM   HO320919   5.445   7.403  14.687
   29ARHM    C420920   5.164   7.477  14.729
   29ARHM    H420921   5.151   7.502  14.837
   29ARHM    O420922   5.215   7.592  14.662
   29ARHM   HO420923   5.281   7.564  14.599
   29ARHM    C620924   4.920   7.545  14.688
   29ARHM   H6120925   4.824   7.510  14.645
   29ARHM   H6220926   4.905   7.569  14.795
   29ARHM   H6320927   4.950   7.638  14.635
   30ARHM    C120928   5.206   7.150  15.011
   30ARHM    H120929   5.304   7.105  14.984
   30ARHM    C520930   4.973   7.095  15.033
   30ARHM    H520931   4.944   7.185  14.974
   30ARHM    O520932   5.104   7.051  14.994
   30ARHM    C220933   5.212   7.190  15.158
   30ARHM    H220934   5.285   7.272  15.169
   30ARHM    O220935   5.252   7.078  15.238
   30ARHM    C320936   5.076   7.239  15.204
   30ARHM    H320937   5.049   7.326  15.140
   30ARHM    O320938   5.081   7.288  15.340
   30ARHM    C420939   4.971   7.133  15.180
   30ARHM    H420940   4.994   7.040  15.238
   30ARHM    O420941   4.842   7.180  15.217
   30ARHM   HO420942   4.829   7.162  15.310
   30ARHM    C620943   4.878   6.980  14.998
   30ARHM   H6120944   4.773   7.007  15.023
   30ARHM   H6220945   4.884   6.956  14.890
   30ARHM   H6320946   4.905   6.889  15.055
   31BMANN   C120947   5.389   7.064  15.265
   31BMANN   H120948   5.435   7.162  15.291
   31BMANN   C520949   5.597   6.974  15.186
   31BMANN   H520950   5.647   7.069  15.215
   31BMANN   O520951   5.458   7.001  15.156
   31BMANN   C220952   5.392   6.969  15.383
   31BMANN   H220953   5.344   7.024  15.468
   31BMANN    N20954   5.313   6.848  15.360
   31BMANN   HN20955   5.300   6.821  15.265
   31BMANN    C20956   5.261   6.773  15.457
   31BMANN    O20957   5.280   6.798  15.575
   31BMANN   CT20958   5.175   6.657  15.415
   31BMANN  HT120959   5.227   6.598  15.336
   31BMANN  HT220960   5.079   6.694  15.375
   31BMANN  HT320961   5.155   6.592  15.503
   31BMANN   C320962   5.536   6.944  15.421
   31BMANN   H320963   5.585   7.042  15.438
   31BMANN   O320964   5.548   6.873  15.544
   31BMANN  HO320965   5.463   6.834  15.565
   31BMANN   C420966   5.607   6.878  15.304
   31BMANN   H420967   5.555   6.783  15.277
   31BMANN   O420968   5.742   6.846  15.336
   31BMANN  HO420969   5.748   6.851  15.432
   31BMANN   C620970   5.664   6.924  15.060
   31BMANN  H6120971   5.762   6.878  15.085
   31BMANN  H6220972   5.601   6.845  15.013
   31BMANN   O620973   5.688   7.030  14.966
   31BMANN  HO620974   5.610   7.040  14.911
   32BGLCN   C120975   5.064   7.194  15.444
   32BGLCN   H120976   5.114   7.098  15.418
   32BGLCN   C520977   4.909   7.066  15.575
   32BGLCN   H520978   4.958   6.973  15.540
   32BGLCN   O520979   4.926   7.168  15.474
   32BGLCN   C220980   5.128   7.249  15.569
   32BGLCN   H220981   5.062   7.332  15.604
   32BGLCN    N20982   5.261   7.304  15.544
   32BGLCN   HN20983   5.331   7.244  15.507
   32BGLCN    C20984   5.293   7.433  15.566
   32BGLCN    O20985   5.215   7.513  15.617
   32BGLCN   CT20986   5.430   7.476  15.522
   32BGLCN  HT120987   5.443   7.456  15.414
   32BGLCN  HT220988   5.508   7.423  15.581
   32BGLCN  HT320989   5.441   7.585  15.540
   32BGLCN   C320990   5.123   7.141  15.675
   32BGLCN   H320991   5.170   7.050  15.633
   32BGLCN   O320992   5.191   7.176  15.796
   32BGLCN   C420993   4.977   7.112  15.703
   32BGLCN   H420994   4.927   7.205  15.738
   32BGLCN   O420995   4.962   7.014  15.805
   32BGLCN  HO420996   4.981   7.056  15.889
   32BGLCN   C620997   4.761   7.036  15.595
   32BGLCN  H6120998   4.749   6.948  15.661
   32BGLCN  H6220999   4.714   7.123  15.646
   32BGLCN   O621000   4.690   7.011  15.472
   32BGLCN  HO621001   4.715   6.926  15.436
   33AGAL    C121002   5.270   7.071  15.849
   33AGAL    H121003   5.221   6.973  15.833
   33AGAL    C521004   5.475   7.190  15.810
   33AGAL    H521005   5.416   7.276  15.770
   33AGAL    O521006   5.400   7.069  15.787
   33AGAL    C221007   5.290   7.091  15.998
   33AGAL    H221008   5.355   7.008  16.032
   33AGAL    O221009   5.164   7.080  16.066
   33AGAL    C321010   5.361   7.223  16.024
   33AGAL    H321011   5.301   7.303  15.976
   33AGAL    O321012   5.371   7.255  16.162
   33AGAL   HO321013   5.443   7.203  16.198
   33AGAL    C421014   5.497   7.218  15.958
   33AGAL    H421015   5.546   7.317  15.969
   33AGAL    O421016   5.583   7.122  16.020
   33AGAL   HO421017   5.634   7.080  15.950
   33AGAL    C621018   5.603   7.184  15.729
   33AGAL   H6121019   5.579   7.184  15.621
   33AGAL   H6221020   5.664   7.275  15.749
   33AGAL    O621021   5.681   7.067  15.758
   33AGAL   HO621022   5.640   6.992  15.715
   34ARHM    C121023   5.172   7.014  16.191
   34ARHM    H121024   5.266   7.042  16.243
   34ARHM    C521025   5.048   6.826  16.111
   34ARHM    H521026   5.044   6.867  16.008
   34ARHM    O521027   5.168   6.871  16.176
   34ARHM    C221028   5.054   7.061  16.273
   34ARHM    H221029   5.057   7.172  16.278
   34ARHM    O221030   5.054   7.008  16.407
   34ARHM    C321031   4.925   7.021  16.204
   34ARHM    H321032   4.923   7.066  16.102
   34ARHM    O321033   4.810   7.068  16.274
   34ARHM   HO321034   4.782   7.150  16.233
   34ARHM    C421035   4.924   6.870  16.189
   34ARHM    H421036   4.928   6.823  16.290
   34ARHM    O421037   4.806   6.825  16.123
   34ARHM   HO421038   4.731   6.855  16.175
   34ARHM    C621039   5.062   6.673  16.101
   34ARHM   H6121040   5.069   6.629  16.203
   34ARHM   H6221041   4.973   6.630  16.050
   34ARHM   H6321042   5.153   6.646  16.044
   35ARHM    C121043   5.155   7.055  16.493
   35ARHM    H121044   5.175   7.163  16.473
   35ARHM    C521045   5.258   6.840  16.503
   35ARHM    H521046   5.183   6.799  16.432
   35ARHM    O521047   5.276   6.980  16.480
   35ARHM    C221048   5.100   7.037  16.634
   35ARHM    H221049   5.001   7.088  16.638
   35ARHM    O221050   5.182   7.091  16.739
   35ARHM    C321051   5.078   6.890  16.662
   35ARHM    H321052   5.007   6.850  16.587
   35ARHM    O321053   5.018   6.869  16.790
   35ARHM   HO321054   5.062   6.925  16.854
   35ARHM    C421055   5.210   6.818  16.646
   35ARHM    H421056   5.284   6.862  16.716
   35ARHM    O421057   5.198   6.679  16.677
   35ARHM   HO421058   5.132   6.671  16.746
   35ARHM    C621059   5.393   6.773  16.471
   35ARHM   H6121060   5.420   6.793  16.365
   35ARHM   H6221061   5.474   6.815  16.536
   35ARHM   H6321062   5.388   6.664  16.486
   36BMANN   C121063   5.201   7.231  16.734
   36BMANN   H121064   5.114   7.279  16.685
   36BMANN   C521065   5.340   7.408  16.658
   36BMANN   H521066   5.249   7.449  16.608
   36BMANN   O521067   5.322   7.265  16.666
   36BMANN   C221068   5.212   7.281  16.877
   36BMANN   H221069   5.115   7.256  16.925
   36BMANN    N21070   5.317   7.214  16.953
   36BMANN   HN21071   5.394   7.178  16.900
   36BMANN    C21072   5.316   7.202  17.086
   36BMANN    O21073   5.222   7.245  17.153
   36BMANN   CT21074   5.434   7.134  17.151
   36BMANN  HT121075   5.521   7.135  17.082
   36BMANN  HT221076   5.408   7.029  17.176
   36BMANN  HT321077   5.460   7.188  17.244
   36BMANN   C321078   5.224   7.432  16.873
   36BMANN   H321079   5.138   7.474  16.817
   36BMANN   O321080   5.218   7.488  17.004
   36BMANN  HO321081   5.247   7.423  17.068
   36BMANN   C421082   5.350   7.470  16.796
   36BMANN   H421083   5.440   7.432  16.849
   36BMANN   O421084   5.362   7.611  16.781
   36BMANN  HO421085   5.385   7.653  16.864
   36BMANN   C621086   5.457   7.441  16.566
   36BMANN  H6121087   5.450   7.378  16.474
   36BMANN  H6221088   5.449   7.547  16.534
   36BMANN   O621089   5.585   7.422  16.626
   36BMANN  HO621090   5.604   7.497  16.683
    1ECLIP HB6S21091   1.625   1.455   6.704
    1ECLIP  OB621092   1.512   1.588   6.814
    1ECLIP  CB621093   1.518   1.482   6.716
    1ECLIP HB6R21094   1.465   1.392   6.754
    1ECLIP  CB521095   1.463   1.512   6.577
    1ECLIP  OB521096   1.525   1.629   6.523
    1ECLIP  HB521097   1.354   1.530   6.589
    1ECLIP  CB121098   1.469   1.667   6.395
    1ECLIP  HB121099   1.360   1.680   6.410
    1ECLIP  OA621100   1.516   1.790   6.349
    1ECLIP  CA621101   1.657   1.810   6.367
    1ECLIP HA6R21102   1.711   1.714   6.386
    1ECLIP HA6S21103   1.673   1.877   6.454
    1ECLIP  CB421104   1.488   1.399   6.476
    1ECLIP  HB421105   1.597   1.395   6.457
    1ECLIP  OB421106   1.437   1.277   6.532
    1ECLIP   PB21107   1.543   1.154   6.569
    1ECLIP OPB421108   1.485   1.074   6.686
    1ECLIP OPB321109   1.675   1.221   6.609
    1ECLIP OPB221110   1.565   1.072   6.444
    1ECLIP  CB321111   1.424   1.433   6.340
    1ECLIP  OB321112   1.450   1.325   6.252
    1ECLIP  HB321113   1.315   1.454   6.353
    1ECLIP  C7121114   1.358   1.230   6.237
    1ECLIP  O7121115   1.243   1.237   6.282
    1ECLIP  C7221116   1.382   1.153   6.108
    1ECLIP H72R21117   1.348   1.216   6.023
    1ECLIP H72S21118   1.317   1.063   6.111
    1ECLIP  CB221119   1.489   1.561   6.287
    1ECLIP  HB221120   1.598   1.542   6.278
    1ECLIP  NB221121   1.449   1.617   6.157
    1ECLIP HNB221122   1.465   1.716   6.155
    1ECLIP  CA421123   1.638   1.989   6.186
    1ECLIP  HA421124   1.538   1.947   6.163
    1ECLIP  OA421125   1.626   2.092   6.285
    1ECLIP HOA421126   1.683   2.167   6.264
    1ECLIP  CA521127   1.717   1.873   6.243
    1ECLIP  HA521128   1.820   1.905   6.267
    1ECLIP  OA521129   1.718   1.769   6.144
    1ECLIP  CA121130   1.787   1.806   6.024
    1ECLIP  HA121131   1.785   1.721   5.952
    1ECLIP  OA121132   1.920   1.842   6.056
    1ECLIP OPA221133   2.140   1.778   6.164
    1ECLIP OPA321134   1.962   1.600   6.137
    1ECLIP OPA421135   2.079   1.695   5.932
    1ECLIP   PA21136   2.031   1.722   6.075
    1ECLIP  CA321137   1.698   2.038   6.057
    1ECLIP  HA321138   1.799   2.079   6.078
    1ECLIP  OA321139   1.617   2.143   6.002
    1ECLIP  C3121140   1.490   2.123   5.957
    1ECLIP  O3121141   1.453   2.165   5.848
    1ECLIP  C3221142   1.389   2.153   6.071
    1ECLIP H32R21143   1.346   2.251   6.042
    1ECLIP H32S21144   1.442   2.174   6.167
    1ECLIP  CA221145   1.711   1.921   5.958
    1ECLIP  HA221146   1.610   1.885   5.931
    1ECLIP  NA221147   1.782   1.965   5.839
    1ECLIP HNA221148   1.851   2.033   5.861
    1ECLIP  C7321149   1.527   1.109   6.082
    1ECLIP H73R21150   1.558   1.049   6.170
    1ECLIP  O7321151   1.611   1.223   6.063
    1ECLIP  C8121152   1.739   1.206   6.094
    1ECLIP  O8121153   1.787   1.101   6.137
    1ECLIP  C8221154   1.823   1.318   6.037
    1ECLIP H82R21155   1.923   1.312   6.084
    1ECLIP H82S21156   1.779   1.416   6.065
    1ECLIP  C8321157   1.839   1.308   5.884
    1ECLIP H83R21158   1.745   1.342   5.837
    1ECLIP H83S21159   1.859   1.203   5.852
    1ECLIP  C8421160   1.954   1.396   5.834
    1ECLIP H84R21161   2.052   1.350   5.858
    1ECLIP H84S21162   1.950   1.492   5.891
    1ECLIP  C8521163   1.942   1.428   5.686
    1ECLIP H85R21164   1.849   1.488   5.674
    1ECLIP H85S21165   1.932   1.334   5.627
    1ECLIP  C8621166   2.059   1.512   5.631
    1ECLIP H86R21167   2.149   1.448   5.622
    1ECLIP H86S21168   2.083   1.591   5.705
    1ECLIP  C8721169   2.026   1.581   5.497
    1ECLIP H87R21170   2.120   1.621   5.453
    1ECLIP H87S21171   1.960   1.667   5.518
    1ECLIP  C8821172   1.954   1.488   5.398
    1ECLIP H88R21173   1.855   1.462   5.443
    1ECLIP H88S21174   2.012   1.393   5.387
    1ECLIP  C8921175   1.929   1.550   5.260
    1ECLIP H89R21176   1.902   1.658   5.273
    1ECLIP H89S21177   1.842   1.498   5.216
    1ECLIP C81021178   2.049   1.535   5.167
    1ECLIPH810R21179   2.091   1.433   5.179
    1ECLIPH810S21180   2.128   1.606   5.198
    1ECLIP C81121181   2.013   1.560   5.019
    1ECLIPH811R21182   2.107   1.573   4.960
    1ECLIPH811S21183   1.958   1.657   5.017
    1ECLIP C81221184   1.926   1.452   4.953
    1ECLIPH812R21185   1.893   1.488   4.854
    1ECLIPH812S21186   1.836   1.434   5.014
    1ECLIP C81321187   1.999   1.318   4.933
    1ECLIPH813R21188   2.086   1.334   4.866
    1ECLIPH813S21189   2.038   1.283   5.031
    1ECLIP C81421190   1.909   1.208   4.877
    1ECLIPH814R21191   1.867   1.239   4.778
    1ECLIPH814S21192   1.824   1.188   4.945
    1ECLIPH814T21193   1.966   1.114   4.862
    1ECLIP  C7421194   1.537   1.021   5.954
    1ECLIP H74R21195   1.463   0.938   5.959
    1ECLIP H74S21196   1.638   0.974   5.958
    1ECLIP  C7521197   1.527   1.093   5.818
    1ECLIP H75R21198   1.590   1.036   5.745
    1ECLIP H75S21199   1.572   1.194   5.825
    1ECLIP  C7621200   1.387   1.104   5.753
    1ECLIP H76R21201   1.325   1.176   5.812
    1ECLIP H76S21202   1.338   1.005   5.756
    1ECLIP  C7721203   1.393   1.153   5.608
    1ECLIP H77R21204   1.464   1.087   5.552
    1ECLIP H77S21205   1.435   1.255   5.605
    1ECLIP  C7821206   1.257   1.152   5.535
    1ECLIP H78R21207   1.222   1.047   5.528
    1ECLIP H78S21208   1.184   1.208   5.596
    1ECLIP  C7921209   1.259   1.215   5.393
    1ECLIP H79R21210   1.271   1.325   5.405
    1ECLIP H79S21211   1.161   1.197   5.345
    1ECLIP C71021212   1.372   1.163   5.302
    1ECLIPH710R21213   1.469   1.191   5.347
    1ECLIPH710S21214   1.367   1.052   5.296
    1ECLIP C71121215   1.367   1.223   5.160
    1ECLIPH711R21216   1.273   1.191   5.110
    1ECLIPH711S21217   1.365   1.333   5.168
    1ECLIP C71221218   1.488   1.182   5.076
    1ECLIPH712R21219   1.484   1.073   5.056
    1ECLIPH712S21220   1.580   1.202   5.135
    1ECLIP C71321221   1.501   1.258   4.943
    1ECLIPH713R21222   1.521   1.364   4.965
    1ECLIPH713S21223   1.590   1.219   4.889
    1ECLIP C71421224   1.377   1.249   4.853
    1ECLIPH714R21225   1.346   1.143   4.839
    1ECLIPH714S21226   1.293   1.306   4.898
    1ECLIPH714T21227   1.399   1.293   4.753
    1ECLIP  C5121228   1.408   1.561   6.040
    1ECLIP  O5121229   1.384   1.443   6.025
    1ECLIP  C5221230   1.373   1.655   5.926
    1ECLIP H52R21231   1.268   1.630   5.900
    1ECLIP H52S21232   1.376   1.759   5.964
    1ECLIP  C5321233   1.457   1.647   5.795
    1ECLIP H53R21234   1.552   1.703   5.809
    1ECLIP  O5321235   1.374   1.701   5.691
    1ECLIP  C6121236   1.398   1.829   5.663
    1ECLIP  O6121237   1.444   1.909   5.742
    1ECLIP  C6221238   1.309   1.870   5.545
    1ECLIP H62R21239   1.224   1.929   5.587
    1ECLIP H62S21240   1.269   1.779   5.497
    1ECLIP  C6321241   1.388   1.957   5.444
    1ECLIP H63R21242   1.479   1.902   5.411
    1ECLIP H63S21243   1.422   2.049   5.497
    1ECLIP  C6421244   1.308   1.998   5.319
    1ECLIP H64R21245   1.363   2.079   5.267
    1ECLIP H64S21246   1.210   2.040   5.351
    1ECLIP  C6521247   1.283   1.883   5.221
    1ECLIP H65R21248   1.251   1.793   5.278
    1ECLIP H65S21249   1.380   1.858   5.172
    1ECLIP  C6621250   1.178   1.914   5.113
    1ECLIP H66R21251   1.081   1.934   5.162
    1ECLIP H66S21252   1.167   1.825   5.049
    1ECLIP  C6721253   1.215   2.033   5.024
    1ECLIP H67R21254   1.216   2.126   5.085
    1ECLIP H67S21255   1.137   2.044   4.946
    1ECLIP  C6821256   1.352   2.019   4.958
    1ECLIP H68R21257   1.365   1.914   4.922
    1ECLIP H68S21258   1.433   2.039   5.032
    1ECLIP  C6921259   1.368   2.113   4.839
    1ECLIP H69R21260   1.353   2.218   4.872
    1ECLIP H69S21261   1.287   2.087   4.766
    1ECLIP C61021262   1.504   2.098   4.773
    1ECLIPH610R21263   1.524   1.991   4.754
    1ECLIPH610S21264   1.582   2.134   4.842
    1ECLIP C61121265   1.517   2.177   4.641
    1ECLIPH611R21266   1.512   2.284   4.669
    1ECLIPH611S21267   1.617   2.158   4.598
    1ECLIP C61221268   1.409   2.149   4.535
    1ECLIPH612R21269   1.402   2.040   4.516
    1ECLIPH612S21270   1.309   2.185   4.571
    1ECLIPH612T21271   1.433   2.201   4.441
    1ECLIP  C5421272   1.494   1.506   5.745
    1ECLIP H54R21273   1.402   1.445   5.733
    1ECLIP H54S21274   1.556   1.459   5.825
    1ECLIP  C5521275   1.578   1.505   5.613
    1ECLIP H55R21276   1.627   1.406   5.603
    1ECLIP H55S21277   1.659   1.580   5.623
    1ECLIP  C5621278   1.500   1.533   5.483
    1ECLIP H56R21279   1.454   1.634   5.490
    1ECLIP H56S21280   1.418   1.459   5.471
    1ECLIP  C5721281   1.586   1.538   5.355
    1ECLIP H57R21282   1.624   1.436   5.332
    1ECLIP H57S21283   1.673   1.604   5.374
    1ECLIP  C5821284   1.506   1.595   5.237
    1ECLIP H58R21285   1.414   1.534   5.224
    1ECLIP H58S21286   1.474   1.697   5.266
    1ECLIP  C5921287   1.581   1.602   5.104
    1ECLIP H59R21288   1.632   1.504   5.087
    1ECLIP H59S21289   1.661   1.679   5.110
    1ECLIP C51021290   1.488   1.631   4.985
    1ECLIPH510R21291   1.437   1.728   5.002
    1ECLIPH510S21292   1.409   1.553   4.983
    1ECLIP C51121293   1.559   1.635   4.849
    1ECLIPH511R21294   1.613   1.732   4.839
    1ECLIPH511S21295   1.636   1.554   4.848
    1ECLIP C51221296   1.466   1.614   4.728
    1ECLIPH512R21297   1.527   1.615   4.636
    1ECLIPH512S21298   1.419   1.513   4.737
    1ECLIP C51321299   1.354   1.718   4.716
    1ECLIPH513R21300   1.401   1.819   4.709
    1ECLIPH513S21301   1.293   1.717   4.809
    1ECLIP C51421302   1.263   1.697   4.595
    1ECLIPH514R21303   1.211   1.599   4.603
    1ECLIPH514S21304   1.188   1.778   4.591
    1ECLIPH514T21305   1.322   1.698   4.502
    1ECLIP  C3321306   1.269   2.055   6.090
    1ECLIP H33R21307   1.189   2.108   6.146
    1ECLIP  O3321308   1.308   1.945   6.170
    1ECLIP HO3321309   1.366   1.968   6.243
    1ECLIP  C3421310   1.213   1.999   5.958
    1ECLIP H34R21311   1.296   1.943   5.911
    1ECLIP H34S21312   1.187   2.081   5.888
    1ECLIP  C3521313   1.094   1.899   5.970
    1ECLIP H35R21314   1.003   1.952   6.005
    1ECLIP H35S21315   1.122   1.826   6.049
    1ECLIP  C3621316   1.068   1.821   5.840
    1ECLIP H36R21317   1.167   1.799   5.796
    1ECLIP H36S21318   1.014   1.885   5.766
    1ECLIP  C3721319   0.997   1.686   5.859
    1ECLIP H37R21320   0.888   1.702   5.874
    1ECLIP H37S21321   1.037   1.640   5.953
    1ECLIP  C3821322   1.023   1.584   5.745
    1ECLIP H38R21323   1.131   1.561   5.745
    1ECLIP H38S21324   0.969   1.490   5.768
    1ECLIP  C3921325   0.984   1.634   5.605
    1ECLIP H39R21326   1.042   1.726   5.584
    1ECLIP H39S21327   0.876   1.659   5.603
    1ECLIP C31021328   1.013   1.532   5.495
    1ECLIPH310R21329   0.939   1.449   5.499
    1ECLIPH310S21330   1.114   1.488   5.511
    1ECLIP C31121331   1.011   1.597   5.355
    1ECLIPH311R21332   0.917   1.655   5.344
    1ECLIPH311S21333   1.095   1.669   5.351
    1ECLIP C31221334   1.024   1.498   5.238
    1ECLIPH312R21335   1.106   1.426   5.260
    1ECLIPH312S21336   0.930   1.440   5.229
    1ECLIP C31321337   1.056   1.569   5.106
    1ECLIPH313R21338   0.984   1.653   5.091
    1ECLIPH313S21339   1.158   1.614   5.116
    1ECLIP C31421340   1.053   1.478   4.984
    1ECLIPH314R21341   0.951   1.439   4.966
    1ECLIPH314S21342   1.088   1.532   4.894
    1ECLIPH314T21343   1.121   1.391   5.000
    1ECLIP  C1121344   1.781   1.913   5.715
    1ECLIP  O1121345   1.704   1.827   5.674
    1ECLIP  C1221346   1.890   1.968   5.627
    1ECLIP H12R21347   1.983   1.912   5.649
    1ECLIP H12S21348   1.903   2.075   5.653
    1ECLIP  C1321349   1.859   1.959   5.476
    1ECLIP H13R21350   1.834   1.855   5.448
    1ECLIP  O1321351   1.976   1.998   5.407
    1ECLIP HO1321352   2.002   2.088   5.427
    1ECLIP  C1421353   1.746   2.055   5.431
    1ECLIP H14R21354   1.765   2.153   5.478
    1ECLIP H14S21355   1.650   2.017   5.473
    1ECLIP  C1521356   1.733   2.077   5.278
    1ECLIP H15R21357   1.828   2.123   5.245
    1ECLIP H15S21358   1.652   2.152   5.259
    1ECLIP  C1621359   1.705   1.951   5.195
    1ECLIP H16R21360   1.598   1.923   5.209
    1ECLIP H16S21361   1.766   1.867   5.233
    1ECLIP  C1721362   1.736   1.968   5.045
    1ECLIP H17R21363   1.694   2.065   5.011
    1ECLIP H17S21364   1.686   1.886   4.990
    1ECLIP  C1821365   1.887   1.963   5.016
    1ECLIP H18R21366   1.935   2.048   5.069
    1ECLIP H18S21367   1.929   1.871   5.059
    1ECLIP  C1921368   1.926   1.972   4.866
    1ECLIP H19R21369   2.036   1.983   4.863
    1ECLIP H19S21370   1.881   2.062   4.820
    1ECLIP C11021371   1.889   1.847   4.785
    1ECLIPH110R21372   1.908   1.757   4.847
    1ECLIPH110S21373   1.780   1.848   4.761
    1ECLIP C11121374   1.970   1.832   4.655
    1ECLIPH111R21375   1.937   1.910   4.583
    1ECLIPH111S21376   2.077   1.850   4.677
    1ECLIP C11221377   1.956   1.692   4.594
    1ECLIPH112R21378   2.004   1.617   4.660
    1ECLIPH112S21379   1.848   1.666   4.589
    1ECLIP C11321380   2.015   1.683   4.452
    1ECLIPH113R21381   1.986   1.774   4.395
    1ECLIPH113S21382   2.126   1.683   4.460
    1ECLIP C11421383   1.970   1.559   4.374
    1ECLIPH114R21384   2.001   1.467   4.427
    1ECLIPH114S21385   1.859   1.559   4.363
    1ECLIPH114T21386   2.016   1.559   4.273
    2AKDO    C121387   1.289   1.550   6.893
    2AKDO   O1121388   1.235   1.436   6.888
    2AKDO   O1221389   1.228   1.661   6.892
    2AKDO    C221390   1.441   1.555   6.933
    2AKDO    C621391   1.622   1.425   7.028
    2AKDO    H621392   1.680   1.454   6.938
    2AKDO    O621393   1.482   1.430   6.993
    2AKDO    C321394   1.475   1.663   7.038
    2AKDO   H3121395   1.412   1.646   7.128
    2AKDO   H3221396   1.450   1.762   6.995
    2AKDO    C421397   1.621   1.662   7.076
    2AKDO    H421398   1.681   1.681   6.985
    2AKDO    O421399   1.647   1.759   7.177
    2AKDO    C521400   1.663   1.528   7.135
    2AKDO    H521401   1.774   1.530   7.138
    2AKDO    O521402   1.616   1.509   7.273
    2AKDO    C721403   1.650   1.277   7.050
    2AKDO    H721404   1.581   1.238   7.128
    2AKDO    O721405   1.786   1.253   7.091
    2AKDO   HO721406   1.843   1.307   7.037
    2AKDO    C821407   1.621   1.206   6.920
    2AKDO   H8121408   1.519   1.232   6.885
    2AKDO   H8221409   1.692   1.243   6.844
    2AKDO    O821410   1.625   1.063   6.921
    2AKDO   HO821411   1.574   1.044   6.842
    3AKDO    C121412   1.798   1.905   7.037
    3AKDO   O1121413   1.816   2.024   6.999
    3AKDO   O1221414   1.881   1.810   7.033
    3AKDO    C221415   1.682   1.891   7.142
    3AKDO    C621416   1.460   1.969   7.195
    3AKDO    H621417   1.428   1.864   7.212
    3AKDO    O621418   1.568   1.970   7.101
    3AKDO    C321419   1.731   1.944   7.278
    3AKDO   H3121420   1.771   2.047   7.263
    3AKDO   H3221421   1.817   1.881   7.309
    3AKDO    C421422   1.623   1.942   7.380
    3AKDO    H421423   1.588   1.838   7.396
    3AKDO    O421424   1.676   1.988   7.504
    3AKDO   HO421425   1.765   1.952   7.510
    3AKDO    C521426   1.508   2.026   7.328
    3AKDO    H521427   1.424   2.019   7.400
    3AKDO    O521428   1.545   2.164   7.314
    3AKDO   HO521429   1.608   2.166   7.242
    3AKDO    C721430   1.342   2.047   7.141
    3AKDO    H721431   1.367   2.155   7.138
    3AKDO    O721432   1.227   2.025   7.224
    3AKDO   HO721433   1.156   2.045   7.162
    3AKDO    C821434   1.303   2.007   6.999
    3AKDO   H8121435   1.390   2.017   6.931
    3AKDO   H8221436   1.269   1.901   6.995
    3AKDO    O821437   1.196   2.093   6.954
    3AKDO   HO821438   1.226   2.140   6.877
    4AHEP    C121439   1.693   1.419   7.351
    4AHEP    H121440   1.676   1.317   7.309
    4AHEP    C521441   1.878   1.559   7.419
    4AHEP    H521442   1.824   1.644   7.372
    4AHEP    O521443   1.835   1.438   7.353
    4AHEP    C221444   1.645   1.413   7.497
    4AHEP    H221445   1.534   1.411   7.492
    4AHEP    O221446   1.690   1.293   7.561
    4AHEP   HO221447   1.785   1.294   7.546
    4AHEP    C321448   1.686   1.538   7.573
    4AHEP    H321449   1.639   1.626   7.526
    4AHEP    O321450   1.645   1.523   7.712
    4AHEP    C421451   1.837   1.553   7.568
    4AHEP    H421452   1.881   1.461   7.613
    4AHEP    O421453   1.875   1.669   7.644
    4AHEP    P421454   2.014   1.676   7.735
    4AHEP  OP4221455   1.988   1.745   7.867
    4AHEP  OP4321456   2.116   1.757   7.657
    4AHEP  OP4421457   2.072   1.536   7.752
    4AHEP    C621458   2.028   1.585   7.394
    4AHEP    H621459   2.049   1.689   7.429
    4AHEP    O621460   2.107   1.494   7.472
    4AHEP   HO621461   2.105   1.536   7.559
    4AHEP    C721462   2.071   1.580   7.247
    4AHEP   H7121463   2.176   1.614   7.240
    4AHEP   H7221464   2.009   1.654   7.190
    4AHEP    O721465   2.061   1.454   7.181
    4AHEP   HO721466   2.080   1.476   7.089
    5AHEP    C121467   1.544   1.610   7.755
    5AHEP    H121468   1.554   1.709   7.707
    5AHEP    C521469   1.394   1.427   7.794
    5AHEP    H521470   1.470   1.358   7.753
    5AHEP    O521471   1.412   1.557   7.733
    5AHEP    C221472   1.564   1.628   7.905
    5AHEP    H221473   1.669   1.660   7.921
    5AHEP    O221474   1.480   1.731   7.959
    5AHEP   HO221475   1.522   1.816   7.943
    5AHEP    C321476   1.547   1.494   7.976
    5AHEP    H321477   1.626   1.425   7.938
    5AHEP    O321478   1.557   1.507   8.120
    5AHEP    C421479   1.411   1.436   7.946
    5AHEP    H421480   1.331   1.496   7.993
    5AHEP    O421481   1.413   1.301   7.992
    5AHEP    P421482   1.325   1.232   8.110
    5AHEP  OP4221483   1.381   1.090   8.116
    5AHEP  OP4321484   1.184   1.211   8.057
    5AHEP  OP4421485   1.337   1.309   8.240
    5AHEP    C621486   1.256   1.379   7.752
    5AHEP    H621487   1.235   1.284   7.806
    5AHEP    O621488   1.156   1.473   7.792
    5AHEP   HO621489   1.209   1.551   7.811
    5AHEP    C721490   1.250   1.353   7.602
    5AHEP   H7121491   1.218   1.247   7.587
    5AHEP   H7221492   1.351   1.358   7.556
    5AHEP    O721493   1.156   1.434   7.530
    6AHEP    C121494   1.213   1.545   7.462
    6AHEP    H121495   1.324   1.548   7.470
    6AHEP    C521496   1.033   1.532   7.306
    6AHEP    H521497   0.999   1.440   7.358
    6AHEP    O521498   1.176   1.542   7.323
    6AHEP    C221499   1.155   1.671   7.524
    6AHEP    H221500   1.183   1.672   7.632
    6AHEP    O221501   1.206   1.792   7.469
    6AHEP   HO221502   1.218   1.784   7.373
    6AHEP    C321503   1.004   1.663   7.514
    6AHEP    H321504   0.971   1.570   7.565
    6AHEP    O321505   0.940   1.771   7.582
    6AHEP   HO321506   0.981   1.851   7.549
    6AHEP    C421507   0.965   1.653   7.367
    6AHEP    H421508   0.997   1.744   7.314
    6AHEP    O421509   0.823   1.640   7.353
    6AHEP   HO421510   0.801   1.547   7.347
    6AHEP    C621511   0.993   1.511   7.160
    6AHEP    H621512   0.882   1.512   7.150
    6AHEP    O621513   1.039   1.622   7.082
    6AHEP   HO621514   1.121   1.600   7.036
    6AHEP    C721515   1.038   1.377   7.103
    6AHEP   H7121516   1.017   1.373   6.995
    6AHEP   H7221517   0.976   1.298   7.151
    6AHEP    O721518   1.174   1.341   7.127
    6AHEP   HO721519   1.224   1.381   7.054
    7AGLC    C121520   1.681   1.472   8.174
    7AGLC    H121521   1.718   1.378   8.127
    7AGLC    C521522   1.736   1.702   8.209
    7AGLC    H521523   1.637   1.730   8.168
    7AGLC    O521524   1.778   1.576   8.153
    7AGLC    C221525   1.665   1.452   8.323
    7AGLC    H221526   1.765   1.426   8.363
    7AGLC    O221527   1.582   1.339   8.352
    7AGLC   HO221528   1.497   1.345   8.306
    7AGLC    C321529   1.620   1.579   8.392
    7AGLC    H321530   1.521   1.608   8.349
    7AGLC    O321531   1.610   1.564   8.536
    7AGLC    C421532   1.722   1.687   8.360
    7AGLC    H421533   1.820   1.654   8.400
    7AGLC    O421534   1.689   1.813   8.419
    7AGLC   HO421535   1.771   1.859   8.438
    7AGLC    C621536   1.835   1.809   8.167
    7AGLC   H6121537   1.840   1.809   8.056
    7AGLC   H6221538   1.799   1.909   8.197
    7AGLC    O621539   1.966   1.787   8.219
    7AGLC   HO621540   2.020   1.761   8.144
    8AGLC    C121541   1.481   1.586   8.589
    8AGLC    H121542   1.434   1.672   8.538
    8AGLC    C521543   1.447   1.353   8.637
    8AGLC    H521544   1.551   1.334   8.601
    8AGLC    O521545   1.397   1.471   8.572
    8AGLC    C221546   1.488   1.613   8.740
    8AGLC    H221547   1.384   1.632   8.774
    8AGLC    O221548   1.568   1.726   8.774
    8AGLC    C321549   1.542   1.494   8.815
    8AGLC    H321550   1.643   1.471   8.773
    8AGLC    O321551   1.563   1.532   8.954
    8AGLC    C421552   1.453   1.374   8.788
    8AGLC    H421553   1.350   1.394   8.822
    8AGLC    O421554   1.500   1.257   8.855
    8AGLC   HO421555   1.502   1.184   8.792
    8AGLC    C621556   1.362   1.236   8.590
    8AGLC   H6121557   1.341   1.249   8.483
    8AGLC   H6221558   1.419   1.141   8.601
    8AGLC    O621559   1.238   1.223   8.662
    8AGLC   HO621560   1.178   1.172   8.608
    9AGAL    C121561   1.536   1.852   8.721
    9AGAL    H121562   1.535   1.849   8.610
    9AGAL    C521563   1.402   1.904   8.911
    9AGAL    H521564   1.430   1.804   8.950
    9AGAL    O521565   1.408   1.899   8.768
    9AGAL    C221566   1.648   1.943   8.767
    9AGAL    H221567   1.632   2.044   8.726
    9AGAL    O221568   1.766   1.887   8.705
    9AGAL    C321569   1.644   1.953   8.920
    9AGAL    H321570   1.657   1.850   8.962
    9AGAL    O321571   1.748   2.032   8.976
    9AGAL   HO321572   1.830   1.986   8.957
    9AGAL    C421573   1.507   2.003   8.964
    9AGAL    H421574   1.505   2.001   9.075
    9AGAL    O421575   1.479   2.138   8.926
    9AGAL   HO421576   1.440   2.135   8.839
    9AGAL    C621577   1.259   1.925   8.957
    9AGAL   H6121578   1.196   1.842   8.918
    9AGAL   H6221579   1.255   1.920   9.068
    9AGAL    O621580   1.201   2.048   8.915
    9AGAL   HO621581   1.182   2.044   8.821
   10AGAL    C121582   1.895   1.910   8.755
   10AGAL    H121583   1.910   2.020   8.767
   10AGAL    C521584   1.900   1.700   8.868
   10AGAL    H521585   1.803   1.678   8.818
   10AGAL    O521586   1.913   1.844   8.882
   10AGAL    C221587   2.001   1.860   8.656
   10AGAL    H221588   2.101   1.888   8.696
   10AGAL    O221589   1.985   1.923   8.530
   10AGAL   HO221590   2.061   1.907   8.473
   10AGAL    C321591   1.993   1.709   8.642
   10AGAL    H321592   1.893   1.682   8.604
   10AGAL    O321593   2.090   1.658   8.550
   10AGAL   HO321594   2.056   1.661   8.460
   10AGAL    C421595   2.009   1.644   8.780
   10AGAL    H421596   1.995   1.535   8.767
   10AGAL    O421597   2.137   1.667   8.839
   10AGAL   HO421598   2.205   1.654   8.773
   10AGAL    C621599   1.890   1.632   9.004
   10AGAL   H6121600   1.796   1.665   9.054
   10AGAL   H6221601   1.883   1.522   8.990
   10AGAL    O621602   2.002   1.662   9.089
   10AGAL   HO621603   2.078   1.654   9.030
   11BGLC    C121604   1.466   1.501   9.051
   11BGLC    H121605   1.468   1.392   9.072
   11BGLC    C521606   1.232   1.513   9.104
   11BGLC    H521607   1.240   1.407   9.134
   11BGLC    O521608   1.335   1.542   9.007
   11BGLC    C221609   1.500   1.579   9.179
   11BGLC    H221610   1.502   1.687   9.149
   11BGLC    O221611   1.628   1.546   9.233
   11BGLC   HO221612   1.684   1.624   9.240
   11BGLC    C321613   1.395   1.558   9.285
   11BGLC    H321614   1.394   1.450   9.311
   11BGLC    O321615   1.418   1.637   9.403
   11BGLC    C421616   1.260   1.596   9.229
   11BGLC    H421617   1.260   1.703   9.201
   11BGLC    O421618   1.160   1.575   9.328
   11BGLC   HO421619   1.204   1.551   9.410
   11BGLC    C621620   1.097   1.537   9.038
   11BGLC   H6121621   1.029   1.589   9.109
   11BGLC   H6221622   1.108   1.602   8.950
   11BGLC    O621623   1.034   1.413   9.000
   11BGLC   HO621624   1.021   1.411   8.905
   12BGLCN   C121625   1.454   1.566   9.517
   12BGLCN   H121626   1.552   1.515   9.502
   12BGLCN   C521627   1.383   1.397   9.670
   12BGLCN   H521628   1.483   1.350   9.658
   12BGLCN   O521629   1.352   1.470   9.550
   12BGLCN   C221630   1.463   1.669   9.629
   12BGLCN   H221631   1.363   1.716   9.638
   12BGLCN    N21632   1.560   1.771   9.591
   12BGLCN   HN21633   1.638   1.741   9.536
   12BGLCN    C21634   1.549   1.902   9.615
   12BGLCN    O21635   1.456   1.951   9.677
   12BGLCN   CT21636   1.660   1.987   9.561
   12BGLCN  HT121637   1.695   2.058   9.639
   12BGLCN  HT221638   1.625   2.044   9.472
   12BGLCN  HT321639   1.746   1.924   9.530
   12BGLCN   C321640   1.496   1.600   9.762
   12BGLCN   H321641   1.597   1.555   9.756
   12BGLCN   O321642   1.491   1.698   9.870
   12BGLCN   C421643   1.390   1.494   9.787
   12BGLCN   H421644   1.291   1.543   9.799
   12BGLCN   O421645   1.417   1.419   9.906
   12BGLCN  HO421646   1.435   1.328   9.884
   12BGLCN   C621647   1.278   1.289   9.683
   12BGLCN  H6121648   1.262   1.262   9.790
   12BGLCN  H6221649   1.180   1.324   9.644
   12BGLCN   O621650   1.318   1.169   9.616
   12BGLCN  HO621651   1.296   1.174   9.523
   13AGAL    C121652   1.573   1.676   9.983
   13AGAL    H121653   1.574   1.568  10.011
   13AGAL    C521654   1.719   1.858   9.931
   13AGAL    H521655   1.653   1.879   9.844
   13AGAL    O521656   1.709   1.718   9.960
   13AGAL    C221657   1.523   1.755  10.104
   13AGAL    H221658   1.602   1.743  10.181
   13AGAL    O221659   1.402   1.703  10.164
   13AGAL    C321660   1.522   1.903  10.072
   13AGAL    H321661   1.463   1.918   9.979
   13AGAL    O321662   1.460   1.981  10.174
   13AGAL   HO321663   1.406   2.049  10.132
   13AGAL    C421664   1.667   1.945  10.045
   13AGAL    H421665   1.666   2.051  10.011
   13AGAL    O421666   1.750   1.938  10.161
   13AGAL   HO421667   1.762   1.846  10.188
   13AGAL    C621668   1.860   1.892   9.884
   13AGAL   H6121669   1.889   1.825   9.800
   13AGAL   H6221670   1.863   1.996   9.844
   13AGAL    O621671   1.958   1.881   9.987
   13AGAL   HO621672   1.925   1.930  10.063
   14ARHM    C121673   1.418   1.650  10.295
   14ARHM    H121674   1.516   1.598  10.301
   14ARHM    C521675   1.189   1.594  10.334
   14ARHM    H521676   1.159   1.636  10.235
   14ARHM    O521677   1.324   1.546  10.325
   14ARHM    C221678   1.414   1.759  10.401
   14ARHM    H221679   1.485   1.839  10.373
   14ARHM    O221680   1.447   1.718  10.535
   14ARHM    C321681   1.274   1.816  10.410
   14ARHM    H321682   1.247   1.858  10.309
   14ARHM    O321683   1.267   1.923  10.505
   14ARHM   HO321684   1.278   1.881  10.591
   14ARHM    C421685   1.176   1.703  10.440
   14ARHM    H421686   1.206   1.658  10.538
   14ARHM    O421687   1.041   1.748  10.453
   14ARHM   HO421688   0.990   1.686  10.506
   14ARHM    C621689   1.105   1.468  10.363
   14ARHM   H6121690   1.124   1.391  10.285
   14ARHM   H6221691   1.134   1.425  10.462
   14ARHM   H6321692   0.997   1.492  10.365
   15ARHM    C121693   1.571   1.656  10.557
   15ARHM    H121694   1.648   1.696  10.488
   15ARHM    C521695   1.458   1.458  10.628
   15ARHM    H521696   1.360   1.502  10.599
   15ARHM    O521697   1.561   1.513  10.545
   15ARHM    C221698   1.608   1.687  10.701
   15ARHM    H221699   1.616   1.798  10.712
   15ARHM    O221700   1.738   1.629  10.726
   15ARHM    C321701   1.500   1.636  10.793
   15ARHM    H321702   1.404   1.685  10.764
   15ARHM    O321703   1.529   1.672  10.929
   15ARHM    C421704   1.486   1.487  10.775
   15ARHM    H421705   1.582   1.438  10.804
   15ARHM    O421706   1.381   1.437  10.857
   15ARHM   HO421707   1.383   1.341  10.863
   15ARHM    C621708   1.450   1.307  10.596
   15ARHM   H6121709   1.368   1.259  10.653
   15ARHM   H6221710   1.432   1.293  10.488
   15ARHM   H6321711   1.546   1.257  10.622
   16BMANN   C121712   1.800   1.656  10.848
   16BMANN   H121713   1.751   1.598  10.929
   16BMANN   C521714   1.865   1.819  11.009
   16BMANN   H521715   1.809   1.762  11.088
   16BMANN   O521716   1.802   1.796  10.881
   16BMANN   C221717   1.942   1.609  10.833
   16BMANN   H221718   1.938   1.500  10.811
   16BMANN    N21719   2.007   1.678  10.722
   16BMANN   HN21720   1.991   1.777  10.717
   16BMANN    C21721   2.072   1.619  10.622
   16BMANN    O21722   2.088   1.498  10.615
   16BMANN   CT21723   2.125   1.710  10.514
   16BMANN  HT121724   2.224   1.673  10.479
   16BMANN  HT221725   2.137   1.813  10.554
   16BMANN  HT321726   2.054   1.711  10.429
   16BMANN   C321727   2.012   1.625  10.967
   16BMANN   H321728   1.956   1.568  11.043
   16BMANN   O321729   2.144   1.572  10.963
   16BMANN  HO321730   2.198   1.615  11.030
   16BMANN   C421731   2.010   1.772  11.006
   16BMANN   H421732   2.065   1.833  10.932
   16BMANN   O421733   2.071   1.791  11.134
   16BMANN  HO421734   2.166   1.793  11.125
   16BMANN   C621735   1.852   1.967  11.044
   16BMANN  H6121736   1.897   1.985  11.144
   16BMANN  H6221737   1.908   2.028  10.970
   16BMANN   O621738   1.716   2.012  11.050
   16BMANN  HO621739   1.692   2.045  10.963
   17BGLCN   C121740   1.419   1.712  11.005
   17BGLCN   H121741   1.331   1.646  10.986
   17BGLCN   C521742   1.277   1.895  11.062
   17BGLCN   H521743   1.187   1.832  11.044
   17BGLCN   O521744   1.385   1.849  10.981
   17BGLCN   C221745   1.465   1.698  11.148
   17BGLCN   H221746   1.544   1.775  11.163
   17BGLCN    N21747   1.529   1.569  11.172
   17BGLCN   HN21748   1.510   1.498  11.106
   17BGLCN    C21749   1.618   1.549  11.270
   17BGLCN    O21750   1.648   1.635  11.352
   17BGLCN   CT21751   1.680   1.412  11.276
   17BGLCN  HT121752   1.767   1.407  11.207
   17BGLCN  HT221753   1.606   1.334  11.248
   17BGLCN  HT321754   1.715   1.392  11.380
   17BGLCN   C321755   1.347   1.733  11.238
   17BGLCN   H321756   1.261   1.673  11.203
   17BGLCN   O321757   1.370   1.698  11.377
   17BGLCN   C421758   1.316   1.879  11.210
   17BGLCN   H421759   1.409   1.938  11.227
   17BGLCN   O421760   1.219   1.935  11.297
   17BGLCN  HO421761   1.132   1.896  11.286
   17BGLCN   C621762   1.244   2.038  11.022
   17BGLCN  H6121763   1.159   2.076  11.082
   17BGLCN  H6221764   1.332   2.102  11.041
   17BGLCN   O621765   1.209   2.049  10.883
   17BGLCN  HO621766   1.136   1.990  10.863
   18AGAL    C121767   1.255   1.654  11.449
   18AGAL    H121768   1.181   1.737  11.456
   18AGAL    C521769   1.275   1.423  11.381
   18AGAL    H521770   1.366   1.448  11.325
   18AGAL    O521771   1.191   1.541  11.385
   18AGAL    C221772   1.292   1.611  11.589
   18AGAL    H221773   1.197   1.574  11.634
   18AGAL    O221774   1.334   1.722  11.672
   18AGAL    C321775   1.391   1.495  11.585
   18AGAL    H321776   1.477   1.527  11.523
   18AGAL    O321777   1.445   1.458  11.713
   18AGAL   HO321778   1.538   1.434  11.701
   18AGAL    C421779   1.321   1.378  11.519
   18AGAL    H421780   1.395   1.296  11.505
   18AGAL    O421781   1.216   1.326  11.600
   18AGAL   HO421782   1.244   1.336  11.693
   18AGAL    C621783   1.205   1.313  11.302
   18AGAL   H6121784   1.219   1.333  11.194
   18AGAL   H6221785   1.252   1.215  11.324
   18AGAL    O621786   1.065   1.306  11.328
   18AGAL   HO621787   1.033   1.396  11.335
   19ARHM    C121788   1.295   1.707  11.805
   19ARHM    H121789   1.291   1.599  11.833
   19ARHM    C521790   1.157   1.902  11.812
   19ARHM    H521791   1.175   1.925  11.706
   19ARHM    O521792   1.165   1.761  11.835
   19ARHM    C221793   1.401   1.775  11.891
   19ARHM    H221794   1.500   1.741  11.852
   19ARHM    O221795   1.390   1.740  12.030
   19ARHM    C321796   1.398   1.924  11.867
   19ARHM    H321797   1.418   1.941  11.759
   19ARHM    O321798   1.501   1.992  11.939
   19ARHM   HO321799   1.467   2.023  12.023
   19ARHM    C421800   1.259   1.975  11.899
   19ARHM    H421801   1.236   1.950  12.005
   19ARHM    O421802   1.247   2.117  11.885
   19ARHM   HO421803   1.285   2.142  11.800
   19ARHM    C621804   1.012   1.940  11.847
   19ARHM   H6121805   0.941   1.885  11.781
   19ARHM   H6221806   0.990   1.913  11.953
   19ARHM   H6321807   0.995   2.049  11.836
   20ARHM    C121808   1.434   1.609  12.055
   20ARHM    H121809   1.500   1.573  11.974
   20ARHM    C521810   1.239   1.542  12.175
   20ARHM    H521811   1.193   1.642  12.161
   20ARHM    O521812   1.328   1.514  12.066
   20ARHM    C221813   1.513   1.611  12.184
   20ARHM    H221814   1.588   1.693  12.179
   20ARHM    O221815   1.580   1.486  12.207
   20ARHM    C321816   1.424   1.641  12.302
   20ARHM    H321817   1.380   1.743  12.288
   20ARHM    O321818   1.505   1.639  12.419
   20ARHM    C421819   1.314   1.538  12.307
   20ARHM    H421820   1.359   1.438  12.319
   20ARHM    O421821   1.226   1.559  12.418
   20ARHM   HO421822   1.143   1.514  12.398
   20ARHM    C621823   1.129   1.435  12.166
   20ARHM   H6121824   1.173   1.334  12.179
   20ARHM   H6221825   1.051   1.451  12.245
   20ARHM   H6321826   1.081   1.440  12.066
   21BMANN   C121827   1.694   1.469  12.127
   21BMANN   H121828   1.711   1.557  12.061
   21BMANN   C521829   1.796   1.333  11.960
   21BMANN   H521830   1.810   1.423  11.897
   21BMANN   O521831   1.681   1.352  12.044
   21BMANN   C221832   1.811   1.452  12.221
   21BMANN   H221833   1.820   1.546  12.279
   21BMANN    N21834   1.783   1.346  12.318
   21BMANN   HN21835   1.701   1.293  12.300
   21BMANN    C21836   1.851   1.326  12.430
   21BMANN    O21837   1.951   1.390  12.460
   21BMANN   CT21838   1.799   1.219  12.523
   21BMANN  HT121839   1.856   1.126  12.506
   21BMANN  HT221840   1.691   1.202  12.505
   21BMANN  HT321841   1.813   1.253  12.628
   21BMANN   C321842   1.935   1.436  12.137
   21BMANN   H321843   1.943   1.525  12.071
   21BMANN   O321844   2.055   1.435  12.214
   21BMANN  HO321845   2.032   1.414  12.304
   21BMANN   C421846   1.921   1.314  12.047
   21BMANN   H421847   1.908   1.223  12.109
   21BMANN   O421848   2.036   1.295  11.964
   21BMANN  HO421849   2.107   1.261  12.019
   21BMANN   C621850   1.766   1.217  11.867
   21BMANN  H6121851   1.850   1.202  11.797
   21BMANN  H6221852   1.754   1.123  11.925
   21BMANN   O621853   1.647   1.242  11.791
   21BMANN  HO621854   1.574   1.257  11.852
   22BGLCN   C121855   1.469   1.732  12.517
   22BGLCN   H121856   1.361   1.759  12.509
   22BGLCN   C521857   1.519   1.944  12.610
   22BGLCN   H521858   1.411   1.969  12.604
   22BGLCN   O521859   1.551   1.849  12.508
   22BGLCN   C221860   1.496   1.662  12.648
   22BGLCN   H221861   1.604   1.637  12.651
   22BGLCN    N21862   1.419   1.538  12.652
   22BGLCN   HN21863   1.336   1.539  12.597
   22BGLCN    C21864   1.457   1.423  12.710
   22BGLCN    O21865   1.565   1.406  12.765
   22BGLCN   CT21866   1.358   1.311  12.700
   22BGLCN  HT121867   1.339   1.285  12.595
   22BGLCN  HT221868   1.262   1.341  12.749
   22BGLCN  HT321869   1.398   1.222  12.755
   22BGLCN   C321870   1.465   1.757  12.762
   22BGLCN   H321871   1.357   1.783  12.756
   22BGLCN   O321872   1.490   1.681  12.881
   22BGLCN   C421873   1.546   1.884  12.748
   22BGLCN   H421874   1.654   1.859  12.756
   22BGLCN   O421875   1.510   1.980  12.845
   22BGLCN  HO421876   1.587   2.024  12.884
   22BGLCN   C621877   1.598   2.071  12.581
   22BGLCN  H6121878   1.595   2.139  12.668
   22BGLCN  H6221879   1.704   2.045  12.558
   22BGLCN   O621880   1.543   2.142  12.470
   22BGLCN  HO621881   1.576   2.104  12.387
   23AGAL    C121882   1.443   1.731  13.005
   23AGAL    H121883   1.503   1.819  13.034
   23AGAL    C521884   1.220   1.656  12.967
   23AGAL    H521885   1.257   1.611  12.873
   23AGAL    O521886   1.304   1.768  12.999
   23AGAL    C221887   1.461   1.623  13.111
   23AGAL    H221888   1.429   1.666  13.208
   23AGAL    O221889   1.599   1.583  13.121
   23AGAL    C321890   1.373   1.504  13.082
   23AGAL    H321891   1.403   1.463  12.984
   23AGAL    O321892   1.390   1.398  13.176
   23AGAL   HO321893   1.324   1.407  13.245
   23AGAL    C421894   1.229   1.549  13.075
   23AGAL    H421895   1.166   1.463  13.045
   23AGAL    O421896   1.182   1.598  13.200
   23AGAL   HO421897   1.108   1.655  13.179
   23AGAL    C621898   1.080   1.706  12.933
   23AGAL   H6121899   1.088   1.796  12.868
   23AGAL   H6221900   1.028   1.627  12.874
   23AGAL    O621901   0.998   1.737  13.047
   23AGAL   HO621902   0.912   1.697  13.031
   24ARHM    C121903   1.675   1.653  13.215
   24ARHM    H121904   1.633   1.755  13.227
   24ARHM    C521905   1.879   1.548  13.155
   24ARHM    H521906   1.825   1.487  13.079
   24ARHM    O521907   1.810   1.672  13.172
   24ARHM    C221908   1.670   1.580  13.347
   24ARHM    H221909   1.564   1.557  13.373
   24ARHM    O221910   1.727   1.659  13.453
   24ARHM    C321911   1.741   1.447  13.335
   24ARHM    H321912   1.688   1.385  13.260
   24ARHM    O321913   1.739   1.378  13.460
   24ARHM   HO321914   1.827   1.382  13.498
   24ARHM    C421915   1.884   1.472  13.287
   24ARHM    H421916   1.936   1.536  13.361
   24ARHM    O421917   1.957   1.351  13.273
   24ARHM   HO421918   2.050   1.371  13.259
   24ARHM    C621919   2.017   1.583  13.097
   24ARHM   H6121920   2.075   1.492  13.072
   24ARHM   H6221921   2.003   1.642  13.005
   24ARHM   H6321922   2.074   1.646  13.170
   25ARHM    C121923   1.638   1.753  13.508
   25ARHM    H121924   1.553   1.770  13.437
   25ARHM    C521925   1.807   1.875  13.620
   25ARHM    H521926   1.884   1.804  13.583
   25ARHM    O521927   1.700   1.881  13.524
   25ARHM    C221928   1.583   1.699  13.637
   25ARHM    H221929   1.543   1.597  13.621
   25ARHM    O221930   1.482   1.784  13.693
   25ARHM    C321931   1.694   1.690  13.739
   25ARHM    H321932   1.771   1.620  13.703
   25ARHM    O321933   1.636   1.640  13.859
   25ARHM    C421934   1.755   1.828  13.755
   25ARHM    H421935   1.676   1.899  13.788
   25ARHM    O421936   1.859   1.831  13.853
   25ARHM   HO421937   1.915   1.906  13.835
   25ARHM    C621938   1.866   2.017  13.620
   25ARHM   H6121939   1.901   2.043  13.517
   25ARHM   H6221940   1.789   2.091  13.648
   25ARHM   H6321941   1.952   2.025  13.689
   26BMANN   C121942   1.355   1.771  13.637
   26BMANN   H121943   1.334   1.665  13.611
   26BMANN   C521944   1.209   1.848  13.464
   26BMANN   H521945   1.190   1.743  13.432
   26BMANN   O521946   1.341   1.855  13.522
   26BMANN   C221947   1.259   1.819  13.745
   26BMANN   H221948   1.270   1.749  13.829
   26BMANN    N21949   1.291   1.953  13.793
   26BMANN   HN21950   1.335   2.014  13.727
   26BMANN    C21951   1.266   1.998  13.916
   26BMANN    O21952   1.209   1.932  14.003
   26BMANN   CT21953   1.312   2.138  13.946
   26BMANN  HT121954   1.328   2.194  13.852
   26BMANN  HT221955   1.407   2.134  14.005
   26BMANN  HT321956   1.235   2.190  14.008
   26BMANN   C321957   1.118   1.804  13.689
   26BMANN   H321958   1.105   1.698  13.659
   26BMANN   O321959   1.019   1.834  13.787
   26BMANN  HO321960   0.973   1.754  13.812
   26BMANN   C421961   1.104   1.890  13.565
   26BMANN   H421962   1.122   1.997  13.592
   26BMANN   O421963   0.973   1.880  13.509
   26BMANN  HO421964   0.924   1.956  13.543
   26BMANN   C621965   1.210   1.934  13.338
   26BMANN  H6121966   1.295   1.904  13.273
   26BMANN  H6221967   1.116   1.916  13.281
   26BMANN   O621968   1.221   2.074  13.366
   26BMANN  HO621969   1.193   2.124  13.288
   27BGLCN   C121970   1.720   1.561  13.939
   27BGLCN   H121971   1.826   1.595  13.932
   27BGLCN   C521972   1.792   1.340  13.991
   27BGLCN   H521973   1.897   1.376  13.984
   27BGLCN   O521974   1.711   1.423  13.905
   27BGLCN   C221975   1.667   1.582  14.078
   27BGLCN   H221976   1.562   1.545  14.082
   27BGLCN    N21977   1.666   1.725  14.107
   27BGLCN   HN21978   1.726   1.780  14.051
   27BGLCN    C21979   1.578   1.787  14.189
   27BGLCN    O21980   1.491   1.728  14.252
   27BGLCN   CT21981   1.592   1.936  14.200
   27BGLCN  HT121982   1.671   1.974  14.130
   27BGLCN  HT221983   1.618   1.963  14.304
   27BGLCN  HT321984   1.495   1.983  14.175
   27BGLCN   C321985   1.749   1.500  14.175
   27BGLCN   H321986   1.854   1.533  14.162
   27BGLCN   O321987   1.705   1.529  14.309
   27BGLCN   C421988   1.744   1.353  14.134
   27BGLCN   H421989   1.639   1.318  14.141
   27BGLCN   O421990   1.824   1.271  14.220
   27BGLCN  HO421991   1.911   1.309  14.229
   27BGLCN   C621992   1.790   1.200  13.933
   27BGLCN  H6121993   1.849   1.131  13.998
   27BGLCN  H6221994   1.685   1.161  13.932
   27BGLCN   O621995   1.845   1.197  13.801
   27BGLCN  HO621996   1.780   1.236  13.741
   28AGAL    C121997   1.793   1.499  14.416
   28AGAL    H121998   1.789   1.389  14.436
   28AGAL    C521999   1.940   1.679  14.367
   28AGAL    H522000   1.865   1.713  14.293
   28AGAL    O522001   1.928   1.536  14.384
   28AGAL    C222002   1.753   1.568  14.546
   28AGAL    H222003   1.828   1.533  14.620
   28AGAL    O222004   1.621   1.530  14.593
   28AGAL    C322005   1.765   1.718  14.535
   28AGAL    H322006   1.696   1.751  14.454
   28AGAL    O322007   1.725   1.785  14.654
   28AGAL   HO322008   1.694   1.874  14.635
   28AGAL    C422009   1.908   1.753  14.496
   28AGAL    H422010   1.914   1.862  14.476
   28AGAL    O422011   2.004   1.723  14.598
   28AGAL   HO422012   2.083   1.693  14.554
   28AGAL    C622013   2.075   1.709  14.302
   28AGAL   H6122014   2.087   1.649  14.210
   28AGAL   H6222015   2.074   1.816  14.273
   28AGAL    O622016   2.187   1.686  14.388
   28AGAL   HO622017   2.209   1.593  14.390
   29ARHM    C122018   1.620   1.496  14.730
   29ARHM    H122019   1.703   1.550  14.782
   29ARHM    C522020   1.531   1.280  14.685
   29ARHM    H522021   1.531   1.302  14.576
   29ARHM    O522022   1.636   1.355  14.748
   29ARHM    C222023   1.490   1.539  14.796
   29ARHM    H222024   1.477   1.648  14.778
   29ARHM    O222025   1.492   1.512  14.938
   29ARHM    C322026   1.375   1.467  14.731
   29ARHM    H322027   1.373   1.492  14.622
   29ARHM    O322028   1.250   1.507  14.787
   29ARHM   HO322029   1.256   1.499  14.882
   29ARHM    C422030   1.396   1.317  14.744
   29ARHM    H422031   1.396   1.289  14.852
   29ARHM    O422032   1.291   1.246  14.679
   29ARHM   HO422033   1.219   1.308  14.666
   29ARHM    C622034   1.567   1.132  14.704
   29ARHM   H6122035   1.666   1.110  14.660
   29ARHM   H6222036   1.570   1.107  14.813
   29ARHM   H6322037   1.491   1.067  14.655
   30ARHM    C122038   1.533   1.621  15.017
   30ARHM    H122039   1.471   1.709  14.992
   30ARHM    C522040   1.762   1.551  15.034
   30ARHM    H522041   1.739   1.458  14.977
   30ARHM    O522042   1.671   1.656  14.997
   30ARHM    C222043   1.513   1.589  15.165
   30ARHM    H222044   1.409   1.554  15.179
   30ARHM    O222045   1.537   1.704  15.246
   30ARHM    C322046   1.607   1.479  15.209
   30ARHM    H322047   1.585   1.389  15.147
   30ARHM    O322048   1.583   1.440  15.346
   30ARHM    C422049   1.750   1.519  15.182
   30ARHM    H422050   1.776   1.611  15.238
   30ARHM    O422051   1.840   1.416  15.219
   30ARHM   HO422052   1.842   1.413  15.315
   30ARHM    C622053   1.902   1.599  14.991
   30ARHM   H6122054   1.979   1.522  15.013
   30ARHM   H6222055   1.904   1.621  14.883
   30ARHM   H6322056   1.928   1.692  15.046
   31BMANN   C122057   1.430   1.792  15.267
   31BMANN   H122058   1.335   1.738  15.282
   31BMANN   C522059   1.320   1.988  15.185
   31BMANN   H522060   1.223   1.937  15.202
   31BMANN   O522061   1.422   1.888  15.162
   31BMANN   C222062   1.472   1.867  15.392
   31BMANN   H222063   1.471   1.793  15.475
   31BMANN    N22064   1.609   1.917  15.381
   31BMANN   HN22065   1.645   1.921  15.288
   31BMANN    C22066   1.687   1.949  15.484
   31BMANN    O22067   1.645   1.946  15.599
   31BMANN   CT22068   1.829   1.988  15.454
   31BMANN  HT122069   1.836   2.039  15.355
   31BMANN  HT222070   1.892   1.897  15.452
   31BMANN  HT322071   1.866   2.056  15.533
   31BMANN   C322072   1.367   1.970  15.425
   31BMANN   H322073   1.269   1.919  15.434
   31BMANN   O322074   1.389   2.033  15.550
   31BMANN  HO322075   1.479   2.015  15.580
   31BMANN   C422076   1.355   2.068  15.310
   31BMANN   H422077   1.453   2.119  15.294
   31BMANN   O422078   1.258   2.169  15.336
   31BMANN  HO422079   1.275   2.200  15.425
   31BMANN   C622080   1.305   2.071  15.059
   31BMANN  H6122081   1.229   2.150  15.076
   31BMANN  H6222082   1.401   2.121  15.035
   31BMANN   O622083   1.265   1.993  14.946
   31BMANN  HO622084   1.175   1.961  14.957
   32BGLCN   C122085   1.643   1.516  15.449
   32BGLCN   H122086   1.649   1.623  15.422
   32BGLCN   C522087   1.836   1.548  15.586
   32BGLCN   H522088   1.842   1.654  15.554
   32BGLCN   O522089   1.774   1.469  15.483
   32BGLCN   C222090   1.553   1.501  15.571
   32BGLCN   H222091   1.562   1.396  15.606
   32BGLCN    N22092   1.414   1.521  15.533
   32BGLCN   HN22093   1.398   1.562  15.444
   32BGLCN    C22094   1.309   1.465  15.596
   32BGLCN    O22095   1.318   1.404  15.701
   32BGLCN   CT22096   1.176   1.483  15.529
   32BGLCN  HT122097   1.178   1.566  15.455
   32BGLCN  HT222098   1.098   1.505  15.606
   32BGLCN  HT322099   1.147   1.389  15.476
   32BGLCN   C322100   1.610   1.593  15.679
   32BGLCN   H322101   1.618   1.694  15.634
   32BGLCN   O322102   1.531   1.604  15.798
   32BGLCN   C422103   1.749   1.542  15.712
   32BGLCN   H422104   1.742   1.437  15.745
   32BGLCN   O422105   1.807   1.616  15.818
   32BGLCN  HO422106   1.752   1.606  15.895
   32BGLCN   C622107   1.978   1.497  15.608
   32BGLCN  H6122108   2.021   1.542  15.700
   32BGLCN  H6222109   1.975   1.387  15.622
   32BGLCN   O622110   2.065   1.529  15.499
   32BGLCN  HO622111   2.087   1.622  15.502
   33AGAL    C122112   1.525   1.735  15.853
   33AGAL    H122113   1.620   1.791  15.835
   33AGAL    C522114   1.289   1.748  15.819
   33AGAL    H522115   1.294   1.645  15.777
   33AGAL    O522116   1.416   1.811  15.797
   33AGAL    C222117   1.502   1.725  16.002
   33AGAL    H222118   1.491   1.830  16.039
   33AGAL    O222119   1.617   1.668  16.067
   33AGAL    C322120   1.372   1.651  16.029
   33AGAL    H322121   1.378   1.551  15.981
   33AGAL    O322122   1.346   1.629  16.167
   33AGAL   HO322123   1.302   1.708  16.199
   33AGAL    C422124   1.259   1.730  15.967
   33AGAL    H422125   1.165   1.671  15.976
   33AGAL    O422126   1.235   1.852  16.037
   33AGAL   HO422127   1.293   1.922  16.006
   33AGAL    C622128   1.182   1.820  15.738
   33AGAL   H6122129   1.205   1.810  15.630
   33AGAL   H6222130   1.084   1.771  15.756
   33AGAL    O622131   1.172   1.959  15.770
   33AGAL   HO622132   1.246   2.006  15.731
   34ARHM    C122133   1.644   1.725  16.193
   34ARHM    H122134   1.549   1.738  16.250
   34ARHM    C522135   1.833   1.849  16.114
   34ARHM    H522136   1.819   1.813  16.010
   34ARHM    O522137   1.707   1.853  16.182
   34ARHM    C222138   1.735   1.629  16.269
   34ARHM    H222139   1.686   1.529  16.267
   34ARHM    O222140   1.760   1.663  16.407
   34ARHM    C322141   1.868   1.619  16.198
   34ARHM    H322142   1.852   1.580  16.096
   34ARHM    O322143   1.954   1.528  16.266
   34ARHM   HO322144   1.943   1.543  16.360
   34ARHM    C422145   1.930   1.758  16.188
   34ARHM    H422146   1.946   1.798  16.290
   34ARHM    O422147   2.056   1.753  16.121
   34ARHM   HO422148   2.097   1.670  16.144
   34ARHM    C622149   1.880   1.996  16.108
   34ARHM   H6122150   1.892   2.037  16.211
   34ARHM   H6222151   1.977   2.004  16.055
   34ARHM   H6322152   1.805   2.057  16.054
   35ARHM    C122153   1.647   1.687  16.488
   35ARHM    H122154   1.565   1.617  16.461
   35ARHM    C522155   1.701   1.919  16.508
   35ARHM    H522156   1.789   1.905  16.441
   35ARHM    O522157   1.600   1.822  16.476
   35ARHM    C222158   1.689   1.663  16.631
   35ARHM    H222159   1.735   1.562  16.638
   35ARHM    O222160   1.577   1.670  16.722
   35ARHM    C322161   1.797   1.761  16.673
   35ARHM    H322162   1.887   1.747  16.610
   35ARHM    O322163   1.834   1.739  16.809
   35ARHM   HO322164   1.835   1.646  16.831
   35ARHM    C422165   1.745   1.903  16.653
   35ARHM    H422166   1.657   1.918  16.718
   35ARHM    O422167   1.843   2.002  16.688
   35ARHM   HO422168   1.892   2.027  16.609
   35ARHM    C622169   1.639   2.056  16.477
   35ARHM   H6122170   1.608   2.060  16.370
   35ARHM   H6222171   1.551   2.074  16.541
   35ARHM   H6322172   1.713   2.138  16.494
   36BMANN   C122173   1.500   1.553  16.732
   36BMANN   H122174   1.555   1.465  16.695
   36BMANN   C522175   1.292   1.449  16.676
   36BMANN   H522176   1.350   1.363  16.634
   36BMANN   O522177   1.374   1.567  16.663
   36BMANN   C222178   1.469   1.538  16.879
   36BMANN   H222179   1.567   1.525  16.931
   36BMANN    N22180   1.409   1.660  16.932
   36BMANN   HN22181   1.380   1.726  16.863
   36BMANN    C22182   1.405   1.692  17.062
   36BMANN    O22183   1.441   1.614  17.149
   36BMANN   CT22184   1.352   1.829  17.096
   36BMANN  HT122185   1.250   1.843  17.053
   36BMANN  HT222186   1.420   1.907  17.055
   36BMANN  HT322187   1.347   1.840  17.206
   36BMANN   C322188   1.391   1.410  16.897
   36BMANN   H322189   1.449   1.326  16.853
   36BMANN   O322190   1.373   1.377  17.035
   36BMANN  HO322191   1.387   1.456  17.088
   36BMANN   C422192   1.260   1.420  16.822
   36BMANN   H422193   1.200   1.503  16.865
   36BMANN   O422194   1.186   1.298  16.833
   36BMANN  HO422195   1.194   1.267  16.923
   36BMANN   C622196   1.169   1.468  16.588
   36BMANN  H6122197   1.197   1.521  16.495
   36BMANN  H6222198   1.131   1.368  16.558
   36BMANN   O622199   1.063   1.539  16.653
   36BMANN  HO622200   0.986   1.482  16.658
    1ECLIP HB6S22201   2.171   7.030   6.679
    1ECLIP  OB622202   2.211   7.179   6.815
    1ECLIP  CB622203   2.128   7.127   6.710
    1ECLIP HB6R22204   2.026   7.105   6.749
    1ECLIP  CB522205   2.111   7.213   6.587
    1ECLIP  OB522206   2.239   7.259   6.542
    1ECLIP  HB522207   2.047   7.301   6.612
    1ECLIP  CB122208   2.234   7.339   6.422
    1ECLIP  HB122209   2.177   7.432   6.443
    1ECLIP  OA622210   2.363   7.374   6.377
    1ECLIP  CA622211   2.462   7.273   6.405
    1ECLIP HA6R22212   2.418   7.178   6.443
    1ECLIP HA6S22213   2.530   7.310   6.484
    1ECLIP  CB422214   2.047   7.134   6.471
    1ECLIP  HB422215   2.128   7.063   6.440
    1ECLIP  OB422216   1.931   7.063   6.519
    1ECLIP   PB22217   1.922   6.899   6.495
    1ECLIP OPB422218   1.855   6.837   6.618
    1ECLIP OPB322219   2.066   6.849   6.483
    1ECLIP OPB222220   1.843   6.876   6.370
    1ECLIP  CB322221   2.027   7.225   6.352
    1ECLIP  OB322222   1.964   7.162   6.240
    1ECLIP  HB322223   1.975   7.318   6.384
    1ECLIP  C7122224   1.831   7.171   6.236
    1ECLIP  O7122225   1.765   7.246   6.307
    1ECLIP  C7222226   1.787   7.150   6.092
    1ECLIP H72R22227   1.862   7.194   6.023
    1ECLIP H72S22228   1.690   7.202   6.079
    1ECLIP  CB222229   2.168   7.264   6.307
    1ECLIP  HB222230   2.226   7.171   6.293
    1ECLIP  NB222231   2.173   7.335   6.179
    1ECLIP HNB222232   2.171   7.434   6.183
    1ECLIP  CA422233   2.599   7.347   6.202
    1ECLIP  HA422234   2.513   7.401   6.157
    1ECLIP  OA422235   2.675   7.436   6.285
    1ECLIP HOA422236   2.633   7.521   6.271
    1ECLIP  CA522237   2.541   7.235   6.283
    1ECLIP  HA522238   2.624   7.171   6.318
    1ECLIP  OA522239   2.455   7.158   6.198
    1ECLIP  CA122240   2.524   7.094   6.090
    1ECLIP  HA122241   2.446   7.047   6.028
    1ECLIP  OA122242   2.611   6.990   6.132
    1ECLIP OPA222243   2.618   6.937   6.378
    1ECLIP OPA322244   2.412   6.872   6.255
    1ECLIP OPA422245   2.628   6.749   6.214
    1ECLIP   PA22246   2.565   6.882   6.247
    1ECLIP  CA322247   2.682   7.288   6.090
    1ECLIP  HA322248   2.755   7.219   6.137
    1ECLIP  OA322249   2.759   7.389   6.023
    1ECLIP  C3122250   2.696   7.480   5.943
    1ECLIP  O3122251   2.723   7.484   5.825
    1ECLIP  C3222252   2.706   7.616   6.016
    1ECLIP H32R22253   2.762   7.681   5.945
    1ECLIP H32S22254   2.768   7.607   6.108
    1ECLIP  CA222255   2.592   7.200   6.003
    1ECLIP  HA222256   2.512   7.263   5.958
    1ECLIP  NA222257   2.669   7.137   5.898
    1ECLIP HNA222258   2.763   7.114   5.924
    1ECLIP  C7322259   1.771   7.000   6.066
    1ECLIP H73R22260   1.718   6.953   6.153
    1ECLIP  O7322261   1.903   6.949   6.054
    1ECLIP  C8122262   1.918   6.819   6.073
    1ECLIP  O8122263   1.829   6.736   6.065
    1ECLIP  C8222264   2.064   6.787   6.039
    1ECLIP H82R22265   2.085   6.684   6.075
    1ECLIP H82S22266   2.130   6.859   6.092
    1ECLIP  C8322267   2.089   6.797   5.887
    1ECLIP H83R22268   2.084   6.904   5.858
    1ECLIP H83S22269   2.008   6.743   5.832
    1ECLIP  C8422270   2.224   6.739   5.842
    1ECLIP H84R22271   2.225   6.629   5.859
    1ECLIP H84S22272   2.305   6.784   5.903
    1ECLIP  C8522273   2.248   6.769   5.694
    1ECLIP H85R22274   2.263   6.879   5.684
    1ECLIP H85S22275   2.156   6.742   5.637
    1ECLIP  C8622276   2.369   6.699   5.631
    1ECLIP H86R22277   2.347   6.590   5.623
    1ECLIP H86S22278   2.456   6.710   5.700
    1ECLIP  C8722279   2.406   6.756   5.492
    1ECLIP H87R22280   2.482   6.690   5.445
    1ECLIP H87S22281   2.452   6.856   5.509
    1ECLIP  C8822282   2.284   6.773   5.399
    1ECLIP H88R22283   2.216   6.848   5.446
    1ECLIP H88S22284   2.229   6.677   5.392
    1ECLIP  C8922285   2.319   6.825   5.259
    1ECLIP H89R22286   2.391   6.908   5.266
    1ECLIP H89S22287   2.225   6.866   5.216
    1ECLIP C81022288   2.372   6.715   5.165
    1ECLIPH810R22289   2.310   6.624   5.177
    1ECLIPH810S22290   2.475   6.689   5.197
    1ECLIP C81122291   2.373   6.757   5.017
    1ECLIPH811R22292   2.431   6.682   4.958
    1ECLIPH811S22293   2.427   6.854   5.010
    1ECLIP C81222294   2.234   6.773   4.953
    1ECLIPH812R22295   2.246   6.820   4.853
    1ECLIPH812S22296   2.172   6.842   5.014
    1ECLIP C81322297   2.159   6.640   4.934
    1ECLIPH813R22298   2.217   6.575   4.865
    1ECLIPH813S22299   2.154   6.587   5.032
    1ECLIP C81422300   2.016   6.657   4.881
    1ECLIPH814R22301   2.016   6.714   4.786
    1ECLIPH814S22302   1.955   6.711   4.957
    1ECLIPH814T22303   1.969   6.558   4.863
    1ECLIP  C7422304   1.687   6.971   5.938
    1ECLIP H74R22305   1.590   7.024   5.945
    1ECLIP H74S22306   1.664   6.862   5.940
    1ECLIP  C7522307   1.754   7.001   5.802
    1ECLIP H75R22308   1.730   6.916   5.735
    1ECLIP H75S22309   1.865   7.003   5.813
    1ECLIP  C7622310   1.705   7.129   5.733
    1ECLIP H76R22311   1.747   7.218   5.783
    1ECLIP H76S22312   1.594   7.135   5.740
    1ECLIP  C7722313   1.744   7.129   5.583
    1ECLIP H77R22314   1.707   7.035   5.538
    1ECLIP H77S22315   1.855   7.128   5.576
    1ECLIP  C7822316   1.689   7.248   5.503
    1ECLIP H78R22317   1.578   7.241   5.500
    1ECLIP H78S22318   1.715   7.342   5.556
    1ECLIP  C7922319   1.743   7.255   5.359
    1ECLIP H79R22320   1.851   7.282   5.365
    1ECLIP H79S22321   1.691   7.337   5.304
    1ECLIP C71022322   1.732   7.124   5.280
    1ECLIPH710R22323   1.792   7.046   5.332
    1ECLIPH710S22324   1.626   7.090   5.280
    1ECLIP C71122325   1.784   7.136   5.136
    1ECLIPH711R22326   1.716   7.202   5.078
    1ECLIPH711S22327   1.884   7.183   5.137
    1ECLIP C71222328   1.797   6.998   5.068
    1ECLIPH712R22329   1.697   6.950   5.064
    1ECLIPH712S22330   1.863   6.934   5.131
    1ECLIP C71322331   1.856   7.005   4.926
    1ECLIPH713R22332   1.956   7.052   4.931
    1ECLIPH713S22333   1.870   6.901   4.889
    1ECLIP C71422334   1.768   7.080   4.827
    1ECLIPH714R22335   1.666   7.036   4.825
    1ECLIPH714S22336   1.759   7.187   4.856
    1ECLIPH714T22337   1.811   7.074   4.726
    1ECLIP  C5122338   2.187   7.272   6.061
    1ECLIP  O5122339   2.191   7.151   6.049
    1ECLIP  C5222340   2.198   7.363   5.940
    1ECLIP H52R22341   2.105   7.422   5.934
    1ECLIP H52S22342   2.284   7.431   5.960
    1ECLIP  C5322343   2.223   7.288   5.808
    1ECLIP H53R22344   2.310   7.220   5.820
    1ECLIP  O5322345   2.244   7.386   5.705
    1ECLIP  C6122346   2.372   7.416   5.681
    1ECLIP  O6122347   2.463   7.400   5.759
    1ECLIP  C6222348   2.375   7.522   5.568
    1ECLIP H62R22349   2.356   7.621   5.615
    1ECLIP H62S22350   2.292   7.498   5.498
    1ECLIP  C6322351   2.509   7.526   5.492
    1ECLIP H63R22352   2.530   7.425   5.451
    1ECLIP H63S22353   2.590   7.552   5.563
    1ECLIP  C6422354   2.511   7.626   5.375
    1ECLIP H64R22355   2.615   7.629   5.335
    1ECLIP H64S22356   2.486   7.728   5.412
    1ECLIP  C6522357   2.416   7.588   5.260
    1ECLIP H65R22358   2.311   7.596   5.297
    1ECLIP H65S22359   2.432   7.482   5.233
    1ECLIP  C6622360   2.429   7.677   5.135
    1ECLIP H66R22361   2.410   7.783   5.164
    1ECLIP H66S22362   2.349   7.648   5.064
    1ECLIP  C6722363   2.565   7.669   5.062
    1ECLIP H67R22364   2.642   7.722   5.123
    1ECLIP H67S22365   2.555   7.724   4.966
    1ECLIP  C6822366   2.615   7.527   5.033
    1ECLIP H68R22367   2.534   7.467   4.985
    1ECLIP H68S22368   2.641   7.476   5.128
    1ECLIP  C6922369   2.738   7.528   4.941
    1ECLIP H69R22370   2.822   7.577   4.995
    1ECLIP H69S22371   2.713   7.588   4.851
    1ECLIP C61022372   2.784   7.389   4.893
    1ECLIPH610R22373   2.699   7.341   4.840
    1ECLIPH610S22374   2.810   7.325   4.981
    1ECLIP C61122375   2.905   7.393   4.799
    1ECLIPH611R22376   2.891   7.475   4.726
    1ECLIPH611S22377   2.995   7.418   4.859
    1ECLIP C61222378   2.928   7.262   4.723
    1ECLIPH612R22379   2.936   7.177   4.793
    1ECLIPH612S22380   2.843   7.241   4.655
    1ECLIPH612T22381   3.021   7.268   4.662
    1ECLIP  C5422382   2.104   7.202   5.760
    1ECLIP H54R22383   2.014   7.266   5.747
    1ECLIP H54S22384   2.079   7.128   5.839
    1ECLIP  C5522385   2.132   7.123   5.630
    1ECLIP H55R22386   2.062   7.037   5.624
    1ECLIP H55S22387   2.236   7.082   5.636
    1ECLIP  C5622388   2.118   7.207   5.503
    1ECLIP H56R22389   2.188   7.292   5.507
    1ECLIP H56S22390   2.015   7.251   5.499
    1ECLIP  C5722391   2.149   7.133   5.373
    1ECLIP H57R22392   2.073   7.054   5.354
    1ECLIP H57S22393   2.249   7.085   5.382
    1ECLIP  C5822394   2.152   7.235   5.259
    1ECLIP H58R22395   2.050   7.279   5.247
    1ECLIP H58S22396   2.220   7.317   5.289
    1ECLIP  C5922397   2.200   7.181   5.124
    1ECLIP H59R22398   2.132   7.102   5.087
    1ECLIP H59S22399   2.300   7.136   5.138
    1ECLIP C51022400   2.206   7.298   5.025
    1ECLIPH510R22401   2.248   7.386   5.078
    1ECLIPH510S22402   2.102   7.323   4.997
    1ECLIP C51122403   2.290   7.274   4.900
    1ECLIPH511R22404   2.398   7.278   4.926
    1ECLIPH511S22405   2.268   7.173   4.859
    1ECLIP C51222406   2.260   7.379   4.792
    1ECLIPH512R22407   2.325   7.359   4.704
    1ECLIPH512S22408   2.154   7.364   4.762
    1ECLIP C51322409   2.275   7.526   4.834
    1ECLIPH513R22410   2.382   7.544   4.861
    1ECLIPH513S22411   2.214   7.544   4.925
    1ECLIP C51422412   2.232   7.628   4.728
    1ECLIPH514R22413   2.127   7.610   4.697
    1ECLIPH514S22414   2.240   7.731   4.769
    1ECLIPH514T22415   2.297   7.622   4.639
    1ECLIP  C3322416   2.573   7.691   6.049
    1ECLIP H33R22417   2.594   7.799   6.059
    1ECLIP  O3322418   2.524   7.644   6.172
    1ECLIP HO3322419   2.438   7.680   6.197
    1ECLIP  C3422420   2.463   7.671   5.943
    1ECLIP H34R22421   2.449   7.562   5.929
    1ECLIP H34S22422   2.499   7.713   5.846
    1ECLIP  C3522423   2.323   7.729   5.974
    1ECLIP H35R22424   2.328   7.838   5.995
    1ECLIP H35S22425   2.282   7.678   6.063
    1ECLIP  C3622426   2.226   7.705   5.856
    1ECLIP H36R22427   2.247   7.602   5.819
    1ECLIP H36S22428   2.251   7.775   5.773
    1ECLIP  C3722429   2.075   7.710   5.886
    1ECLIP H37R22430   2.044   7.816   5.888
    1ECLIP H37S22431   2.055   7.666   5.986
    1ECLIP  C3822432   1.991   7.634   5.781
    1ECLIP H38R22433   2.000   7.524   5.795
    1ECLIP H38S22434   1.883   7.658   5.795
    1ECLIP  C3922435   2.035   7.663   5.637
    1ECLIP H39R22436   2.139   7.626   5.624
    1ECLIP H39S22437   2.037   7.773   5.622
    1ECLIP C31022438   1.952   7.595   5.528
    1ECLIPH310R22439   1.849   7.636   5.528
    1ECLIPH310S22440   1.945   7.486   5.547
    1ECLIP C31122441   2.018   7.619   5.391
    1ECLIPH311R22442   2.042   7.728   5.382
    1ECLIPH311S22443   2.114   7.564   5.388
    1ECLIP C31222444   1.933   7.578   5.271
    1ECLIPH312R22445   1.915   7.468   5.275
    1ECLIPH312S22446   1.835   7.628   5.276
    1ECLIP C31322447   2.003   7.613   5.139
    1ECLIPH313R22448   2.016   7.723   5.134
    1ECLIPH313S22449   2.104   7.567   5.139
    1ECLIP C31422450   1.926   7.563   5.017
    1ECLIPH314R22451   1.822   7.602   5.018
    1ECLIPH314S22452   1.976   7.597   4.924
    1ECLIPH314T22453   1.921   7.452   5.017
    1ECLIP  C1122454   2.625   7.096   5.778
    1ECLIP  O1122455   2.509   7.109   5.740
    1ECLIP  C1222456   2.728   7.029   5.691
    1ECLIP H12R22457   2.724   6.920   5.709
    1ECLIP H12S22458   2.829   7.067   5.717
    1ECLIP  C1322459   2.698   7.058   5.543
    1ECLIP H13R22460   2.597   7.020   5.518
    1ECLIP  O1322461   2.794   6.988   5.466
    1ECLIP HO1322462   2.775   6.988   5.372
    1ECLIP  C1422463   2.707   7.208   5.506
    1ECLIP H14R22464   2.803   7.248   5.546
    1ECLIP H14S22465   2.625   7.262   5.558
    1ECLIP  C1522466   2.701   7.238   5.355
    1ECLIP H15R22467   2.789   7.190   5.307
    1ECLIP H15S22468   2.713   7.347   5.339
    1ECLIP  C1622469   2.572   7.191   5.286
    1ECLIP H16R22470   2.494   7.269   5.299
    1ECLIP H16S22471   2.531   7.099   5.332
    1ECLIP  C1722472   2.594   7.164   5.137
    1ECLIP H17R22473   2.656   7.246   5.095
    1ECLIP H17S22474   2.496   7.165   5.085
    1ECLIP  C1822475   2.660   7.028   5.112
    1ECLIP H18R22476   2.751   7.017   5.175
    1ECLIP H18S22477   2.590   6.948   5.142
    1ECLIP  C1922478   2.703   7.006   4.966
    1ECLIP H19R22479   2.728   6.899   4.952
    1ECLIP H19S22480   2.795   7.064   4.947
    1ECLIP C11022481   2.598   7.048   4.862
    1ECLIPH110R22482   2.498   7.008   4.887
    1ECLIPH110S22483   2.590   7.159   4.862
    1ECLIP C11122484   2.640   7.000   4.724
    1ECLIPH111R22485   2.749   7.017   4.714
    1ECLIPH111S22486   2.622   6.890   4.717
    1ECLIP C11222487   2.571   7.071   4.608
    1ECLIPH112R22488   2.467   7.033   4.596
    1ECLIPH112S22489   2.564   7.180   4.629
    1ECLIP C11322490   2.652   7.049   4.480
    1ECLIPH113R22491   2.755   7.088   4.497
    1ECLIPH113S22492   2.660   6.939   4.466
    1ECLIP C11422493   2.594   7.113   4.355
    1ECLIPH114R22494   2.587   7.223   4.370
    1ECLIPH114S22495   2.492   7.073   4.333
    1ECLIPH114T22496   2.658   7.095   4.266
    2AKDO    C122497   2.067   7.363   6.887
    2AKDO   O1122498   1.952   7.378   6.938
    2AKDO   O1222499   2.140   7.457   6.844
    2AKDO    C222500   2.141   7.231   6.927
    2AKDO    C622501   2.102   7.013   7.021
    2AKDO    H622502   2.159   6.973   6.936
    2AKDO    O622503   2.045   7.139   6.983
    2AKDO    C322504   2.250   7.251   7.035
    2AKDO   H3122505   2.205   7.302   7.122
    2AKDO   H3222506   2.328   7.316   6.990
    2AKDO    C422507   2.313   7.121   7.077
    2AKDO    H422508   2.358   7.073   6.988
    2AKDO    O422509   2.414   7.143   7.177
    2AKDO    C522510   2.206   7.028   7.134
    2AKDO    H522511   2.255   6.929   7.146
    2AKDO    O522512   2.158   7.073   7.264
    2AKDO    C722513   1.983   6.921   7.037
    2AKDO    H722514   1.915   6.959   7.117
    2AKDO    O722515   2.023   6.787   7.068
    2AKDO   HO722516   1.995   6.737   6.991
    2AKDO    C822517   1.908   6.920   6.905
    2AKDO   H8122518   1.871   7.021   6.881
    2AKDO   H8222519   1.979   6.892   6.825
    2AKDO    O822520   1.796   6.831   6.898
    2AKDO   HO822521   1.780   6.829   6.804
    3AKDO    C122522   2.619   7.087   7.035
    3AKDO   O1122523   2.736   7.125   7.005
    3AKDO   O1222524   2.576   6.969   7.026
    3AKDO    C222525   2.548   7.176   7.143
    3AKDO    C622526   2.510   7.407   7.205
    3AKDO    H622527   2.402   7.384   7.217
    3AKDO    O622528   2.565   7.316   7.108
    3AKDO    C322529   2.614   7.154   7.280
    3AKDO   H3122530   2.724   7.169   7.270
    3AKDO   H3222531   2.600   7.047   7.308
    3AKDO    C422532   2.559   7.243   7.386
    3AKDO    H422533   2.450   7.226   7.398
    3AKDO    O422534   2.620   7.211   7.511
    3AKDO   HO422535   2.569   7.141   7.552
    3AKDO    C522536   2.579   7.388   7.341
    3AKDO    H522537   2.529   7.454   7.415
    3AKDO    O522538   2.716   7.426   7.337
    3AKDO   HO522539   2.755   7.375   7.266
    3AKDO    C722540   2.521   7.548   7.148
    3AKDO    H722541   2.628   7.577   7.142
    3AKDO    O722542   2.451   7.641   7.231
    3AKDO   HO722543   2.390   7.682   7.170
    3AKDO    C822544   2.462   7.558   7.009
    3AKDO   H8122545   2.509   7.483   6.940
    3AKDO   H8222546   2.353   7.534   7.011
    3AKDO    O822547   2.479   7.689   6.952
    3AKDO   HO822548   2.402   7.703   6.898
    4AHEP    C122549   2.112   6.971   7.351
    4AHEP    H122550   2.021   6.928   7.306
    4AHEP    C522551   2.326   6.898   7.434
    4AHEP    H522552   2.366   6.988   7.382
    4AHEP    O522553   2.204   6.861   7.366
    4AHEP    C222554   2.074   7.018   7.491
    4AHEP    H222555   2.012   7.109   7.479
    4AHEP    O222556   1.993   6.921   7.559
    4AHEP   HO222557   2.044   6.841   7.558
    4AHEP    C322558   2.197   7.057   7.575
    4AHEP    H322559   2.245   7.144   7.524
    4AHEP    O322560   2.156   7.090   7.709
    4AHEP    C422561   2.293   6.940   7.579
    4AHEP    H422562   2.245   6.855   7.631
    4AHEP    O422563   2.414   6.980   7.646
    4AHEP    P422564   2.491   6.889   7.762
    4AHEP  OP4222565   2.605   6.977   7.813
    4AHEP  OP4322566   2.540   6.762   7.695
    4AHEP  OP4422567   2.387   6.854   7.868
    4AHEP    C622568   2.432   6.790   7.414
    4AHEP    H622569   2.528   6.831   7.451
    4AHEP    O622570   2.401   6.674   7.493
    4AHEP   HO622571   2.448   6.697   7.575
    4AHEP    C722572   2.454   6.748   7.269
    4AHEP   H7122573   2.546   6.686   7.262
    4AHEP   H7222574   2.473   6.841   7.210
    4AHEP    O722575   2.347   6.678   7.207
    4AHEP   HO722576   2.353   6.587   7.236
    5AHEP    C122577   2.202   7.213   7.762
    5AHEP    H122578   2.293   7.245   7.708
    5AHEP    C522579   1.981   7.288   7.825
    5AHEP    H522580   1.941   7.191   7.790
    5AHEP    O522581   2.102   7.317   7.752
    5AHEP    C222582   2.237   7.198   7.910
    5AHEP    H222583   2.302   7.109   7.918
    5AHEP    O222584   2.312   7.310   7.960
    5AHEP   HO222585   2.403   7.297   7.929
    5AHEP    C322586   2.112   7.169   7.992
    5AHEP    H322587   2.070   7.073   7.957
    5AHEP    O322588   2.140   7.164   8.132
    5AHEP    C422589   2.009   7.277   7.976
    5AHEP    H422590   2.046   7.374   8.014
    5AHEP    O422591   1.887   7.234   8.038
    5AHEP    P422592   1.828   7.300   8.177
    5AHEP  OP4222593   1.720   7.205   8.228
    5AHEP  OP4322594   1.772   7.437   8.141
    5AHEP  OP4422595   1.943   7.313   8.276
    5AHEP    C622596   1.880   7.396   7.788
    5AHEP    H622597   1.785   7.376   7.844
    5AHEP    O622598   1.927   7.527   7.825
    5AHEP   HO622599   1.990   7.542   7.753
    5AHEP    C722600   1.856   7.389   7.637
    5AHEP   H7122601   1.746   7.393   7.620
    5AHEP   H7222602   1.886   7.291   7.596
    5AHEP    O722603   1.915   7.499   7.564
    6AHEP    C122604   2.034   7.463   7.497
    6AHEP    H122605   2.057   7.355   7.509
    6AHEP    C522606   2.008   7.624   7.314
    6AHEP    H522607   1.914   7.665   7.358
    6AHEP    O522608   2.023   7.485   7.355
    6AHEP    C222609   2.152   7.542   7.550
    6AHEP    H222610   2.155   7.531   7.661
    6AHEP    O222611   2.277   7.493   7.502
    6AHEP   HO222612   2.269   7.477   7.407
    6AHEP    C322613   2.130   7.687   7.517
    6AHEP    H322614   2.028   7.715   7.552
    6AHEP    O322615   2.221   7.775   7.584
    6AHEP   HO322616   2.283   7.807   7.518
    6AHEP    C422617   2.127   7.703   7.368
    6AHEP    H422618   2.218   7.658   7.323
    6AHEP    O422619   2.129   7.839   7.328
    6AHEP   HO422620   2.060   7.892   7.368
    6AHEP    C622621   1.998   7.638   7.163
    6AHEP    H622622   2.010   7.743   7.132
    6AHEP    O622623   2.105   7.564   7.103
    6AHEP   HO622624   2.070   7.512   7.031
    6AHEP    C722625   1.860   7.596   7.111
    6AHEP   H7122626   1.859   7.601   7.000
    6AHEP   H7222627   1.785   7.670   7.148
    6AHEP    O722628   1.820   7.465   7.153
    6AHEP   HO722629   1.868   7.410   7.092
    7AGLC    C122630   2.159   7.035   8.181
    7AGLC    H122631   2.089   6.963   8.134
    7AGLC    C522632   2.390   7.081   8.220
    7AGLC    H522633   2.371   7.185   8.188
    7AGLC    O522634   2.294   6.994   8.158
    7AGLC    C222635   2.134   7.033   8.330
    7AGLC    H222636   2.150   6.929   8.365
    7AGLC    O222637   1.998   7.064   8.359
    7AGLC   HO222638   1.979   7.152   8.325
    7AGLC    C322639   2.229   7.123   8.405
    7AGLC    H322640   2.217   7.226   8.365
    7AGLC    O322641   2.202   7.122   8.549
    7AGLC    C422642   2.370   7.075   8.372
    7AGLC    H422643   2.380   6.969   8.403
    7AGLC    O422644   2.471   7.149   8.439
    7AGLC   HO422645   2.544   7.089   8.455
    7AGLC    C622646   2.528   7.047   8.167
    7AGLC   H6122647   2.527   7.060   8.056
    7AGLC   H6222648   2.604   7.118   8.207
    7AGLC    O622649   2.571   6.913   8.194
    7AGLC   HO622650   2.592   6.876   8.108
    8AGLC    C122651   2.158   7.246   8.601
    8AGLC    H122652   2.214   7.330   8.552
    8AGLC    C522653   1.932   7.170   8.643
    8AGLC    H522654   1.961   7.070   8.605
    8AGLC    O522655   2.017   7.269   8.582
    8AGLC    C222656   2.181   7.250   8.749
    8AGLC    H222657   2.154   7.352   8.785
    8AGLC    O222658   2.315   7.221   8.788
    8AGLC    C322659   2.097   7.148   8.823
    8AGLC    H322660   2.124   7.048   8.782
    8AGLC    O322661   2.136   7.150   8.962
    8AGLC    C422662   1.951   7.173   8.794
    8AGLC    H422663   1.922   7.274   8.832
    8AGLC    O422664   1.869   7.076   8.858
    8AGLC   HO422665   1.846   7.007   8.795
    8AGLC    C622666   1.790   7.198   8.598
    8AGLC   H6122667   1.788   7.209   8.487
    8AGLC   H6222668   1.724   7.112   8.623
    8AGLC    O622669   1.736   7.316   8.658
    8AGLC   HO622670   1.774   7.390   8.610
    9AGAL    C122671   2.419   7.301   8.740
    9AGAL    H122672   2.421   7.301   8.628
    9AGAL    C522673   2.399   7.442   8.931
    9AGAL    H522674   2.312   7.380   8.962
    9AGAL    O522675   2.411   7.435   8.788
    9AGAL    C222676   2.542   7.233   8.794
    9AGAL    H222677   2.632   7.288   8.759
    9AGAL    O222678   2.540   7.102   8.731
    9AGAL    C322679   2.536   7.238   8.947
    9AGAL    H322680   2.444   7.185   8.980
    9AGAL    O322681   2.644   7.170   9.010
    9AGAL   HO322682   2.633   7.078   8.986
    9AGAL    C422683   2.523   7.382   8.995
    9AGAL    H422684   2.509   7.381   9.105
    9AGAL    O422685   2.640   7.460   8.969
    9AGAL   HO422686   2.620   7.512   8.891
    9AGAL    C622687   2.363   7.585   8.969
    9AGAL   H6122688   2.260   7.607   8.933
    9AGAL   H6222689   2.363   7.595   9.079
    9AGAL    O622690   2.451   7.682   8.912
    9AGAL   HO622691   2.424   7.695   8.821
   10AGAL    C122692   2.620   6.994   8.770
   10AGAL    H122693   2.727   7.026   8.773
   10AGAL    C522694   2.442   6.901   8.900
   10AGAL    H522695   2.378   6.984   8.865
   10AGAL    O522696   2.580   6.944   8.899
   10AGAL    C222697   2.604   6.882   8.667
   10AGAL    H222698   2.672   6.799   8.698
   10AGAL    O222699   2.647   6.924   8.537
   10AGAL   HO222700   2.680   6.849   8.487
   10AGAL    C322701   2.461   6.831   8.664
   10AGAL    H322702   2.394   6.915   8.635
   10AGAL    O322703   2.441   6.725   8.570
   10AGAL   HO322704   2.455   6.757   8.481
   10AGAL    C422705   2.422   6.784   8.804
   10AGAL    H422706   2.314   6.757   8.802
   10AGAL    O422707   2.495   6.667   8.844
   10AGAL   HO422708   2.531   6.629   8.763
   10AGAL    C622709   2.400   6.873   9.043
   10AGAL   H6122710   2.408   6.965   9.104
   10AGAL   H6222711   2.294   6.840   9.045
   10AGAL    O622712   2.482   6.771   9.101
   10AGAL   HO622713   2.501   6.714   9.028
   11BGLC    C122714   2.062   7.224   9.056
   11BGLC    H122715   1.962   7.179   9.071
   11BGLC    C522716   1.972   7.438   9.115
   11BGLC    H522717   1.874   7.389   9.134
   11BGLC    O522718   2.047   7.362   9.018
   11BGLC    C222719   2.142   7.219   9.186
   11BGLC    H222720   2.241   7.266   9.167
   11BGLC    O222721   2.168   7.085   9.230
   11BGLC   HO222722   2.097   7.029   9.197
   11BGLC    C322723   2.072   7.297   9.293
   11BGLC    H322724   1.975   7.249   9.318
   11BGLC    O322725   2.155   7.310   9.410
   11BGLC    C422726   2.050   7.438   9.247
   11BGLC    H422727   2.148   7.487   9.227
   11BGLC    O422728   1.983   7.510   9.349
   11BGLC   HO422729   2.005   7.463   9.431
   11BGLC    C622730   1.948   7.577   9.058
   11BGLC   H6122731   1.933   7.650   9.141
   11BGLC   H6222732   2.035   7.612   8.999
   11BGLC    O622733   1.830   7.582   8.976
   11BGLC   HO622734   1.852   7.558   8.886
   12BGLCN   C122735   2.110   7.249   9.528
   12BGLCN   H122736   2.113   7.139   9.517
   12BGLCN   C522737   1.933   7.241   9.688
   12BGLCN   H522738   1.933   7.130   9.681
   12BGLCN   O522739   1.979   7.295   9.562
   12BGLCN   C222740   2.208   7.298   9.634
   12BGLCN   H222741   2.192   7.408   9.641
   12BGLCN    N22742   2.345   7.276   9.592
   12BGLCN   HN22743   2.364   7.191   9.543
   12BGLCN    C22744   2.443   7.368   9.602
   12BGLCN    O22745   2.431   7.473   9.663
   12BGLCN   CT22746   2.572   7.333   9.532
   12BGLCN  HT122747   2.649   7.307   9.608
   12BGLCN  HT222748   2.606   7.421   9.474
   12BGLCN  HT322749   2.557   7.248   9.462
   12BGLCN   C322750   2.170   7.239   9.770
   12BGLCN   H322751   2.177   7.128   9.764
   12BGLCN   O322752   2.262   7.288   9.870
   12BGLCN   C422753   2.028   7.284   9.799
   12BGLCN   H422754   2.027   7.395   9.804
   12BGLCN   O422755   1.981   7.237   9.925
   12BGLCN  HO422756   1.956   7.144   9.924
   12BGLCN   C622757   1.790   7.291   9.703
   12BGLCN  H6122758   1.773   7.322   9.808
   12BGLCN  H6222759   1.772   7.381   9.641
   12BGLCN   O622760   1.693   7.190   9.672
   12BGLCN  HO622761   1.689   7.171   9.578
   13AGAL    C122762   2.292   7.201   9.978
   13AGAL    H122763   2.203   7.144  10.010
   13AGAL    C522764   2.521   7.178   9.908
   13AGAL    H522765   2.496   7.245   9.823
   13AGAL    O522766   2.399   7.110   9.946
   13AGAL    C222767   2.342   7.285  10.096
   13AGAL    H222768   2.376   7.213  10.174
   13AGAL    O222769   2.237   7.365  10.153
   13AGAL    C322770   2.464   7.366  10.056
   13AGAL    H322771   2.437   7.422   9.964
   13AGAL    O322772   2.504   7.464  10.151
   13AGAL   HO322773   2.474   7.550  10.120
   13AGAL    C422774   2.575   7.268  10.019
   13AGAL    H422775   2.662   7.325   9.980
   13AGAL    O422776   2.619   7.191  10.131
   13AGAL   HO422777   2.651   7.109  10.094
   13AGAL    C622778   2.622   7.078   9.851
   13AGAL   H6122779   2.572   7.015   9.775
   13AGAL   H6222780   2.704   7.134   9.801
   13AGAL    O622781   2.681   6.993   9.950
   13AGAL   HO622782   2.748   6.936   9.912
   14ARHM    C122783   2.193   7.324  10.280
   14ARHM    H122784   2.197   7.213  10.287
   14ARHM    C522785   2.032   7.497  10.299
   14ARHM    H522786   2.060   7.538  10.200
   14ARHM    O522787   2.055   7.356  10.302
   14ARHM    C222788   2.283   7.386  10.386
   14ARHM    H222789   2.388   7.364  10.359
   14ARHM    O222790   2.264   7.345  10.523
   14ARHM    C322791   2.262   7.536  10.384
   14ARHM    H322792   2.290   7.575  10.285
   14ARHM    O322793   2.346   7.599  10.481
   14ARHM   HO322794   2.363   7.531  10.547
   14ARHM    C422795   2.115   7.565  10.407
   14ARHM    H422796   2.084   7.520  10.504
   14ARHM    O422797   2.087   7.705  10.415
   14ARHM   HO422798   2.106   7.734  10.504
   14ARHM    C622799   1.879   7.513  10.315
   14ARHM   H6122800   1.828   7.464  10.230
   14ARHM   H6222801   1.847   7.462  10.408
   14ARHM   H6322802   1.851   7.620  10.318
   15ARHM    C122803   2.265   7.207  10.547
   15ARHM    H122804   2.333   7.155  10.476
   15ARHM    C522805   2.039   7.212  10.625
   15ARHM    H522806   2.034   7.321  10.604
   15ARHM    O522807   2.133   7.151  10.536
   15ARHM    C222808   2.315   7.186  10.688
   15ARHM    H222809   2.415   7.232  10.700
   15ARHM    O222810   2.327   7.043  10.703
   15ARHM    C322811   2.220   7.252  10.786
   15ARHM    H322812   2.212   7.359  10.756
   15ARHM    O322813   2.271   7.248  10.920
   15ARHM    C422814   2.084   7.189  10.770
   15ARHM    H422815   2.092   7.079  10.785
   15ARHM    O422816   1.989   7.238  10.864
   15ARHM   HO422817   1.901   7.220  10.832
   15ARHM    C622818   1.901   7.152  10.592
   15ARHM   H6122819   1.821   7.202  10.651
   15ARHM   H6222820   1.880   7.167  10.484
   15ARHM   H6322821   1.902   7.043  10.612
   16BMANN   C122822   2.362   6.988  10.826
   16BMANN   H122823   2.283   7.015  10.898
   16BMANN   C522824   2.508   6.989  11.013
   16BMANN   H522825   2.428   7.031  11.078
   16BMANN   O522826   2.488   7.034  10.877
   16BMANN   C222827   2.364   6.836  10.818
   16BMANN   H222828   2.265   6.805  10.778
   16BMANN    N22829   2.464   6.774  10.729
   16BMANN   HN22830   2.516   6.701  10.773
   16BMANN    C22831   2.484   6.794  10.598
   16BMANN    O22832   2.424   6.875  10.530
   16BMANN   CT22833   2.590   6.709  10.535
   16BMANN  HT122834   2.572   6.601  10.557
   16BMANN  HT222835   2.691   6.739  10.571
   16BMANN  HT322836   2.586   6.722  10.424
   16BMANN   C322837   2.377   6.785  10.960
   16BMANN   H322838   2.292   6.824  11.019
   16BMANN   O322839   2.369   6.643  10.961
   16BMANN  HO322840   2.327   6.617  11.044
   16BMANN   C422841   2.507   6.837  11.019
   16BMANN   H422842   2.593   6.798  10.961
   16BMANN   O422843   2.521   6.796  11.156
   16BMANN  HO422844   2.576   6.717  11.161
   16BMANN   C622845   2.641   7.047  11.058
   16BMANN  H6122846   2.655   7.028  11.168
   16BMANN  H6222847   2.722   6.995  11.005
   16BMANN   O622848   2.652   7.187  11.034
   16BMANN  HO622849   2.619   7.205  10.946
   17BGLCN   C122850   2.248   7.365  10.995
   17BGLCN   H122851   2.151   7.411  10.967
   17BGLCN   C522852   2.332   7.578  11.052
   17BGLCN   H522853   2.234   7.621  11.023
   17BGLCN   O522854   2.354   7.458  10.977
   17BGLCN   C222855   2.243   7.321  11.140
   17BGLCN   H222856   2.342   7.280  11.166
   17BGLCN    N22857   2.146   7.213  11.149
   17BGLCN   HN22858   2.076   7.214  11.078
   17BGLCN    C22859   2.151   7.107  11.231
   17BGLCN    O22860   2.235   7.093  11.319
   17BGLCN   CT22861   2.044   7.004  11.211
   17BGLCN  HT122862   2.091   6.905  11.191
   17BGLCN  HT222863   1.978   7.031  11.127
   17BGLCN  HT322864   1.982   6.995  11.304
   17BGLCN   C322865   2.216   7.443  11.227
   17BGLCN   H322866   2.120   7.488  11.193
   17BGLCN   O322867   2.203   7.405  11.366
   17BGLCN   C422868   2.328   7.544  11.201
   17BGLCN   H422869   2.424   7.496  11.229
   17BGLCN   O422870   2.316   7.664  11.279
   17BGLCN  HO422871   2.403   7.693  11.307
   17BGLCN   C622872   2.439   7.679  11.013
   17BGLCN  H6122873   2.413   7.778  11.057
   17BGLCN  H6222874   2.537   7.647  11.054
   17BGLCN   O622875   2.451   7.693  10.871
   17BGLCN  HO622876   2.488   7.611  10.839
   18AGAL    C122877   2.115   7.484  11.446
   18AGAL    H122878   2.152   7.589  11.450
   18AGAL    C522879   1.922   7.352  11.394
   18AGAL    H522880   1.990   7.287  11.333
   18AGAL    O522881   1.981   7.484  11.394
   18AGAL    C222882   2.107   7.432  11.589
   18AGAL    H222883   2.028   7.496  11.634
   18AGAL    O222884   2.225   7.453  11.668
   18AGAL    C322885   2.056   7.288  11.589
   18AGAL    H322886   2.121   7.229  11.520
   18AGAL    O322887   2.065   7.223  11.717
   18AGAL   HO322888   1.993   7.159  11.727
   18AGAL    C422889   1.915   7.290  11.533
   18AGAL    H422890   1.879   7.185  11.523
   18AGAL    O422891   1.823   7.359  11.616
   18AGAL   HO422892   1.752   7.389  11.558
   18AGAL    C622893   1.790   7.352  11.316
   18AGAL   H6122894   1.806   7.395  11.215
   18AGAL   H6222895   1.757   7.247  11.302
   18AGAL    O622896   1.685   7.423  11.383
   18AGAL   HO622897   1.684   7.513  11.349
   19ARHM    C122898   2.193   7.480  11.804
   19ARHM    H122899   2.093   7.438  11.829
   19ARHM    C522900   2.312   7.687  11.814
   19ARHM    H522901   2.344   7.673  11.707
   19ARHM    O522902   2.187   7.620  11.835
   19ARHM    C222903   2.297   7.413  11.892
   19ARHM    H222904   2.309   7.310  11.854
   19ARHM    O222905   2.259   7.406  12.031
   19ARHM    C322906   2.431   7.480  11.877
   19ARHM    H322907   2.463   7.469  11.770
   19ARHM    O322908   2.527   7.415  11.960
   19ARHM   HO322909   2.489   7.407  12.047
   19ARHM    C422910   2.418   7.628  11.906
   19ARHM    H422911   2.383   7.642  12.010
   19ARHM    O422912   2.543   7.697  11.894
   19ARHM   HO422913   2.599   7.647  11.833
   19ARHM    C622914   2.284   7.836  11.836
   19ARHM   H6122915   2.204   7.870  11.767
   19ARHM   H6222916   2.251   7.854  11.940
   19ARHM   H6322917   2.376   7.896  11.816
   20ARHM    C122918   2.154   7.315  12.055
   20ARHM    H122919   2.146   7.242  11.971
   20ARHM    C522920   2.019   7.469  12.179
   20ARHM    H522921   2.096   7.548  12.165
   20ARHM    O522922   2.026   7.378  12.068
   20ARHM    C222923   2.184   7.239  12.182
   20ARHM    H222924   2.288   7.199  12.176
   20ARHM    O222925   2.095   7.128  12.200
   20ARHM    C322926   2.179   7.330  12.302
   20ARHM    H322927   2.258   7.407  12.293
   20ARHM    O322928   2.203   7.249  12.418
   20ARHM    C422929   2.043   7.395  12.309
   20ARHM    H422930   1.966   7.316  12.319
   20ARHM    O422931   2.030   7.482  12.422
   20ARHM   HO422932   2.013   7.572  12.394
   20ARHM    C622933   1.881   7.534  12.168
   20ARHM   H6122934   1.802   7.456  12.175
   20ARHM   H6222935   1.864   7.608  12.250
   20ARHM   H6322936   1.869   7.586  12.071
   21BMANN   C122937   2.120   7.019  12.114
   21BMANN   H122938   2.209   7.037  12.050
   21BMANN   C522939   2.027   6.882  11.943
   21BMANN   H522940   2.119   6.899  11.883
   21BMANN   O522941   2.006   6.993  12.031
   21BMANN   C222942   2.145   6.900  12.204
   21BMANN   H222943   2.242   6.922  12.255
   21BMANN    N22944   2.046   6.886  12.311
   21BMANN   HN22945   1.959   6.931  12.295
   21BMANN    C22946   2.072   6.826  12.427
   21BMANN    O22947   2.180   6.771  12.449
   21BMANN   CT22948   1.964   6.828  12.531
   21BMANN  HT122949   1.883   6.757  12.503
   21BMANN  HT222950   1.921   6.930  12.540
   21BMANN  HT322951   2.007   6.799  12.630
   21BMANN   C322952   2.167   6.778  12.117
   21BMANN   H322953   2.255   6.796  12.054
   21BMANN   O322954   2.196   6.662  12.196
   21BMANN  HO322955   2.193   6.685  12.288
   21BMANN   C422956   2.047   6.756  12.026
   21BMANN   H422957   1.956   6.739  12.089
   21BMANN   O422958   2.066   6.641  11.944
   21BMANN  HO422959   2.120   6.580  11.995
   21BMANN   C622960   1.910   6.873  11.846
   21BMANN  H6122961   1.919   6.782  11.783
   21BMANN  H6222962   1.817   6.864  11.905
   21BMANN   O622963   1.901   6.987  11.760
   21BMANN  HO622964   1.808   7.000  11.739
   22BGLCN   C122965   2.276   7.310  12.522
   22BGLCN   H122966   2.264   7.421  12.519
   22BGLCN   C522967   2.492   7.327  12.621
   22BGLCN   H522968   2.483   7.437  12.623
   22BGLCN   O522969   2.414   7.273  12.512
   22BGLCN   C222970   2.217   7.252  12.648
   22BGLCN   H222971   2.234   7.142  12.647
   22BGLCN    N22972   2.073   7.274  12.651
   22BGLCN   HN22973   2.040   7.347  12.592
   22BGLCN    C22974   1.983   7.196  12.714
   22BGLCN    O22975   2.012   7.097  12.780
   22BGLCN   CT22976   1.839   7.237  12.700
   22BGLCN  HT122977   1.782   7.152  12.655
   22BGLCN  HT222978   1.830   7.325  12.633
   22BGLCN  HT322979   1.797   7.261  12.798
   22BGLCN   C322980   2.292   7.309  12.767
   22BGLCN   H322981   2.282   7.420  12.765
   22BGLCN   O322982   2.229   7.260  12.888
   22BGLCN   C422983   2.439   7.273  12.753
   22BGLCN   H422984   2.447   7.162  12.753
   22BGLCN   O422985   2.518   7.324  12.859
   22BGLCN  HO422986   2.573   7.254  12.897
   22BGLCN   C622987   2.637   7.290  12.595
   22BGLCN  H6122988   2.694   7.284  12.689
   22BGLCN  H6222989   2.642   7.190  12.547
   22BGLCN   O622990   2.702   7.386  12.512
   22BGLCN  HO622991   2.743   7.340  12.439
   23AGAL    C122992   2.252   7.331  13.008
   23AGAL    H122993   2.359   7.323  13.037
   23AGAL    C522994   2.079   7.492  12.970
   23AGAL    H522995   2.053   7.438  12.875
   23AGAL    O522996   2.219   7.471  12.996
   23AGAL    C222997   2.170   7.268  13.118
   23AGAL    H222998   2.195   7.321  13.214
   23AGAL    O222999   2.203   7.129  13.133
   23AGAL    C323000   2.022   7.287  13.092
   23AGAL    H323001   1.998   7.239  12.995
   23AGAL    O323002   1.940   7.223  13.190
   23AGAL   HO323003   1.960   7.260  13.276
   23AGAL    C423004   1.992   7.436  13.081
   23AGAL    H423005   1.885   7.449  13.052
   23AGAL    O423006   2.014   7.507  13.203
   23AGAL   HO423007   2.043   7.594  13.175
   23AGAL    C623008   2.058   7.640  12.939
   23AGAL   H6123009   2.122   7.668  12.853
   23AGAL   H6223010   1.952   7.657  12.908
   23AGAL    O623011   2.087   7.726  13.050
   23AGAL   HO623012   2.073   7.817  13.023
   24ARHM    C123013   2.307   7.098  13.220
   24ARHM    H123014   2.377   7.184  13.227
   24ARHM    C523015   2.306   6.867  13.163
   24ARHM    H523016   2.227   6.884  13.089
   24ARHM    O523017   2.386   6.986  13.177
   24ARHM    C223018   2.246   7.071  13.356
   24ARHM    H223019   2.181   7.157  13.385
   24ARHM    O223020   2.349   7.054  13.456
   24ARHM    C323021   2.159   6.948  13.347
   24ARHM    H323022   2.078   6.967  13.273
   24ARHM    O323023   2.098   6.920  13.474
   24ARHM   HO323024   2.050   6.838  13.461
   24ARHM    C423025   2.242   6.832  13.298
   24ARHM    H423026   2.324   6.813  13.370
   24ARHM    O423027   2.164   6.712  13.287
   24ARHM   HO423028   2.207   6.644  13.340
   24ARHM    C623029   2.401   6.758  13.110
   24ARHM   H6123030   2.345   6.665  13.089
   24ARHM   H6223031   2.449   6.793  13.016
   24ARHM   H6323032   2.481   6.736  13.184
   25ARHM    C123033   2.398   7.173  13.509
   25ARHM    H123034   2.382   7.257  13.437
   25ARHM    C523035   2.575   7.068  13.627
   25ARHM    H523036   2.540   6.969  13.592
   25ARHM    O523037   2.540   7.168  13.530
   25ARHM    C223038   2.323   7.205  13.637
   25ARHM    H223039   2.214   7.196  13.617
   25ARHM    O223040   2.355   7.336  13.686
   25ARHM    C323041   2.357   7.102  13.741
   25ARHM    H323042   2.322   7.003  13.704
   25ARHM    O323043   2.286   7.137  13.860
   25ARHM    C423044   2.507   7.098  13.762
   25ARHM    H423045   2.542   7.198  13.797
   25ARHM    O423046   2.542   7.002  13.860
   25ARHM   HO423047   2.634   6.976  13.854
   25ARHM    C623048   2.729   7.065  13.634
   25ARHM   H6123049   2.770   7.043  13.533
   25ARHM   H6223050   2.768   7.163  13.666
   25ARHM   H6323051   2.765   6.986  13.703
   26BMANN   C123052   2.277   7.438  13.628
   26BMANN   H123053   2.175   7.402  13.602
   26BMANN   C523054   2.265   7.604  13.457
   26BMANN   H523055   2.166   7.566  13.425
   26BMANN   O523056   2.342   7.496  13.513
   26BMANN   C223057   2.268   7.545  13.735
   26BMANN   H223058   2.217   7.497  13.821
   26BMANN    N23059   2.400   7.588  13.779
   26BMANN   HN23060   2.471   7.587  13.708
   26BMANN    C23061   2.430   7.628  13.902
   26BMANN    O23062   2.346   7.638  13.991
   26BMANN   CT23063   2.574   7.662  13.929
   26BMANN  HT123064   2.640   7.591  13.873
   26BMANN  HT223065   2.595   7.654  14.037
   26BMANN  HT323066   2.596   7.765  13.894
   26BMANN   C323067   2.179   7.656  13.683
   26BMANN   H323068   2.081   7.614  13.656
   26BMANN   O323069   2.157   7.754  13.786
   26BMANN  HO323070   2.175   7.716  13.871
   26BMANN   C423071   2.244   7.715  13.561
   26BMANN   H423072   2.342   7.761  13.586
   26BMANN   O423073   2.161   7.816  13.503
   26BMANN  HO423074   2.159   7.891  13.562
   26BMANN   C623075   2.337   7.653  13.332
   26BMANN  H6123076   2.336   7.573  13.255
   26BMANN  H6223077   2.283   7.740  13.288
   26BMANN   O623078   2.474   7.689  13.354
   26BMANN  HO623079   2.487   7.733  13.439
   27BGLCN   C123080   2.244   7.028  13.939
   27BGLCN   H123081   2.313   6.941  13.927
   27BGLCN   C523082   2.064   6.879  13.985
   27BGLCN   H523083   2.132   6.793  13.970
   27BGLCN   O523084   2.110   6.990  13.905
   27BGLCN   C223085   2.246   7.079  14.082
   27BGLCN   H223086   2.170   7.159  14.088
   27BGLCN    N23087   2.376   7.135  14.116
   27BGLCN   HN23088   2.455   7.091  14.075
   27BGLCN    C23089   2.394   7.244  14.193
   27BGLCN    O23090   2.301   7.309  14.238
   27BGLCN   CT23091   2.537   7.284  14.217
   27BGLCN  HT123092   2.606   7.213  14.168
   27BGLCN  HT223093   2.557   7.285  14.326
   27BGLCN  HT323094   2.554   7.386  14.175
   27BGLCN   C323095   2.204   6.967  14.175
   27BGLCN   H323096   2.276   6.883  14.161
   27BGLCN   O323097   2.215   7.020  14.308
   27BGLCN   C423098   2.065   6.921  14.133
   27BGLCN   H423099   1.994   7.005  14.147
   27BGLCN   O423100   2.019   6.811  14.211
   27BGLCN  HO423101   2.072   6.733  14.196
   27BGLCN   C623102   1.926   6.841  13.936
   27BGLCN  H6123103   1.881   6.764  14.002
   27BGLCN  H6223104   1.860   6.930  13.939
   27BGLCN   O623105   1.927   6.789  13.802
   27BGLCN  HO623106   1.837   6.787  13.769
   28AGAL    C123107   2.205   6.930  14.416
   28AGAL    H123108   2.099   6.899  14.428
   28AGAL    C523109   2.428   6.844  14.393
   28AGAL    H523110   2.446   6.920  14.314
   28AGAL    O523111   2.287   6.813  14.395
   28AGAL    C223112   2.246   6.993  14.549
   28AGAL    H223113   2.236   6.909  14.620
   28AGAL    O223114   2.160   7.100  14.595
   28AGAL    C323115   2.393   7.033  14.546
   28AGAL    H323116   2.407   7.100  14.459
   28AGAL    O323117   2.434   7.107  14.661
   28AGAL   HO323118   2.500   7.172  14.637
   28AGAL    C423119   2.476   6.907  14.525
   28AGAL    H423120   2.582   6.937  14.514
   28AGAL    O423121   2.466   6.817  14.636
   28AGAL   HO423122   2.544   6.761  14.639
   28AGAL    C623123   2.507   6.721  14.346
   28AGAL   H6123124   2.471   6.693  14.245
   28AGAL   H6223125   2.614   6.748  14.337
   28AGAL    O623126   2.495   6.608  14.432
   28AGAL   HO623127   2.403   6.581  14.436
   29ARHM    C123128   2.132   7.088  14.733
   29ARHM    H123129   2.213   7.028  14.782
   29ARHM    C523130   1.895   7.099  14.703
   29ARHM    H523131   1.909   7.109  14.593
   29ARHM    O523132   2.005   7.024  14.757
   29ARHM    C223133   2.130   7.222  14.803
   29ARHM    H223134   2.229   7.271  14.787
   29ARHM    O223135   2.104   7.205  14.944
   29ARHM    C323136   2.022   7.309  14.744
   29ARHM    H323137   2.039   7.318  14.634
   29ARHM    O323138   2.024   7.441  14.799
   29ARHM   HO323139   1.962   7.492  14.747
   29ARHM    C423140   1.890   7.238  14.766
   29ARHM    H423141   1.876   7.224  14.876
   29ARHM    O423142   1.777   7.314  14.720
   29ARHM   HO423143   1.765   7.299  14.626
   29ARHM    C623144   1.770   7.015  14.728
   29ARHM   H6123145   1.781   6.915  14.681
   29ARHM   H6223146   1.753   7.000  14.837
   29ARHM   H6323147   1.680   7.063  14.685
   30ARHM    C123148   2.218   7.205  15.027
   30ARHM    H123149   2.276   7.297  15.005
   30ARHM    C523150   2.240   6.967  15.033
   30ARHM    H523151   2.150   6.956  14.969
   30ARHM    O523152   2.304   7.092  15.005
   30ARHM    C223153   2.174   7.206  15.172
   30ARHM    H223154   2.098   7.286  15.186
   30ARHM    O223155   2.285   7.232  15.258
   30ARHM    C323156   2.105   7.074  15.207
   30ARHM    H323157   2.017   7.065  15.140
   30ARHM    O323158   2.053   7.078  15.342
   30ARHM    C423159   2.197   6.958  15.178
   30ARHM    H423160   2.288   6.960  15.242
   30ARHM    O423161   2.130   6.833  15.198
   30ARHM   HO423162   2.061   6.822  15.131
   30ARHM    C623163   2.341   6.858  14.991
   30ARHM   H6123164   2.298   6.757  15.004
   30ARHM   H6223165   2.370   6.871  14.884
   30ARHM   H6323166   2.433   6.866  15.053
   31BMANN   C123167   2.322   7.366  15.276
   31BMANN   H123168   2.233   7.431  15.293
   31BMANN   C523169   2.450   7.547  15.186
   31BMANN   H523170   2.364   7.614  15.206
   31BMANN   O523171   2.401   7.413  15.167
   31BMANN   C223172   2.413   7.362  15.396
   31BMANN   H223173   2.351   7.329  15.483
   31BMANN    N23174   2.517   7.262  15.379
   31BMANN   HN23175   2.529   7.229  15.285
   31BMANN    C23176   2.588   7.207  15.477
   31BMANN    O23177   2.575   7.243  15.593
   31BMANN   CT23178   2.681   7.096  15.438
   31BMANN  HT123179   2.769   7.138  15.384
   31BMANN  HT223180   2.630   7.023  15.372
   31BMANN  HT323181   2.717   7.043  15.529
   31BMANN   C323182   2.461   7.503  15.425
   31BMANN   H323183   2.372   7.569  15.434
   31BMANN   O323184   2.528   7.511  15.550
   31BMANN  HO323185   2.565   7.425  15.571
   31BMANN   C423186   2.542   7.554  15.307
   31BMANN   H423187   2.631   7.490  15.291
   31BMANN   O423188   2.585   7.688  15.326
   31BMANN  HO423189   2.607   7.706  15.418
   31BMANN   C623190   2.514   7.589  15.055
   31BMANN  H6123191   2.584   7.674  15.071
   31BMANN  H6223192   2.573   7.505  15.013
   31BMANN   O623193   2.415   7.631  14.961
   31BMANN  HO623194   2.388   7.720  14.986
   32BGLCN   C123195   2.144   7.051  15.447
   32BGLCN   H123196   2.246   7.088  15.422
   32BGLCN   C523197   2.256   6.884  15.576
   32BGLCN   H523198   2.352   6.925  15.539
   32BGLCN   O523199   2.155   6.912  15.478
   32BGLCN   C223200   2.097   7.120  15.574
   32BGLCN   H223201   2.008   7.063  15.609
   32BGLCN    N23202   2.055   7.257  15.549
   32BGLCN   HN23203   2.117   7.313  15.493
   32BGLCN    C23204   1.935   7.306  15.583
   32BGLCN    O23205   1.854   7.243  15.650
   32BGLCN   CT23206   1.901   7.444  15.534
   32BGLCN  HT123207   1.922   7.450  15.425
   32BGLCN  HT223208   1.960   7.520  15.589
   32BGLCN  HT323209   1.793   7.462  15.550
   32BGLCN   C323210   2.205   7.103  15.680
   32BGLCN   H323211   2.300   7.140  15.636
   32BGLCN   O323212   2.180   7.175  15.802
   32BGLCN   C423213   2.220   6.954  15.707
   32BGLCN   H423214   2.122   6.915  15.741
   32BGLCN   O423215   2.314   6.928  15.810
   32BGLCN  HO423216   2.289   6.982  15.885
   32BGLCN   C623217   2.274   6.734  15.590
   32BGLCN  H6123218   2.371   6.713  15.641
   32BGLCN  H6223219   2.192   6.692  15.652
   32BGLCN   O623220   2.275   6.666  15.464
   32BGLCN  HO623221   2.346   6.701  15.410
   33AGAL    C123222   2.293   7.245  15.851
   33AGAL    H123223   2.385   7.184  15.837
   33AGAL    C523224   2.202   7.459  15.798
   33AGAL    H523225   2.108   7.407  15.770
   33AGAL    O523226   2.311   7.368  15.779
   33AGAL    C223227   2.279   7.277  15.999
   33AGAL    H223228   2.373   7.328  16.029
   33AGAL    O223229   2.269   7.152  16.072
   33AGAL    C323230   2.163   7.373  16.024
   33AGAL    H323231   2.070   7.324  15.988
   33AGAL    O323232   2.143   7.404  16.161
   33AGAL   HO323233   2.215   7.461  16.188
   33AGAL    C423234   2.186   7.499  15.944
   33AGAL    H423235   2.097   7.564  15.953
   33AGAL    O423236   2.299   7.573  15.991
   33AGAL   HO423237   2.338   7.615  15.913
   33AGAL    C623238   2.217   7.575  15.701
   33AGAL   H6123239   2.222   7.535  15.597
   33AGAL   H6223240   2.126   7.639  15.707
   33AGAL    O623241   2.332   7.656  15.725
   33AGAL   HO623242   2.410   7.617  15.684
   34ARHM    C123243   2.337   7.152  16.196
   34ARHM    H123244   2.305   7.241  16.255
   34ARHM    C523245   2.533   7.046  16.111
   34ARHM    H523246   2.491   7.041  16.008
   34ARHM    O523247   2.479   7.159  16.180
   34ARHM    C223248   2.298   7.026  16.272
   34ARHM    H223249   2.187   7.021  16.275
   34ARHM    O223250   2.346   7.020  16.409
   34ARHM    C323251   2.350   6.905  16.198
   34ARHM    H323252   2.305   6.904  16.096
   34ARHM    O323253   2.311   6.782  16.261
   34ARHM   HO323254   2.342   6.710  16.206
   34ARHM    C423255   2.500   6.916  16.184
   34ARHM    H423256   2.546   6.921  16.285
   34ARHM    O423257   2.557   6.805  16.115
   34ARHM   HO423258   2.578   6.737  16.180
   34ARHM    C623259   2.684   7.073  16.099
   34ARHM   H6123260   2.731   7.078  16.200
   34ARHM   H6223261   2.734   6.993  16.040
   34ARHM   H6323262   2.702   7.170  16.048
   35ARHM    C123263   2.315   7.127  16.495
   35ARHM    H123264   2.210   7.160  16.478
   35ARHM    C523265   2.542   7.200  16.488
   35ARHM    H523266   2.566   7.120  16.416
   35ARHM    O523267   2.404   7.238  16.475
   35ARHM    C223268   2.333   7.077  16.637
   35ARHM    H223269   2.268   6.988  16.651
   35ARHM    O223270   2.300   7.175  16.738
   35ARHM    C323271   2.476   7.032  16.657
   35ARHM    H323272   2.499   6.951  16.585
   35ARHM    O323273   2.497   6.978  16.788
   35ARHM   HO323274   2.421   6.994  16.845
   35ARHM    C423275   2.568   7.149  16.629
   35ARHM    H423276   2.546   7.231  16.700
   35ARHM    O423277   2.706   7.113  16.644
   35ARHM   HO423278   2.726   7.113  16.738
   35ARHM    C623279   2.624   7.324  16.449
   35ARHM   H6123280   2.599   7.355  16.346
   35ARHM   H6223281   2.601   7.408  16.518
   35ARHM   H6323282   2.733   7.301  16.454
   36BMANN   C123283   2.163   7.207  16.748
   36BMANN   H123284   2.101   7.118  16.725
   36BMANN   C523285   1.991   7.349  16.664
   36BMANN   H523286   1.932   7.259  16.636
   36BMANN   O523287   2.131   7.316  16.660
   36BMANN   C223288   2.135   7.253  16.890
   36BMANN   H223289   2.157   7.166  16.955
   36BMANN    N23290   2.218   7.366  16.934
   36BMANN   HN23291   2.221   7.444  16.872
   36BMANN    C23292   2.274   7.375  17.055
   36BMANN    O23293   2.282   7.280  17.132
   36BMANN   CT23294   2.328   7.510  17.094
   36BMANN  HT123295   2.271   7.590  17.044
   36BMANN  HT223296   2.436   7.517  17.067
   36BMANN  HT323297   2.319   7.522  17.204
   36BMANN   C323298   1.986   7.282  16.902
   36BMANN   H323299   1.929   7.190  16.876
   36BMANN   O323300   1.952   7.317  17.036
   36BMANN  HO323301   1.960   7.241  17.093
   36BMANN   C423302   1.949   7.392  16.804
   36BMANN   H423303   2.002   7.485  16.832
   36BMANN   O423304   1.809   7.418  16.803
   36BMANN  HO423305   1.789   7.492  16.861
   36BMANN   C623306   1.966   7.456  16.559
   36BMANN  H6123307   2.009   7.423  16.462
   36BMANN  H6223308   1.856   7.468  16.544
   36BMANN   O623309   2.022   7.582  16.595
   36BMANN  HO623310   1.951   7.642  16.622
    1ECLIP HB6S23311   4.278   0.381   6.686
    1ECLIP  OB623312   4.312   0.213   6.802
    1ECLIP  CB623313   4.362   0.313   6.712
    1ECLIP HB6R23314   4.442   0.374   6.759
    1ECLIP  CB523315   4.418   0.258   6.584
    1ECLIP  OB523316   4.315   0.176   6.530
    1ECLIP  HB523317   4.506   0.195   6.609
    1ECLIP  CB123318   4.358   0.104   6.417
    1ECLIP  HB123319   4.448   0.045   6.444
    1ECLIP  OA623320   4.260   0.013   6.379
    1ECLIP  CA623321   4.125   0.063   6.391
    1ECLIP HA6R23322   4.121   0.172   6.370
    1ECLIP HA6S23323   4.089   0.048   6.495
    1ECLIP  CB423324   4.459   0.364   6.481
    1ECLIP  HB423325   4.373   0.429   6.457
    1ECLIP  OB423326   4.568   0.438   6.537
    1ECLIP   PB23327   4.569   0.598   6.582
    1ECLIP OPB423328   4.654   0.607   6.708
    1ECLIP OPB323329   4.427   0.641   6.617
    1ECLIP OPB223330   4.626   0.682   6.470
    1ECLIP  CB323331   4.503   0.289   6.358
    1ECLIP  OB323332   4.533   0.387   6.259
    1ECLIP  HB323333   4.592   0.228   6.386
    1ECLIP  C7123334   4.633   0.361   6.179
    1ECLIP  O7123335   4.701   0.260   6.179
    1ECLIP  C7223336   4.610   0.436   6.049
    1ECLIP H72R23337   4.570   0.364   5.976
    1ECLIP H72S23338   4.710   0.472   6.016
    1ECLIP  CB223339   4.395   0.196   6.301
    1ECLIP  HB223340   4.307   0.258   6.276
    1ECLIP  NB223341   4.437   0.121   6.179
    1ECLIP HNB223342   4.520   0.066   6.190
    1ECLIP  CA423343   4.113  -0.126   6.226
    1ECLIP  HA423344   4.204  -0.078   6.186
    1ECLIP  OA423345   4.150  -0.220   6.327
    1ECLIP HOA423346   4.193  -0.167   6.394
    1ECLIP  CA523347   4.037  -0.014   6.293
    1ECLIP  HA523348   3.946  -0.051   6.346
    1ECLIP  OA523349   4.001   0.082   6.193
    1ECLIP  CA123350   3.922   0.026   6.087
    1ECLIP  HA123351   3.888   0.106   6.019
    1ECLIP  OA123352   3.816  -0.048   6.141
    1ECLIP OPA223353   3.627  -0.100   6.290
    1ECLIP OPA323354   3.655   0.140   6.214
    1ECLIP OPA423355   3.583  -0.053   6.059
    1ECLIP   PA23356   3.668  -0.006   6.177
    1ECLIP  CA323357   4.040  -0.192   6.111
    1ECLIP  HA323358   3.946  -0.236   6.153
    1ECLIP  OA323359   4.109  -0.308   6.059
    1ECLIP  C3123360   4.240  -0.299   6.042
    1ECLIP  O3123361   4.300  -0.196   6.017
    1ECLIP  C3223362   4.307  -0.408   6.127
    1ECLIP H32R23363   4.288  -0.509   6.085
    1ECLIP H32S23364   4.260  -0.408   6.228
    1ECLIP  CA223365   4.005  -0.078   6.012
    1ECLIP  HA223366   4.101  -0.030   5.985
    1ECLIP  NA223367   3.937  -0.113   5.888
    1ECLIP HNA223368   3.861  -0.178   5.898
    1ECLIP  C7323369   4.517   0.557   6.059
    1ECLIP H73R23370   4.537   0.613   6.153
    1ECLIP  O7323371   4.384   0.505   6.054
    1ECLIP  C8123372   4.290   0.586   6.099
    1ECLIP  O8123373   4.308   0.702   6.135
    1ECLIP  C8223374   4.156   0.536   6.046
    1ECLIP H82R23375   4.079   0.610   6.078
    1ECLIP H82S23376   4.134   0.438   6.094
    1ECLIP  C8323377   4.156   0.522   5.893
    1ECLIP H83R23378   4.218   0.434   5.865
    1ECLIP H83S23379   4.204   0.612   5.847
    1ECLIP  C8423380   4.016   0.507   5.833
    1ECLIP H84R23381   3.958   0.600   5.851
    1ECLIP H84S23382   3.964   0.423   5.884
    1ECLIP  C8523383   4.023   0.476   5.683
    1ECLIP H85R23384   4.072   0.377   5.671
    1ECLIP H85S23385   4.087   0.552   5.634
    1ECLIP  C8623386   3.886   0.472   5.615
    1ECLIP H86R23387   3.849   0.576   5.602
    1ECLIP H86S23388   3.815   0.418   5.679
    1ECLIP  C8723389   3.889   0.402   5.477
    1ECLIP H87R23390   3.789   0.409   5.429
    1ECLIP H87S23391   3.909   0.294   5.497
    1ECLIP  C8823392   3.997   0.455   5.382
    1ECLIP H88R23393   4.096   0.445   5.432
    1ECLIP H88S23394   3.980   0.563   5.362
    1ECLIP  C8923395   4.007   0.378   5.249
    1ECLIP H89R23396   4.007   0.268   5.270
    1ECLIP H89S23397   4.105   0.403   5.205
    1ECLIP C81023398   3.895   0.411   5.149
    1ECLIPH810R23399   3.862   0.516   5.167
    1ECLIPH810S23400   3.807   0.347   5.170
    1ECLIP C81123401   3.937   0.396   5.002
    1ECLIPH811R23402   3.849   0.420   4.938
    1ECLIPH811S23403   3.965   0.291   4.983
    1ECLIP C81223404   4.054   0.487   4.957
    1ECLIPH812R23405   4.065   0.480   4.847
    1ECLIPH812S23406   4.149   0.448   5.002
    1ECLIP C81323407   4.037   0.634   4.998
    1ECLIPH813R23408   3.940   0.671   4.959
    1ECLIPH813S23409   4.032   0.640   5.109
    1ECLIP C81423410   4.151   0.725   4.951
    1ECLIPH814R23411   4.152   0.730   4.840
    1ECLIPH814S23412   4.248   0.686   4.987
    1ECLIPH814T23413   4.137   0.827   4.991
    1ECLIP  C7423414   4.541   0.652   5.938
    1ECLIP H74R23415   4.642   0.698   5.948
    1ECLIP H74S23416   4.467   0.734   5.945
    1ECLIP  C7523417   4.529   0.587   5.799
    1ECLIP H75R23418   4.507   0.669   5.726
    1ECLIP H75S23419   4.443   0.517   5.796
    1ECLIP  C7623420   4.656   0.515   5.748
    1ECLIP H76R23421   4.679   0.426   5.809
    1ECLIP H76S23422   4.743   0.584   5.754
    1ECLIP  C7723423   4.642   0.464   5.604
    1ECLIP H77R23424   4.636   0.553   5.538
    1ECLIP H77S23425   4.547   0.408   5.594
    1ECLIP  C7823426   4.759   0.373   5.564
    1ECLIP H78R23427   4.853   0.432   5.575
    1ECLIP H78S23428   4.765   0.287   5.635
    1ECLIP  C7923429   4.748   0.319   5.421
    1ECLIP H79R23430   4.679   0.232   5.419
    1ECLIP H79S23431   4.848   0.283   5.388
    1ECLIP C71023432   4.695   0.424   5.325
    1ECLIPH710R23433   4.590   0.447   5.351
    1ECLIPH710S23434   4.754   0.518   5.334
    1ECLIP C71123435   4.696   0.381   5.179
    1ECLIPH711R23436   4.800   0.380   5.138
    1ECLIPH711S23437   4.656   0.277   5.171
    1ECLIP C71223438   4.607   0.474   5.095
    1ECLIPH712R23439   4.656   0.573   5.084
    1ECLIPH712S23440   4.511   0.490   5.150
    1ECLIP C71323441   4.573   0.416   4.958
    1ECLIPH713R23442   4.521   0.319   4.972
    1ECLIPH713S23443   4.501   0.485   4.910
    1ECLIP C71423444   4.695   0.395   4.870
    1ECLIPH714R23445   4.749   0.491   4.861
    1ECLIPH714S23446   4.764   0.321   4.914
    1ECLIPH714T23447   4.666   0.359   4.768
    1ECLIP  C5123448   4.387   0.133   6.054
    1ECLIP  O5123449   4.289   0.202   6.030
    1ECLIP  C5223450   4.462   0.059   5.940
    1ECLIP H52R23451   4.560   0.107   5.925
    1ECLIP H52S23452   4.479  -0.046   5.974
    1ECLIP  C5323453   4.386   0.053   5.804
    1ECLIP H53R23454   4.278   0.032   5.822
    1ECLIP  O5323455   4.449  -0.046   5.720
    1ECLIP  C6123456   4.374  -0.147   5.677
    1ECLIP  O6123457   4.261  -0.173   5.714
    1ECLIP  C6223458   4.444  -0.219   5.561
    1ECLIP H62R23459   4.512  -0.295   5.605
    1ECLIP H62S23460   4.504  -0.144   5.505
    1ECLIP  C6323461   4.342  -0.289   5.466
    1ECLIP H63R23462   4.267  -0.215   5.431
    1ECLIP H63S23463   4.287  -0.366   5.524
    1ECLIP  C6423464   4.404  -0.357   5.342
    1ECLIP H64R23465   4.327  -0.422   5.295
    1ECLIP H64S23466   4.489  -0.421   5.374
    1ECLIP  C6523467   4.451  -0.256   5.235
    1ECLIP H65R23468   4.520  -0.184   5.285
    1ECLIP H65S23469   4.364  -0.198   5.198
    1ECLIP  C6623470   4.527  -0.319   5.116
    1ECLIP H66R23471   4.602  -0.391   5.155
    1ECLIP H66S23472   4.583  -0.238   5.065
    1ECLIP  C6723473   4.440  -0.388   5.010
    1ECLIP H67R23474   4.390  -0.477   5.054
    1ECLIP H67S23475   4.507  -0.425   4.929
    1ECLIP  C6823476   4.333  -0.297   4.948
    1ECLIP H68R23477   4.379  -0.200   4.920
    1ECLIP H68S23478   4.255  -0.277   5.024
    1ECLIP  C6923479   4.266  -0.358   4.825
    1ECLIP H69R23480   4.235  -0.462   4.847
    1ECLIP H69S23481   4.341  -0.362   4.742
    1ECLIP C61023482   4.143  -0.278   4.780
    1ECLIPH610R23483   4.171  -0.172   4.762
    1ECLIPH610S23484   4.069  -0.279   4.862
    1ECLIP C61123485   4.075  -0.334   4.655
    1ECLIPH611R23486   4.055  -0.442   4.671
    1ECLIPH611S23487   3.977  -0.284   4.642
    1ECLIP C61223488   4.156  -0.318   4.524
    1ECLIPH612R23489   4.176  -0.210   4.506
    1ECLIPH612S23490   4.252  -0.372   4.530
    1ECLIPH612T23491   4.098  -0.358   4.438
    1ECLIP  C5423492   4.399   0.188   5.727
    1ECLIP H54R23493   4.506   0.208   5.708
    1ECLIP H54S23494   4.362   0.267   5.795
    1ECLIP  C5523495   4.320   0.203   5.594
    1ECLIP H55R23496   4.315   0.312   5.573
    1ECLIP H55S23497   4.215   0.169   5.609
    1ECLIP  C5623498   4.380   0.135   5.469
    1ECLIP H56R23499   4.355   0.027   5.471
    1ECLIP H56S23500   4.491   0.146   5.471
    1ECLIP  C5723501   4.327   0.195   5.337
    1ECLIP H57R23502   4.351   0.303   5.333
    1ECLIP H57S23503   4.216   0.186   5.339
    1ECLIP  C5823504   4.379   0.128   5.209
    1ECLIP H58R23505   4.489   0.145   5.200
    1ECLIP H58S23506   4.364   0.018   5.216
    1ECLIP  C5923507   4.309   0.180   5.082
    1ECLIP H59R23508   4.328   0.289   5.075
    1ECLIP H59S23509   4.199   0.168   5.094
    1ECLIP C51023510   4.352   0.112   4.950
    1ECLIPH510R23511   4.320   0.006   4.950
    1ECLIPH510S23512   4.463   0.114   4.945
    1ECLIP C51123513   4.294   0.184   4.826
    1ECLIPH511R23514   4.186   0.161   4.816
    1ECLIPH511S23515   4.302   0.293   4.846
    1ECLIP C51223516   4.369   0.157   4.694
    1ECLIPH512R23517   4.351   0.243   4.627
    1ECLIPH512S23518   4.478   0.152   4.714
    1ECLIP C51323519   4.323   0.031   4.620
    1ECLIPH513R23520   4.214   0.041   4.598
    1ECLIPH513S23521   4.335  -0.057   4.686
    1ECLIP C51423522   4.398   0.007   4.488
    1ECLIPH514R23523   4.507  -0.001   4.507
    1ECLIPH514S23524   4.365  -0.088   4.441
    1ECLIPH514T23525   4.380   0.090   4.417
    1ECLIP  C3323526   4.459  -0.386   6.143
    1ECLIP H33R23527   4.503  -0.469   6.203
    1ECLIP  O3323528   4.476  -0.266   6.217
    1ECLIP HO3323529   4.426  -0.194   6.177
    1ECLIP  C3423530   4.534  -0.378   6.009
    1ECLIP H34R23531   4.468  -0.337   5.929
    1ECLIP H34S23532   4.560  -0.481   5.976
    1ECLIP  C3523533   4.661  -0.290   6.007
    1ECLIP H35R23534   4.743  -0.339   6.063
    1ECLIP H35S23535   4.640  -0.193   6.058
    1ECLIP  C3623536   4.704  -0.252   5.865
    1ECLIP H36R23537   4.615  -0.206   5.815
    1ECLIP H36S23538   4.732  -0.341   5.806
    1ECLIP  C3723539   4.816  -0.147   5.863
    1ECLIP H37R23540   4.915  -0.197   5.875
    1ECLIP H37S23541   4.803  -0.079   5.950
    1ECLIP  C3823542   4.817  -0.061   5.736
    1ECLIP H38R23543   4.725   0.000   5.733
    1ECLIP H38S23544   4.903   0.009   5.742
    1ECLIP  C3923545   4.827  -0.140   5.605
    1ECLIP H39R23546   4.732  -0.195   5.589
    1ECLIP H39S23547   4.909  -0.215   5.611
    1ECLIP C31023548   4.853  -0.046   5.487
    1ECLIPH310R23549   4.958  -0.009   5.493
    1ECLIPH310S23550   4.787   0.042   5.498
    1ECLIP C31123551   4.827  -0.108   5.349
    1ECLIPH311R23552   4.885  -0.203   5.339
    1ECLIPH311S23553   4.719  -0.133   5.342
    1ECLIP C31223554   4.865  -0.011   5.238
    1ECLIPH312R23555   4.827   0.090   5.264
    1ECLIPH312S23556   4.976  -0.003   5.231
    1ECLIP C31323557   4.808  -0.047   5.101
    1ECLIPH313R23558   4.840  -0.149   5.072
    1ECLIPH313S23559   4.697  -0.047   5.108
    1ECLIP C31423560   4.851   0.053   4.995
    1ECLIPH314R23561   4.961   0.048   4.978
    1ECLIPH314S23562   4.800   0.034   4.898
    1ECLIPH314T23563   4.826   0.156   5.028
    1ECLIP  C1123564   3.947  -0.037   5.778
    1ECLIP  O1123565   4.037   0.044   5.759
    1ECLIP  C1223566   3.836  -0.047   5.675
    1ECLIP H12R23567   3.757   0.026   5.703
    1ECLIP H12S23568   3.791  -0.149   5.677
    1ECLIP  C1323569   3.886  -0.014   5.533
    1ECLIP H13R23570   3.926   0.090   5.530
    1ECLIP  O1323571   3.774  -0.022   5.447
    1ECLIP HO1323572   3.792   0.005   5.358
    1ECLIP  C1423573   3.997  -0.110   5.483
    1ECLIP H14R23574   3.982  -0.205   5.540
    1ECLIP H14S23575   4.096  -0.071   5.514
    1ECLIP  C1523576   3.999  -0.147   5.333
    1ECLIP H15R23577   3.896  -0.176   5.301
    1ECLIP H15S23578   4.062  -0.237   5.320
    1ECLIP  C1623579   4.053  -0.039   5.240
    1ECLIP H16R23580   4.164  -0.045   5.245
    1ECLIP H16S23581   4.024   0.061   5.278
    1ECLIP  C1723582   4.006  -0.056   5.094
    1ECLIP H17R23583   4.002  -0.164   5.069
    1ECLIP H17S23584   4.081  -0.008   5.028
    1ECLIP  C1823585   3.870   0.011   5.071
    1ECLIP H18R23586   3.798  -0.029   5.145
    1ECLIP H18S23587   3.879   0.120   5.089
    1ECLIP  C1923588   3.811  -0.013   4.931
    1ECLIP H19R23589   3.713   0.039   4.924
    1ECLIP H19S23590   3.792  -0.121   4.920
    1ECLIP C11023591   3.898   0.033   4.813
    1ECLIPH110R23592   3.912   0.143   4.814
    1ECLIPH110S23593   3.999  -0.014   4.820
    1ECLIP C11123594   3.833  -0.012   4.682
    1ECLIPH111R23595   3.809  -0.119   4.695
    1ECLIPH111S23596   3.737   0.043   4.667
    1ECLIP C11223597   3.920  -0.001   4.556
    1ECLIPH112R23598   3.930   0.105   4.525
    1ECLIPH112S23599   4.021  -0.041   4.578
    1ECLIP C11323600   3.858  -0.088   4.445
    1ECLIPH113R23601   3.855  -0.191   4.486
    1ECLIPH113S23602   3.753  -0.056   4.429
    1ECLIP C11423603   3.931  -0.091   4.311
    1ECLIPH114R23604   3.892  -0.011   4.245
    1ECLIPH114S23605   4.041  -0.079   4.325
    1ECLIPH114T23606   3.912  -0.187   4.259
    2AKDO    C123607   4.521   0.100   6.870
    2AKDO   O1123608   4.623   0.115   6.943
    2AKDO   O1223609   4.496   0.000   6.796
    2AKDO    C223610   4.396   0.186   6.913
    2AKDO    C623611   4.324   0.389   7.021
    2AKDO    H623612   4.257   0.406   6.934
    2AKDO    O623613   4.436   0.307   6.980
    2AKDO    C323614   4.311   0.111   7.016
    2AKDO   H3123615   4.380   0.092   7.101
    2AKDO   H3223616   4.278   0.015   6.969
    2AKDO    C423617   4.192   0.186   7.065
    2AKDO    H423618   4.119   0.204   6.983
    2AKDO    O423619   4.133   0.114   7.174
    2AKDO    C523620   4.237   0.318   7.128
    2AKDO    H523621   4.144   0.378   7.139
    2AKDO    O523622   4.294   0.300   7.261
    2AKDO    C723623   4.388   0.523   7.052
    2AKDO    H723624   4.462   0.505   7.134
    2AKDO    O723625   4.291   0.622   7.091
    2AKDO   HO723626   4.241   0.636   7.011
    2AKDO    C823627   4.464   0.573   6.931
    2AKDO   H8123628   4.535   0.495   6.898
    2AKDO   H8223629   4.393   0.590   6.847
    2AKDO    O823630   4.545   0.690   6.950
    2AKDO   HO823631   4.599   0.682   6.870
    3AKDO    C123632   3.928   0.012   7.075
    3AKDO   O1123633   3.945  -0.012   6.951
    3AKDO   O1223634   3.818   0.007   7.137
    3AKDO    C223635   4.055  -0.003   7.164
    3AKDO    C623636   4.244  -0.153   7.198
    3AKDO    H623637   4.320  -0.074   7.188
    3AKDO    O623638   4.124  -0.124   7.124
    3AKDO    C323639   4.022  -0.012   7.314
    3AKDO   H3123640   3.949  -0.094   7.330
    3AKDO   H3223641   3.973   0.082   7.345
    3AKDO    C423642   4.147  -0.034   7.395
    3AKDO    H423643   4.219   0.049   7.378
    3AKDO    O423644   4.114  -0.035   7.533
    3AKDO   HO423645   4.046   0.032   7.546
    3AKDO    C523646   4.211  -0.163   7.347
    3AKDO    H523647   4.305  -0.178   7.405
    3AKDO    O523648   4.126  -0.273   7.373
    3AKDO   HO523649   4.046  -0.251   7.325
    3AKDO    C723650   4.302  -0.281   7.137
    3AKDO    H723651   4.221  -0.356   7.129
    3AKDO    O723652   4.408  -0.332   7.219
    3AKDO   HO723653   4.454  -0.394   7.161
    3AKDO    C823654   4.355  -0.257   6.997
    3AKDO   H8123655   4.277  -0.208   6.934
    3AKDO   H8223656   4.443  -0.190   6.998
    3AKDO    O823657   4.390  -0.382   6.936
    3AKDO   HO823658   4.311  -0.436   6.939
    4AHEP    C123659   4.281   0.411   7.348
    4AHEP    H123660   4.336   0.494   7.300
    4AHEP    C523661   4.066   0.380   7.452
    4AHEP    H523662   4.068   0.279   7.406
    4AHEP    O523663   4.149   0.464   7.368
    4AHEP    C223664   4.349   0.393   7.484
    4AHEP    H223665   4.442   0.336   7.464
    4AHEP    O223666   4.391   0.518   7.542
    4AHEP   HO223667   4.441   0.565   7.474
    4AHEP    C323668   4.265   0.308   7.579
    4AHEP    H323669   4.253   0.208   7.532
    4AHEP    O323670   4.327   0.298   7.709
    4AHEP    C423671   4.127   0.369   7.594
    4AHEP    H423672   4.138   0.472   7.636
    4AHEP    O423673   4.047   0.286   7.681
    4AHEP    P423674   3.966   0.338   7.815
    4AHEP  OP4223675   3.909   0.215   7.884
    4AHEP  OP4323676   3.853   0.429   7.769
    4AHEP  OP4423677   4.061   0.411   7.910
    4AHEP    C623678   3.919   0.424   7.446
    4AHEP    H623679   3.859   0.340   7.487
    4AHEP    O623680   3.898   0.538   7.531
    4AHEP   HO623681   3.894   0.497   7.617
    4AHEP    C723682   3.864   0.452   7.306
    4AHEP   H7123683   3.754   0.459   7.311
    4AHEP   H7223684   3.888   0.363   7.241
    4AHEP    O723685   3.915   0.570   7.238
    4AHEP   HO723686   3.902   0.555   7.144
    5AHEP    C123687   4.372   0.170   7.748
    5AHEP    H123688   4.322   0.092   7.686
    5AHEP    C523689   4.588   0.248   7.816
    5AHEP    H523690   4.548   0.350   7.796
    5AHEP    O523691   4.514   0.157   7.733
    5AHEP    C223692   4.334   0.143   7.893
    5AHEP    H223693   4.226   0.167   7.905
    5AHEP    O223694   4.351   0.004   7.929
    5AHEP   HO223695   4.306  -0.050   7.865
    5AHEP    C323696   4.412   0.236   7.984
    5AHEP    H323697   4.388   0.341   7.955
    5AHEP    O323698   4.385   0.216   8.123
    5AHEP    C423699   4.560   0.215   7.962
    5AHEP    H423700   4.584   0.107   7.978
    5AHEP    O423701   4.639   0.302   8.044
    5AHEP    P423702   4.714   0.243   8.179
    5AHEP  OP4223703   4.809   0.353   8.219
    5AHEP  OP4323704   4.793   0.121   8.132
    5AHEP  OP4423705   4.610   0.208   8.282
    5AHEP    C623706   4.735   0.256   7.775
    5AHEP    H623707   4.779   0.346   7.825
    5AHEP    O623708   4.808   0.140   7.818
    5AHEP   HO623709   4.790   0.083   7.742
    5AHEP    C723710   4.743   0.270   7.624
    5AHEP   H7123711   4.827   0.339   7.601
    5AHEP   H7223712   4.652   0.319   7.582
    5AHEP    O723713   4.773   0.145   7.562
    6AHEP    C123714   4.666   0.089   7.490
    6AHEP    H123715   4.572   0.147   7.500
    6AHEP    C523716   4.818   0.008   7.323
    6AHEP    H523717   4.899   0.058   7.380
    6AHEP    O523718   4.695   0.078   7.351
    6AHEP    C223719   4.645  -0.050   7.544
    6AHEP    H223720   4.628  -0.039   7.655
    6AHEP    O223721   4.527  -0.112   7.492
    6AHEP   HO223722   4.503  -0.067   7.411
    6AHEP    C323723   4.771  -0.132   7.524
    6AHEP    H323724   4.855  -0.083   7.576
    6AHEP    O323725   4.757  -0.262   7.583
    6AHEP   HO323726   4.741  -0.324   7.512
    6AHEP    C423727   4.805  -0.135   7.375
    6AHEP    H423728   4.723  -0.187   7.320
    6AHEP    O423729   4.927  -0.206   7.355
    6AHEP   HO423730   4.926  -0.244   7.267
    6AHEP    C623731   4.857   0.020   7.176
    6AHEP    H623732   4.958  -0.026   7.163
    6AHEP    O623733   4.766  -0.053   7.094
    6AHEP   HO623734   4.706   0.013   7.058
    6AHEP    C723735   4.867   0.165   7.127
    6AHEP   H7123736   4.897   0.167   7.020
    6AHEP   H7223737   4.947   0.217   7.184
    6AHEP    O723738   4.747   0.242   7.142
    6AHEP   HO723739   4.691   0.221   7.066
    7AGLC    C123740   4.289   0.302   8.174
    7AGLC    H123741   4.294   0.403   8.127
    7AGLC    C523742   4.146   0.117   8.212
    7AGLC    H523743   4.227   0.051   8.174
    7AGLC    O523744   4.159   0.247   8.153
    7AGLC    C223745   4.306   0.319   8.325
    7AGLC    H223746   4.224   0.385   8.359
    7AGLC    O223747   4.427   0.386   8.355
    7AGLC   HO223748   4.499   0.327   8.328
    7AGLC    C323749   4.294   0.187   8.399
    7AGLC    H323750   4.375   0.119   8.365
    7AGLC    O323751   4.303   0.208   8.543
    7AGLC    C423752   4.159   0.130   8.361
    7AGLC    H423753   4.082   0.204   8.393
    7AGLC    O423754   4.128   0.007   8.426
    7AGLC   HO423755   4.033   0.000   8.431
    7AGLC    C623756   4.016   0.057   8.162
    7AGLC   H6123757   4.008   0.072   8.052
    7AGLC   H6223758   4.022  -0.052   8.179
    7AGLC    O623759   3.899   0.110   8.226
    7AGLC   HO623760   3.849   0.156   8.158
    8AGLC    C123761   4.408   0.136   8.606
    8AGLC    H123762   4.415   0.034   8.564
    8AGLC    C523763   4.542   0.334   8.643
    8AGLC    H523764   4.462   0.395   8.595
    8AGLC    O523765   4.536   0.200   8.592
    8AGLC    C223766   4.383   0.128   8.757
    8AGLC    H223767   4.465   0.067   8.800
    8AGLC    O223768   4.259   0.068   8.794
    8AGLC    C323769   4.384   0.266   8.820
    8AGLC    H323770   4.305   0.325   8.769
    8AGLC    O323771   4.348   0.257   8.959
    8AGLC    C423772   4.517   0.332   8.793
    8AGLC    H423773   4.599   0.272   8.839
    8AGLC    O423774   4.520   0.464   8.849
    8AGLC   HO423775   4.444   0.513   8.818
    8AGLC    C623776   4.677   0.392   8.601
    8AGLC   H6123777   4.718   0.333   8.516
    8AGLC   H6223778   4.662   0.495   8.561
    8AGLC    O623779   4.773   0.397   8.707
    8AGLC   HO623780   4.741   0.459   8.773
    9AGAL    C123781   4.228  -0.059   8.745
    9AGAL    H123782   4.234  -0.061   8.634
    9AGAL    C523783   4.314  -0.167   8.939
    9AGAL    H523784   4.336  -0.065   8.979
    9AGAL    O523785   4.317  -0.160   8.796
    9AGAL    C223786   4.085  -0.087   8.786
    9AGAL    H223787   4.053  -0.184   8.742
    9AGAL    O223788   4.011   0.019   8.722
    9AGAL    C323789   4.077  -0.096   8.938
    9AGAL    H323790   4.111   0.001   8.980
    9AGAL    O323791   3.945  -0.118   8.988
    9AGAL   HO323792   3.916  -0.204   8.957
    9AGAL    C423793   4.174  -0.204   8.985
    9AGAL    H423794   4.172  -0.204   9.096
    9AGAL    O423795   4.136  -0.336   8.944
    9AGAL   HO423796   4.180  -0.358   8.862
    9AGAL    C623797   4.430  -0.253   8.988
    9AGAL   H6123798   4.525  -0.207   8.955
    9AGAL   H6223799   4.430  -0.255   9.099
    9AGAL    O623800   4.428  -0.388   8.940
    9AGAL   HO623801   4.430  -0.384   8.844
   10AGAL    C123802   3.883   0.064   8.759
   10AGAL    H123803   3.815  -0.022   8.776
   10AGAL    C523804   3.978   0.261   8.858
   10AGAL    H523805   4.078   0.220   8.832
   10AGAL    O523806   3.886   0.151   8.874
   10AGAL    C223807   3.834   0.148   8.641
   10AGAL    H223808   3.735   0.189   8.667
   10AGAL    O223809   3.817   0.065   8.525
   10AGAL   HO223810   3.736   0.087   8.478
   10AGAL    C323811   3.931   0.263   8.615
   10AGAL    H323812   4.033   0.221   8.602
   10AGAL    O323813   3.901   0.334   8.495
   10AGAL   HO323814   3.888   0.264   8.429
   10AGAL    C423815   3.937   0.351   8.740
   10AGAL    H423816   4.017   0.426   8.726
   10AGAL    O423817   3.816   0.423   8.766
   10AGAL   HO423818   3.751   0.365   8.806
   10AGAL    C623819   3.999   0.325   8.995
   10AGAL   H6123820   4.046   0.250   9.061
   10AGAL   H6223821   4.069   0.411   8.986
   10AGAL    O623822   3.878   0.369   9.056
   10AGAL   HO623823   3.814   0.298   9.047
   11BGLC    C123824   4.448   0.240   9.057
   11BGLC    H123825   4.502   0.336   9.075
   11BGLC    C523826   4.643   0.117   9.123
   11BGLC    H523827   4.690   0.214   9.148
   11BGLC    O523828   4.543   0.137   9.021
   11BGLC    C223829   4.375   0.198   9.184
   11BGLC    H223830   4.320   0.104   9.162
   11BGLC    O223831   4.279   0.298   9.222
   11BGLC   HO223832   4.235   0.324   9.141
   11BGLC    C323833   4.473   0.171   9.295
   11BGLC    H323834   4.526   0.265   9.322
   11BGLC    O323835   4.406   0.117   9.410
   11BGLC    C423836   4.571   0.067   9.248
   11BGLC    H423837   4.516  -0.026   9.221
   11BGLC    O423838   4.664   0.033   9.351
   11BGLC   HO423839   4.643   0.085   9.429
   11BGLC    C623840   4.751   0.026   9.068
   11BGLC   H6123841   4.812  -0.015   9.153
   11BGLC   H6223842   4.707  -0.060   9.014
   11BGLC    O623843   4.841   0.099   8.983
   11BGLC   HO623844   4.803   0.108   8.895
   12BGLCN   C123845   4.431   0.176   9.533
   12BGLCN   H123846   4.386   0.278   9.535
   12BGLCN   C523847   4.598   0.241   9.689
   12BGLCN   H523848   4.559   0.345   9.691
   12BGLCN   O523849   4.571   0.182   9.561
   12BGLCN   C223850   4.364   0.085   9.634
   12BGLCN   H223851   4.422  -0.009   9.632
   12BGLCN    N23852   4.227   0.055   9.594
   12BGLCN   HN23853   4.177   0.127   9.547
   12BGLCN    C23854   4.175  -0.068   9.597
   12BGLCN    O23855   4.229  -0.161   9.656
   12BGLCN   CT23856   4.044  -0.087   9.528
   12BGLCN  HT123857   3.964  -0.107   9.601
   12BGLCN  HT223858   4.052  -0.175   9.459
   12BGLCN  HT323859   4.019   0.003   9.467
   12BGLCN   C323860   4.380   0.145   9.773
   12BGLCN   H323861   4.331   0.245   9.773
   12BGLCN   O323862   4.319   0.061   9.873
   12BGLCN   C423863   4.529   0.158   9.799
   12BGLCN   H423864   4.573   0.056   9.796
   12BGLCN   O423865   4.557   0.213   9.926
   12BGLCN  HO423866   4.514   0.298   9.938
   12BGLCN   C623867   4.749   0.244   9.705
   12BGLCN  H6123868   4.776   0.284   9.806
   12BGLCN  H6223869   4.789   0.141   9.698
   12BGLCN   O623870   4.813   0.324   9.605
   12BGLCN  HO623871   4.812   0.416   9.632
   13AGAL    C123872   4.247   0.130   9.974
   13AGAL    H123873   4.293   0.229   9.995
   13AGAL    C523874   4.042   0.022   9.913
   13AGAL    H523875   4.099  -0.033   9.835
   13AGAL    O523876   4.109   0.148   9.936
   13AGAL    C223877   4.245   0.048  10.103
   13AGAL    H223878   4.178   0.103  10.172
   13AGAL    O223879   4.376   0.042  10.165
   13AGAL    C323880   4.184  -0.089  10.077
   13AGAL    H323881   4.240  -0.138   9.995
   13AGAL    O323882   4.191  -0.175  10.191
   13AGAL   HO323883   4.247  -0.249  10.169
   13AGAL    C423884   4.040  -0.068  10.035
   13AGAL    H423885   3.998  -0.167  10.005
   13AGAL    O423886   3.962  -0.019  10.144
   13AGAL   HO423887   4.002  -0.062  10.220
   13AGAL    C623888   3.903   0.048   9.855
   13AGAL   H6123889   3.912   0.103   9.759
   13AGAL   H6223890   3.853  -0.049   9.834
   13AGAL    O623891   3.822   0.124   9.944
   13AGAL   HO623892   3.854   0.104  10.032
   14ARHM    C123893   4.389   0.098  10.294
   14ARHM    H123894   4.314   0.178  10.311
   14ARHM    C523895   4.624   0.072  10.290
   14ARHM    H523896   4.622   0.034  10.186
   14ARHM    O523897   4.516   0.163  10.311
   14ARHM    C223898   4.373  -0.011  10.398
   14ARHM    H223899   4.274  -0.059  10.384
   14ARHM    O223900   4.380   0.031  10.535
   14ARHM    C323901   4.481  -0.114  10.375
   14ARHM    H323902   4.471  -0.153  10.273
   14ARHM    O323903   4.467  -0.224  10.464
   14ARHM   HO323904   4.427  -0.195  10.546
   14ARHM    C423905   4.616  -0.045  10.388
   14ARHM    H423906   4.626  -0.003  10.491
   14ARHM    O423907   4.724  -0.137  10.367
   14ARHM   HO423908   4.693  -0.204  10.306
   14ARHM    C623909   4.750   0.159  10.308
   14ARHM   H6123910   4.748   0.243  10.235
   14ARHM   H6223911   4.751   0.202  10.411
   14ARHM   H6323912   4.842   0.100  10.293
   15ARHM    C123913   4.285   0.128  10.572
   15ARHM    H123914   4.198   0.125  10.503
   15ARHM    C523915   4.455   0.271  10.661
   15ARHM    H523916   4.533   0.197  10.634
   15ARHM    O523917   4.343   0.260  10.571
   15ARHM    C223918   4.236   0.099  10.712
   15ARHM    H223919   4.189  -0.002  10.714
   15ARHM    O223920   4.136   0.199  10.737
   15ARHM    C323921   4.352   0.104  10.809
   15ARHM    H323922   4.430   0.035  10.771
   15ARHM    O323923   4.310   0.058  10.939
   15ARHM    C423924   4.409   0.244  10.806
   15ARHM    H423925   4.329   0.318  10.829
   15ARHM    O423926   4.513   0.264  10.901
   15ARHM   HO423927   4.525   0.359  10.911
   15ARHM    C623928   4.514   0.412  10.638
   15ARHM   H6123929   4.605   0.427  10.700
   15ARHM   H6223930   4.542   0.423  10.531
   15ARHM   H6323931   4.439   0.490  10.662
   16BMANN   C123932   4.075   0.208  10.863
   16BMANN   H123933   4.146   0.245  10.939
   16BMANN   C523934   3.940   0.099  11.026
   16BMANN   H523935   4.007   0.137  11.106
   16BMANN   O523936   4.014   0.085  10.904
   16BMANN   C223937   3.966   0.309  10.835
   16BMANN   H223938   4.017   0.404  10.811
   16BMANN    N23939   3.886   0.267  10.719
   16BMANN   HN23940   3.880   0.169  10.704
   16BMANN    C23941   3.835   0.351  10.629
   16BMANN    O23942   3.844   0.473  10.642
   16BMANN   CT23943   3.768   0.288  10.511
   16BMANN  HT123944   3.706   0.364  10.458
   16BMANN  HT223945   3.703   0.204  10.544
   16BMANN  HT323946   3.844   0.249  10.440
   16BMANN   C323947   3.885   0.331  10.960
   16BMANN   H323948   3.952   0.368  11.040
   16BMANN   O323949   3.787   0.431  10.937
   16BMANN  HO323950   3.787   0.454  10.844
   16BMANN   C423951   3.825   0.198  11.006
   16BMANN   H423952   3.758   0.159  10.927
   16BMANN   O423953   3.749   0.211  11.127
   16BMANN  HO423954   3.661   0.242  11.102
   16BMANN   C623955   3.898  -0.041  11.064
   16BMANN  H6123956   3.844  -0.042  11.161
   16BMANN  H6223957   3.829  -0.082  10.986
   16BMANN   O623958   4.013  -0.126  11.074
   16BMANN  HO623959   4.073  -0.096  11.005
   17BGLCN   C123960   4.408  -0.016  11.006
   17BGLCN   H123961   4.510   0.016  10.975
   17BGLCN   C523962   4.492  -0.233  11.057
   17BGLCN   H523963   4.593  -0.206  11.019
   17BGLCN   O523964   4.392  -0.158  10.988
   17BGLCN   C223965   4.389   0.014  11.154
   17BGLCN   H223966   4.292  -0.032  11.183
   17BGLCN    N23967   4.377   0.157  11.175
   17BGLCN   HN23968   4.422   0.214  11.106
   17BGLCN    C23969   4.303   0.213  11.269
   17BGLCN    O23970   4.239   0.148  11.352
   17BGLCN   CT23971   4.303   0.364  11.273
   17BGLCN  HT123972   4.255   0.402  11.180
   17BGLCN  HT223973   4.407   0.402  11.280
   17BGLCN  HT323974   4.245   0.398  11.361
   17BGLCN   C323975   4.499  -0.056  11.232
   17BGLCN   H323976   4.597  -0.020  11.191
   17BGLCN   O323977   4.490  -0.022  11.373
   17BGLCN   C423978   4.486  -0.204  11.207
   17BGLCN   H423979   4.390  -0.240  11.248
   17BGLCN   O423980   4.593  -0.276  11.267
   17BGLCN  HO423981   4.559  -0.321  11.345
   17BGLCN   C623982   4.466  -0.381  11.029
   17BGLCN  H6123983   4.521  -0.444  11.102
   17BGLCN  H6223984   4.358  -0.403  11.041
   17BGLCN   O623985   4.508  -0.419  10.898
   17BGLCN  HO623986   4.434  -0.448  10.844
   18AGAL    C123987   4.612  -0.020  11.446
   18AGAL    H123988   4.654  -0.122  11.450
   18AGAL    C523989   4.669   0.204  11.380
   18AGAL    H523990   4.572   0.211  11.326
   18AGAL    O523991   4.709   0.065  11.383
   18AGAL    C223992   4.591   0.028  11.589
   18AGAL    H223993   4.694   0.030  11.631
   18AGAL    O223994   4.514  -0.063  11.670
   18AGAL    C323995   4.539   0.172  11.585
   18AGAL    H323996   4.448   0.172  11.522
   18AGAL    O323997   4.498   0.224  11.713
   18AGAL   HO323998   4.422   0.280  11.699
   18AGAL    C423999   4.645   0.260  11.519
   18AGAL    H424000   4.604   0.363  11.509
   18AGAL    O424001   4.765   0.268  11.595
   18AGAL   HO424002   4.752   0.321  11.675
   18AGAL    C624003   4.768   0.283  11.294
   18AGAL   H6124004   4.741   0.271  11.187
   18AGAL   H6224005   4.764   0.391  11.319
   18AGAL    O624006   4.902   0.235  11.309
   18AGAL   HO624007   4.894   0.139  11.318
   19ARHM    C124008   4.547  -0.059  11.808
   19ARHM    H124009   4.609   0.031  11.829
   19ARHM    C524010   4.550  -0.295  11.846
   19ARHM    H524011   4.509  -0.304  11.743
   19ARHM    O524012   4.625  -0.172  11.852
   19ARHM    C224013   4.421  -0.047  11.892
   19ARHM    H224014   4.357   0.030  11.845
   19ARHM    O224015   4.449  -0.012  12.029
   19ARHM    C324016   4.341  -0.175  11.890
   19ARHM    H324017   4.313  -0.198  11.784
   19ARHM    O324018   4.219  -0.160  11.964
   19ARHM   HO324019   4.153  -0.133  11.899
   19ARHM    C424020   4.431  -0.287  11.941
   19ARHM    H424021   4.469  -0.257  12.041
   19ARHM    O424022   4.368  -0.414  11.961
   19ARHM   HO424023   4.355  -0.459  11.877
   19ARHM    C624024   4.641  -0.416  11.866
   19ARHM   H6124025   4.732  -0.408  11.802
   19ARHM   H6224026   4.671  -0.429  11.972
   19ARHM   H6324027   4.588  -0.509  11.835
   20ARHM    C124028   4.456   0.125  12.054
   20ARHM    H124029   4.406   0.184  11.974
   20ARHM    C524030   4.661   0.105  12.172
   20ARHM    H524031   4.662  -0.004  12.154
   20ARHM    O524032   4.591   0.172  12.068
   20ARHM    C224033   4.381   0.148  12.184
   20ARHM    H224034   4.281   0.100  12.175
   20ARHM    O224035   4.360   0.287  12.211
   20ARHM    C324036   4.451   0.081  12.300
   20ARHM    H324037   4.450  -0.029  12.284
   20ARHM    O324038   4.379   0.116  12.418
   20ARHM    C424039   4.593   0.132  12.307
   20ARHM    H424040   4.591   0.241  12.325
   20ARHM    O424041   4.667   0.070  12.412
   20ARHM   HO424042   4.750   0.117  12.420
   20ARHM    C624043   4.806   0.156  12.166
   20ARHM   H6124044   4.811   0.265  12.187
   20ARHM   H6224045   4.870   0.102  12.239
   20ARHM   H6324046   4.849   0.138  12.065
   21BMANN   C124047   4.263   0.350  12.131
   21BMANN   H124048   4.205   0.277  12.071
   21BMANN   C524049   4.235   0.515  11.960
   21BMANN   H524050   4.176   0.442  11.901
   21BMANN   O524051   4.328   0.444  12.044
   21BMANN   C224052   4.172   0.424  12.227
   21BMANN   H224053   4.117   0.346  12.283
   21BMANN    N24054   4.247   0.502  12.324
   21BMANN   HN24055   4.342   0.520  12.298
   21BMANN    C24056   4.202   0.536  12.444
   21BMANN    O24057   4.086   0.517  12.479
   21BMANN   CT24058   4.302   0.600  12.537
   21BMANN  HT124059   4.284   0.710  12.543
   21BMANN  HT224060   4.406   0.582  12.502
   21BMANN  HT324061   4.291   0.557  12.640
   21BMANN   C324062   4.070   0.501  12.144
   21BMANN   H324063   4.012   0.429  12.082
   21BMANN   O324064   3.975   0.567  12.228
   21BMANN  HO324065   4.015   0.576  12.315
   21BMANN   C424066   4.140   0.596  12.048
   21BMANN   H424067   4.201   0.668  12.107
   21BMANN   O424068   4.049   0.670  11.968
   21BMANN  HO424069   4.020   0.746  12.019
   21BMANN   C624070   4.313   0.601  11.863
   21BMANN  H6124071   4.247   0.636  11.781
   21BMANN  H6224072   4.351   0.691  11.918
   21BMANN   O624073   4.425   0.530  11.807
   21BMANN  HO624074   4.467   0.482  11.880
   22BGLCN   C124075   4.360   0.017  12.516
   22BGLCN   H124076   4.439  -0.060  12.512
   22BGLCN   C524077   4.198  -0.131  12.609
   22BGLCN   H524078   4.274  -0.213  12.610
   22BGLCN   O524079   4.229  -0.040  12.503
   22BGLCN   C224080   4.367   0.097  12.644
   22BGLCN   H224081   4.286   0.173  12.641
   22BGLCN    N24082   4.494   0.168  12.654
   22BGLCN   HN24083   4.570   0.128  12.602
   22BGLCN    C24084   4.513   0.286  12.714
   22BGLCN    O24085   4.423   0.349  12.767
   22BGLCN   CT24086   4.653   0.340  12.710
   22BGLCN  HT124087   4.668   0.399  12.616
   22BGLCN  HT224088   4.727   0.257  12.713
   22BGLCN  HT324089   4.669   0.406  12.797
   22BGLCN   C324090   4.340   0.005  12.762
   22BGLCN   H324091   4.417  -0.076  12.762
   22BGLCN   O324092   4.354   0.082  12.883
   22BGLCN   C424093   4.203  -0.058  12.742
   22BGLCN   H424094   4.128   0.024  12.741
   22BGLCN   O424095   4.168  -0.149  12.846
   22BGLCN  HO424096   4.080  -0.128  12.877
   22BGLCN   C624097   4.062  -0.191  12.582
   22BGLCN  H6124098   4.029  -0.255  12.668
   22BGLCN  H6224099   3.986  -0.110  12.574
   22BGLCN   O624100   4.061  -0.272  12.465
   22BGLCN  HO624101   4.097  -0.222  12.392
   23AGAL    C124102   4.370   0.013  13.003
   23AGAL    H124103   4.278  -0.043  13.029
   23AGAL    C524104   4.608  -0.012  12.981
   23AGAL    H524105   4.605   0.046  12.887
   23AGAL    O524106   4.481  -0.078  12.999
   23AGAL    C224107   4.391   0.113  13.116
   23AGAL    H224108   4.397   0.054  13.210
   23AGAL    O224109   4.281   0.205  13.123
   23AGAL    C324110   4.521   0.187  13.100
   23AGAL    H324111   4.517   0.244  13.005
   23AGAL    O324112   4.541   0.281  13.206
   23AGAL   HO324113   4.584   0.234  13.277
   23AGAL    C424114   4.634   0.087  13.095
   23AGAL    H424115   4.729   0.141  13.074
   23AGAL    O424116   4.651   0.018  13.218
   23AGAL   HO424117   4.682  -0.070  13.196
   23AGAL    C624118   4.716  -0.117  12.968
   23AGAL   H6124119   4.703  -0.169  12.870
   23AGAL   H6224120   4.817  -0.070  12.967
   23AGAL    O624121   4.709  -0.217  13.071
   23AGAL   HO624122   4.638  -0.275  13.044
   24ARHM    C124123   4.182   0.174  13.217
   24ARHM    H124124   4.168   0.064  13.220
   24ARHM    C524125   4.056   0.372  13.177
   24ARHM    H524126   4.130   0.406  13.102
   24ARHM    O524127   4.055   0.229  13.180
   24ARHM    C224128   4.227   0.223  13.352
   24ARHM    H224129   4.329   0.185  13.374
   24ARHM    O224130   4.138   0.181  13.457
   24ARHM    C324131   4.233   0.373  13.352
   24ARHM    H324132   4.305   0.407  13.274
   24ARHM    O324133   4.281   0.420  13.478
   24ARHM   HO324134   4.207   0.458  13.526
   24ARHM    C424135   4.095   0.426  13.315
   24ARHM    H424136   4.021   0.385  13.387
   24ARHM    O424137   4.085   0.568  13.324
   24ARHM   HO424138   4.107   0.610  13.239
   24ARHM    C624139   3.917   0.415  13.130
   24ARHM   H6124140   3.910   0.526  13.121
   24ARHM   H6224141   3.895   0.371  13.030
   24ARHM   H6324142   3.839   0.381  13.203
   25ARHM    C124143   4.160   0.053  13.509
   25ARHM    H124144   4.223  -0.006  13.439
   25ARHM    C524145   3.944   0.053  13.606
   25ARHM    H524146   3.927   0.155  13.564
   25ARHM    O524147   4.036  -0.018  13.523
   25ARHM    C224148   4.228   0.069  13.642
   25ARHM    H224149   4.312   0.140  13.630
   25ARHM    O224150   4.282  -0.055  13.694
   25ARHM    C324151   4.134   0.139  13.738
   25ARHM    H324152   4.115   0.242  13.700
   25ARHM    O324153   4.201   0.147  13.863
   25ARHM    C424154   4.002   0.064  13.746
   25ARHM    H424155   4.020  -0.039  13.784
   25ARHM    O424156   3.910   0.128  13.835
   25ARHM   HO424157   3.820   0.109  13.807
   25ARHM    C624158   3.809  -0.021  13.597
   25ARHM   H6124159   3.783  -0.041  13.491
   25ARHM   H6224160   3.814  -0.119  13.651
   25ARHM   H6324161   3.727   0.040  13.641
   26BMANN   C124162   4.403  -0.094  13.631
   26BMANN   H124163   4.453  -0.005  13.586
   26BMANN   C524164   4.499  -0.224  13.457
   26BMANN   H524165   4.538  -0.129  13.412
   26BMANN   O524166   4.379  -0.192  13.530
   26BMANN   C224167   4.500  -0.154  13.734
   26BMANN   H224168   4.518  -0.076  13.811
   26BMANN    N24169   4.446  -0.272  13.801
   26BMANN   HN24170   4.384  -0.329  13.748
   26BMANN    C24171   4.477  -0.311  13.926
   26BMANN    O24172   4.546  -0.246  14.005
   26BMANN   CT24173   4.422  -0.444  13.968
   26BMANN  HT124174   4.346  -0.479  13.897
   26BMANN  HT224175   4.375  -0.435  14.069
   26BMANN  HT324176   4.504  -0.518  13.974
   26BMANN   C324177   4.631  -0.182  13.661
   26BMANN   H324178   4.669  -0.088  13.616
   26BMANN   O324179   4.731  -0.228  13.752
   26BMANN  HO324180   4.773  -0.154  13.797
   26BMANN   C424181   4.605  -0.281  13.550
   26BMANN   H424182   4.565  -0.375  13.593
   26BMANN   O424183   4.722  -0.314  13.475
   26BMANN  HO424184   4.729  -0.410  13.470
   26BMANN   C624185   4.463  -0.314  13.339
   26BMANN  H6124186   4.370  -0.277  13.290
   26BMANN  H6224187   4.544  -0.309  13.262
   26BMANN   O624188   4.445  -0.452  13.374
   26BMANN  HO624189   4.531  -0.491  13.392
   27BGLCN   C124190   4.178   0.264  13.937
   27BGLCN   H124191   4.072   0.297  13.929
   27BGLCN   C524192   4.248   0.486  13.981
   27BGLCN   H524193   4.142   0.517  13.978
   27BGLCN   O524194   4.266   0.369  13.899
   27BGLCN   C224195   4.210   0.222  14.079
   27BGLCN   H224196   4.317   0.194  14.082
   27BGLCN    N24197   4.132   0.105  14.116
   27BGLCN   HN24198   4.049   0.089  14.062
   27BGLCN    C24199   4.172   0.013  14.206
   27BGLCN    O24200   4.279   0.021  14.265
   27BGLCN   CT24201   4.079  -0.102  14.229
   27BGLCN  HT124202   4.001  -0.106  14.151
   27BGLCN  HT224203   4.031  -0.093  14.329
   27BGLCN  HT324204   4.137  -0.197  14.225
   27BGLCN   C324205   4.191   0.340  14.173
   27BGLCN   H324206   4.086   0.374  14.163
   27BGLCN   O324207   4.213   0.295  14.309
   27BGLCN   C424208   4.283   0.452  14.127
   27BGLCN   H424209   4.388   0.415  14.128
   27BGLCN   O424210   4.276   0.568  14.208
   27BGLCN  HO424211   4.185   0.586  14.231
   27BGLCN   C624212   4.332   0.596  13.918
   27BGLCN  H6124213   4.363   0.670  13.996
   27BGLCN  H6224214   4.425   0.554  13.874
   27BGLCN   O624215   4.259   0.669  13.821
   27BGLCN  HO624216   4.228   0.611  13.750
   28AGAL    C124217   4.158   0.371  14.414
   28AGAL    H124218   4.216   0.465  14.427
   28AGAL    C524219   3.933   0.290  14.389
   28AGAL    H524220   3.968   0.224  14.307
   28AGAL    O524221   4.019   0.406  14.392
   28AGAL    C224222   4.167   0.296  14.547
   28AGAL    H224223   4.120   0.367  14.619
   28AGAL    O224224   4.302   0.270  14.591
   28AGAL    C324225   4.083   0.170  14.543
   28AGAL    H324226   4.119   0.109  14.457
   28AGAL    O324227   4.098   0.089  14.660
   28AGAL   HO324228   4.096  -0.004  14.638
   28AGAL    C424229   3.940   0.210  14.519
   28AGAL    H424230   3.879   0.118  14.506
   28AGAL    O424231   3.886   0.282  14.631
   28AGAL   HO424232   3.866   0.219  14.701
   28AGAL    C624233   3.792   0.333  14.349
   28AGAL   H6124234   3.797   0.396  14.258
   28AGAL   H6224235   3.731   0.243  14.326
   28AGAL    O624236   3.723   0.407  14.450
   28AGAL   HO624237   3.784   0.416  14.524
   29ARHM    C124238   4.316   0.292  14.730
   29ARHM    H124239   4.217   0.286  14.779
   29ARHM    C524240   4.505   0.432  14.695
   29ARHM    H524241   4.496   0.419  14.585
   29ARHM    O524242   4.376   0.421  14.756
   29ARHM    C224243   4.404   0.186  14.792
   29ARHM    H224244   4.358   0.087  14.773
   29ARHM    O224245   4.416   0.210  14.934
   29ARHM    C324246   4.540   0.189  14.727
   29ARHM    H324247   4.529   0.173  14.618
   29ARHM    O324248   4.622   0.083  14.779
   29ARHM   HO324249   4.714   0.108  14.769
   29ARHM    C424250   4.601   0.326  14.750
   29ARHM    H424251   4.613   0.343  14.859
   29ARHM    O424252   4.728   0.340  14.688
   29ARHM   HO424253   4.792   0.278  14.725
   29ARHM    C624254   4.551   0.577  14.722
   29ARHM   H6124255   4.477   0.648  14.679
   29ARHM   H6224256   4.561   0.595  14.831
   29ARHM   H6324257   4.649   0.595  14.674
   30ARHM    C124258   4.332   0.130  15.014
   30ARHM    H124259   4.348   0.023  14.989
   30ARHM    C524260   4.158   0.295  15.031
   30ARHM    H524261   4.216   0.369  14.971
   30ARHM    O524262   4.193   0.161  14.994
   30ARHM    C224263   4.365   0.152  15.161
   30ARHM    H224264   4.473   0.133  15.177
   30ARHM    O224265   4.286   0.065  15.240
   30ARHM    C324266   4.333   0.295  15.203
   30ARHM    H324267   4.393   0.360  15.136
   30ARHM    O324268   4.381   0.323  15.337
   30ARHM    C424269   4.186   0.322  15.177
   30ARHM    H424270   4.122   0.255  15.238
   30ARHM    O424271   4.152   0.457  15.208
   30ARHM   HO424272   4.215   0.516  15.166
   30ARHM    C624273   4.009   0.308  14.993
   30ARHM   H6124274   3.972   0.411  15.014
   30ARHM   H6224275   3.995   0.287  14.885
   30ARHM   H6324276   3.948   0.235  15.050
   31BMANN   C124277   4.338  -0.062  15.269
   31BMANN   H124278   4.447  -0.057  15.290
   31BMANN   C524279   4.347  -0.292  15.200
   31BMANN   H524280   4.457  -0.290  15.220
   31BMANN   O524281   4.306  -0.157  15.166
   31BMANN   C224282   4.258  -0.099  15.392
   31BMANN   H224283   4.286  -0.027  15.472
   31BMANN    N24284   4.115  -0.088  15.366
   31BMANN   HN24285   4.088  -0.106  15.272
   31BMANN    C24286   4.023  -0.045  15.453
   31BMANN    O24287   4.049  -0.014  15.569
   31BMANN   CT24288   3.882  -0.037  15.401
   31BMANN  HT124289   3.861  -0.122  15.333
   31BMANN  HT224290   3.869   0.058  15.345
   31BMANN  HT324291   3.810  -0.039  15.485
   31BMANN   C324292   4.304  -0.236  15.436
   31BMANN   H324293   4.415  -0.231  15.449
   31BMANN   O324294   4.254  -0.270  15.565
   31BMANN  HO324295   4.159  -0.284  15.560
   31BMANN   C424296   4.274  -0.336  15.327
   31BMANN   H424297   4.166  -0.334  15.304
   31BMANN   O424298   4.307  -0.470  15.362
   31BMANN  HO424299   4.390  -0.472  15.409
   31BMANN   C624300   4.327  -0.388  15.085
   31BMANN  H6124301   4.386  -0.480  15.101
   31BMANN  H6224302   4.220  -0.418  15.079
   31BMANN   O624303   4.363  -0.331  14.958
   31BMANN  HO624304   4.451  -0.293  14.962
   32BGLCN   C124305   4.296   0.289  15.445
   32BGLCN   H124306   4.240   0.196  15.423
   32BGLCN   C524307   4.109   0.358  15.576
   32BGLCN   H524308   4.055   0.266  15.546
   32BGLCN   O524309   4.203   0.394  15.474
   32BGLCN   C224310   4.379   0.268  15.571
   32BGLCN   H224311   4.418   0.368  15.602
   32BGLCN    N24312   4.491   0.178  15.552
   32BGLCN   HN24313   4.472   0.081  15.553
   32BGLCN    C24314   4.619   0.219  15.544
   32BGLCN    O24315   4.652   0.338  15.543
   32BGLCN   CT24316   4.723   0.111  15.533
   32BGLCN  HT124317   4.692   0.035  15.458
   32BGLCN  HT224318   4.738   0.063  15.632
   32BGLCN  HT324319   4.820   0.156  15.501
   32BGLCN   C324320   4.284   0.222  15.681
   32BGLCN   H324321   4.232   0.132  15.641
   32BGLCN   O324322   4.350   0.186  15.803
   32BGLCN   C424323   4.183   0.330  15.706
   32BGLCN   H424324   4.235   0.423  15.738
   32BGLCN   O424325   4.091   0.292  15.808
   32BGLCN  HO424326   4.139   0.295  15.892
   32BGLCN   C624327   4.008   0.471  15.587
   32BGLCN  H6124328   3.942   0.454  15.675
   32BGLCN  H6224329   4.060   0.568  15.601
   32BGLCN   O624330   3.925   0.478  15.470
   32BGLCN  HO624331   3.982   0.492  15.394
   33AGAL    C124332   4.300   0.065  15.857
   33AGAL    H124333   4.190   0.057  15.841
   33AGAL    C524334   4.504  -0.053  15.815
   33AGAL    H524335   4.551   0.040  15.777
   33AGAL    O524336   4.362  -0.047  15.792
   33AGAL    C224337   4.326   0.057  16.006
   33AGAL    H224338   4.285  -0.040  16.039
   33AGAL    O224339   4.254   0.162  16.075
   33AGAL    C324340   4.476   0.057  16.033
   33AGAL    H324341   4.518   0.151  15.990
   33AGAL    O324342   4.507   0.057  16.173
   33AGAL   HO324343   4.471  -0.024  16.208
   33AGAL    C424344   4.537  -0.062  15.963
   33AGAL    H424345   4.647  -0.059  15.974
   33AGAL    O424346   4.492  -0.185  16.018
   33AGAL   HO424347   4.481  -0.247  15.946
   33AGAL    C624348   4.558  -0.170  15.732
   33AGAL   H6124349   4.554  -0.144  15.625
   33AGAL   H6224350   4.665  -0.186  15.758
   33AGAL    O624351   4.486  -0.292  15.752
   33AGAL   HO624352   4.399  -0.283  15.712
   34ARHM    C124353   4.201   0.124  16.201
   34ARHM    H124354   4.283   0.081  16.263
   34ARHM    C524355   3.988   0.075  16.109
   34ARHM    H524356   4.024   0.094  16.006
   34ARHM    O524357   4.096   0.027  16.190
   34ARHM    C224358   4.147   0.248  16.269
   34ARHM    H224359   4.229   0.323  16.274
   34ARHM    O224360   4.102   0.223  16.405
   34ARHM    C324361   4.036   0.306  16.183
   34ARHM    H324362   4.077   0.331  16.083
   34ARHM    O324363   3.986   0.427  16.239
   34ARHM   HO324364   3.909   0.455  16.189
   34ARHM    C424365   3.927   0.202  16.168
   34ARHM    H424366   3.882   0.178  16.266
   34ARHM    O424367   3.826   0.248  16.078
   34ARHM   HO424368   3.761   0.302  16.124
   34ARHM    C624369   3.888  -0.042  16.105
   34ARHM   H6124370   3.848  -0.063  16.207
   34ARHM   H6224371   3.802  -0.017  16.039
   34ARHM   H6324372   3.937  -0.134  16.067
   35ARHM    C124373   4.195   0.161  16.491
   35ARHM    H124374   4.298   0.195  16.467
   35ARHM    C524375   4.058  -0.035  16.509
   35ARHM    H524376   3.983   0.012  16.442
   35ARHM    O524377   4.189   0.017  16.480
   35ARHM    C224378   4.162   0.200  16.634
   35ARHM    H224379   4.158   0.311  16.639
   35ARHM    O224380   4.258   0.153  16.731
   35ARHM    C324381   4.025   0.148  16.671
   35ARHM    H324382   3.950   0.193  16.603
   35ARHM    O324383   3.987   0.184  16.804
   35ARHM   HO324384   4.055   0.238  16.845
   35ARHM    C424385   4.022  -0.002  16.654
   35ARHM    H424386   4.099  -0.048  16.720
   35ARHM    O424387   3.895  -0.054  16.692
   35ARHM   HO424388   3.867   0.006  16.761
   35ARHM    C624389   4.061  -0.186  16.478
   35ARHM   H6124390   4.086  -0.202  16.371
   35ARHM   H6224391   4.135  -0.239  16.541
   35ARHM   H6324392   3.960  -0.229  16.496
   36BMANN   C124393   4.387   0.210  16.726
   36BMANN   H124394   4.383   0.312  16.683
   36BMANN   C524395   4.610   0.179  16.646
   36BMANN   H524396   4.604   0.280  16.602
   36BMANN   O524397   4.476   0.125  16.652
   36BMANN   C224398   4.437   0.216  16.869
   36BMANN   H224399   4.371   0.291  16.920
   36BMANN    N24400   4.426   0.089  16.940
   36BMANN   HN24401   4.470   0.010  16.898
   36BMANN    C24402   4.364   0.073  17.058
   36BMANN    O24403   4.307   0.164  17.118
   36BMANN   CT24404   4.364  -0.067  17.114
   36BMANN  HT124405   4.435  -0.132  17.059
   36BMANN  HT224406   4.262  -0.110  17.107
   36BMANN  HT324407   4.393  -0.064  17.221
   36BMANN   C324408   4.576   0.277  16.869
   36BMANN   H324409   4.571   0.378  16.823
   36BMANN   O324410   4.623   0.293  17.003
   36BMANN  HO324411   4.706   0.341  17.003
   36BMANN   C424412   4.670   0.191  16.786
   36BMANN   H424413   4.679   0.091  16.833
   36BMANN   O424414   4.800   0.249  16.776
   36BMANN  HO424415   4.835   0.264  16.864
   36BMANN   C624416   4.691   0.093  16.550
   36BMANN  H6124417   4.639   0.087  16.452
   36BMANN  H6224418   4.789   0.143  16.532
   36BMANN   O624419   4.715  -0.039  16.598
   36BMANN  HO624420   4.796  -0.073  16.559
    1ECLIP HB6S24421   7.443   2.437   6.681
    1ECLIP  OB624422   7.580   2.538   6.802
    1ECLIP  CB624423   7.469   2.541   6.709
    1ECLIP HB6R24424   7.379   2.588   6.755
    1ECLIP  CB524425   7.494   2.617   6.580
    1ECLIP  OB524426   7.619   2.574   6.526
    1ECLIP  HB524427   7.500   2.724   6.608
    1ECLIP  CB124428   7.656   2.653   6.413
    1ECLIP  HB124429   7.665   2.760   6.444
    1ECLIP  OA624430   7.780   2.612   6.362
    1ECLIP  CA624431   7.809   2.474   6.384
    1ECLIP HA6R24432   7.717   2.413   6.398
    1ECLIP HA6S24433   7.872   2.465   6.474
    1ECLIP  CB424434   7.386   2.596   6.473
    1ECLIP  HB424435   7.390   2.491   6.438
    1ECLIP  OB424436   7.258   2.626   6.531
    1ECLIP   PB24437   7.141   2.508   6.550
    1ECLIP OPB424438   7.055   2.549   6.669
    1ECLIP OPB324439   7.214   2.377   6.580
    1ECLIP OPB224440   7.061   2.505   6.421
    1ECLIP  CB324441   7.422   2.686   6.356
    1ECLIP  OB324442   7.324   2.681   6.252
    1ECLIP  HB324443   7.432   2.788   6.398
    1ECLIP  C7124444   7.309   2.793   6.182
    1ECLIP  O7124445   7.379   2.892   6.194
    1ECLIP  C7224446   7.241   2.764   6.050
    1ECLIP H72R24447   7.319   2.766   5.971
    1ECLIP H72S24448   7.169   2.847   6.032
    1ECLIP  CB224449   7.557   2.639   6.300
    1ECLIP  HB224450   7.546   2.531   6.278
    1ECLIP  NB224451   7.600   2.708   6.179
    1ECLIP HNB224452   7.612   2.806   6.188
    1ECLIP  CA424453   7.960   2.534   6.191
    1ECLIP  HA424454   7.893   2.618   6.164
    1ECLIP  OA424455   8.065   2.581   6.276
    1ECLIP HOA424456   8.053   2.675   6.289
    1ECLIP  CA524457   7.882   2.424   6.261
    1ECLIP  HA524458   7.951   2.343   6.292
    1ECLIP  OA524459   7.782   2.370   6.174
    1ECLIP  CA124460   7.835   2.317   6.054
    1ECLIP  HA124461   7.742   2.300   5.995
    1ECLIP  OA124462   7.908   2.197   6.079
    1ECLIP OPA224463   7.914   1.946   6.130
    1ECLIP OPA324464   7.696   2.059   6.057
    1ECLIP OPA424465   7.871   2.022   5.903
    1ECLIP   PA24466   7.845   2.053   6.049
    1ECLIP  CA324467   8.018   2.478   6.065
    1ECLIP  HA324468   8.078   2.391   6.101
    1ECLIP  OA324469   8.104   2.569   5.999
    1ECLIP  C3124470   8.060   2.682   5.946
    1ECLIP  O3124471   8.028   2.687   5.828
    1ECLIP  C3224472   8.144   2.793   6.009
    1ECLIP H32R24473   8.222   2.824   5.936
    1ECLIP H32S24474   8.196   2.755   6.101
    1ECLIP  CA224475   7.912   2.422   5.976
    1ECLIP  HA224476   7.842   2.505   5.951
    1ECLIP  NA224477   7.970   2.377   5.851
    1ECLIP HNA224478   8.066   2.403   5.839
    1ECLIP  C7324479   7.166   2.630   6.049
    1ECLIP H73R24480   7.101   2.624   6.137
    1ECLIP  O7324481   7.262   2.524   6.047
    1ECLIP  C8124482   7.214   2.407   6.090
    1ECLIP  O8124483   7.097   2.375   6.084
    1ECLIP  C8224484   7.323   2.304   6.056
    1ECLIP H82R24485   7.285   2.207   6.094
    1ECLIP H82S24486   7.415   2.331   6.113
    1ECLIP  C8324487   7.349   2.300   5.905
    1ECLIP H83R24488   7.423   2.379   5.879
    1ECLIP H83S24489   7.256   2.326   5.849
    1ECLIP  C8424490   7.392   2.162   5.852
    1ECLIP H84R24491   7.302   2.098   5.847
    1ECLIP H84S24492   7.458   2.114   5.927
    1ECLIP  C8524493   7.450   2.176   5.710
    1ECLIP H85R24494   7.529   2.254   5.707
    1ECLIP H85S24495   7.368   2.219   5.649
    1ECLIP  C8624496   7.493   2.046   5.641
    1ECLIP H86R24497   7.401   1.991   5.615
    1ECLIP H86S24498   7.552   1.978   5.707
    1ECLIP  C8724499   7.570   2.072   5.510
    1ECLIP H87R24500   7.579   1.977   5.454
    1ECLIP H87S24501   7.673   2.109   5.530
    1ECLIP  C8824502   7.500   2.176   5.420
    1ECLIP H88R24503   7.500   2.275   5.471
    1ECLIP H88S24504   7.394   2.147   5.405
    1ECLIP  C8924505   7.567   2.196   5.285
    1ECLIP H89R24506   7.677   2.205   5.296
    1ECLIP H89S24507   7.531   2.293   5.243
    1ECLIP C81024508   7.536   2.087   5.181
    1ECLIPH810R24509   7.437   2.041   5.203
    1ECLIPH810S24510   7.611   2.006   5.190
    1ECLIP C81124511   7.535   2.140   5.036
    1ECLIPH811R24512   7.539   2.054   4.966
    1ECLIPH811S24513   7.628   2.200   5.021
    1ECLIP C81224514   7.414   2.228   4.999
    1ECLIPH812R24515   7.427   2.260   4.893
    1ECLIPH812S24516   7.413   2.320   5.061
    1ECLIP C81324517   7.280   2.156   5.013
    1ECLIPH813R24518   7.288   2.055   4.966
    1ECLIPH813S24519   7.258   2.141   5.122
    1ECLIP C81424520   7.163   2.232   4.950
    1ECLIPH814R24521   7.185   2.254   4.842
    1ECLIPH814S24522   7.147   2.329   5.002
    1ECLIPH814T24523   7.070   2.173   4.954
    1ECLIP  C7424524   7.078   2.623   5.921
    1ECLIP H74R24525   7.006   2.707   5.926
    1ECLIP H74S24526   7.019   2.528   5.927
    1ECLIP  C7524527   7.146   2.625   5.785
    1ECLIP H75R24528   7.082   2.565   5.716
    1ECLIP H75S24529   7.245   2.573   5.788
    1ECLIP  C7624530   7.159   2.765   5.722
    1ECLIP H76R24531   7.245   2.819   5.766
    1ECLIP H76S24532   7.067   2.824   5.743
    1ECLIP  C7724533   7.174   2.754   5.570
    1ECLIP H77R24534   7.084   2.704   5.530
    1ECLIP H77S24535   7.261   2.688   5.549
    1ECLIP  C7824536   7.192   2.888   5.499
    1ECLIP H78R24537   7.096   2.944   5.507
    1ECLIP H78S24538   7.269   2.949   5.551
    1ECLIP  C7924539   7.230   2.874   5.351
    1ECLIP H79R24540   7.339   2.853   5.344
    1ECLIP H79S24541   7.212   2.971   5.300
    1ECLIP C71024542   7.154   2.762   5.280
    1ECLIPH710R24543   7.175   2.665   5.328
    1ECLIPH710S24544   7.045   2.781   5.287
    1ECLIP C71124545   7.193   2.747   5.132
    1ECLIPH711R24546   7.172   2.843   5.079
    1ECLIPH711S24547   7.302   2.728   5.125
    1ECLIP C71224548   7.117   2.632   5.065
    1ECLIPH712R24549   7.009   2.657   5.062
    1ECLIPH712S24550   7.128   2.540   5.128
    1ECLIP C71324551   7.165   2.600   4.924
    1ECLIPH713R24552   7.267   2.555   4.931
    1ECLIPH713S24553   7.098   2.523   4.879
    1ECLIP C71424554   7.171   2.721   4.832
    1ECLIPH714R24555   7.071   2.769   4.823
    1ECLIPH714S24556   7.243   2.797   4.870
    1ECLIPH714T24557   7.204   2.690   4.730
    1ECLIP  C5124558   7.612   2.655   6.054
    1ECLIP  O5124559   7.594   2.536   6.028
    1ECLIP  C5224560   7.653   2.752   5.944
    1ECLIP H52R24561   7.581   2.837   5.941
    1ECLIP H52S24562   7.753   2.792   5.971
    1ECLIP  C5324563   7.660   2.684   5.806
    1ECLIP H53R24564   7.709   2.585   5.818
    1ECLIP  O5324565   7.737   2.771   5.722
    1ECLIP  C6124566   7.825   2.713   5.641
    1ECLIP  O6124567   7.830   2.593   5.618
    1ECLIP  C6224568   7.888   2.822   5.554
    1ECLIP H62R24569   7.941   2.893   5.622
    1ECLIP H62S24570   7.804   2.876   5.504
    1ECLIP  C6324571   7.986   2.767   5.448
    1ECLIP H63R24572   7.935   2.691   5.386
    1ECLIP H63S24573   8.072   2.718   5.500
    1ECLIP  C6424574   8.043   2.876   5.355
    1ECLIP H64R24575   8.112   2.826   5.285
    1ECLIP H64S24576   8.103   2.948   5.413
    1ECLIP  C6524577   7.933   2.950   5.278
    1ECLIP H65R24578   7.882   3.019   5.349
    1ECLIP H65S24579   7.858   2.877   5.243
    1ECLIP  C6624580   7.982   3.033   5.158
    1ECLIP H66R24581   8.047   3.115   5.194
    1ECLIP H66S24582   7.893   3.080   5.110
    1ECLIP  C6724583   8.058   2.953   5.050
    1ECLIP H67R24584   8.160   2.931   5.089
    1ECLIP H67S24585   8.070   3.019   4.962
    1ECLIP  C6824586   7.989   2.822   5.010
    1ECLIP H68R24587   7.879   2.833   5.020
    1ECLIP H68S24588   8.022   2.743   5.082
    1ECLIP  C6924589   8.020   2.778   4.866
    1ECLIP H69R24590   8.125   2.804   4.842
    1ECLIP H69S24591   7.956   2.836   4.796
    1ECLIP C61024592   8.000   2.627   4.845
    1ECLIPH610R24593   7.895   2.600   4.865
    1ECLIPH610S24594   8.064   2.575   4.920
    1ECLIP C61124595   8.042   2.579   4.707
    1ECLIPH611R24596   8.144   2.617   4.686
    1ECLIPH611S24597   8.046   2.468   4.707
    1ECLIP C61224598   7.950   2.624   4.592
    1ECLIPH612R24599   7.844   2.611   4.622
    1ECLIPH612S24600   7.966   2.731   4.568
    1ECLIPH612T24601   7.969   2.564   4.500
    1ECLIP  C5424602   7.520   2.662   5.745
    1ECLIP H54R24603   7.473   2.760   5.724
    1ECLIP H54S24604   7.458   2.611   5.822
    1ECLIP  C5524605   7.515   2.574   5.617
    1ECLIP H55R24606   7.416   2.524   5.611
    1ECLIP H55S24607   7.593   2.495   5.624
    1ECLIP  C5624608   7.535   2.655   5.488
    1ECLIP H56R24609   7.624   2.722   5.497
    1ECLIP H56S24610   7.449   2.724   5.473
    1ECLIP  C5724611   7.555   2.569   5.363
    1ECLIP H57R24612   7.460   2.515   5.342
    1ECLIP H57S24613   7.635   2.494   5.380
    1ECLIP  C5824614   7.592   2.658   5.245
    1ECLIP H58R24615   7.526   2.748   5.247
    1ECLIP H58S24616   7.697   2.694   5.256
    1ECLIP  C5924617   7.575   2.590   5.109
    1ECLIP H59R24618   7.474   2.543   5.105
    1ECLIP H59S24619   7.650   2.509   5.096
    1ECLIP C51024620   7.585   2.692   4.997
    1ECLIPH510R24621   7.686   2.740   4.998
    1ECLIPH510S24622   7.510   2.772   5.013
    1ECLIP C51124623   7.561   2.631   4.858
    1ECLIPH511R24624   7.647   2.566   4.832
    1ECLIPH511S24625   7.471   2.566   4.862
    1ECLIP C51224626   7.540   2.738   4.752
    1ECLIPH512R24627   7.508   2.689   4.656
    1ECLIPH512S24628   7.457   2.806   4.782
    1ECLIP C51324629   7.665   2.822   4.724
    1ECLIPH513R24630   7.754   2.760   4.749
    1ECLIPH513S24631   7.667   2.909   4.794
    1ECLIP C51424632   7.677   2.869   4.580
    1ECLIPH514R24633   7.588   2.929   4.549
    1ECLIPH514S24634   7.768   2.932   4.568
    1ECLIPH514T24635   7.688   2.783   4.511
    1ECLIP  C3324636   8.057   2.913   6.047
    1ECLIP H33R24637   8.122   2.989   6.097
    1ECLIP  O3324638   7.958   2.869   6.139
    1ECLIP HO3324639   7.925   2.939   6.196
    1ECLIP  C3424640   7.991   2.978   5.924
    1ECLIP H34R24641   7.937   2.899   5.868
    1ECLIP H34S24642   8.071   3.017   5.858
    1ECLIP  C3524643   7.887   3.089   5.948
    1ECLIP H35R24644   7.936   3.182   5.984
    1ECLIP H35S24645   7.814   3.055   6.025
    1ECLIP  C3624646   7.811   3.114   5.818
    1ECLIP H36R24647   7.788   3.015   5.773
    1ECLIP H36S24648   7.877   3.167   5.745
    1ECLIP  C3724649   7.677   3.188   5.832
    1ECLIP H37R24650   7.695   3.297   5.832
    1ECLIP H37S24651   7.630   3.161   5.929
    1ECLIP  C3824652   7.579   3.151   5.719
    1ECLIP H38R24653   7.545   3.046   5.734
    1ECLIP H38S24654   7.489   3.216   5.726
    1ECLIP  C3924655   7.638   3.161   5.577
    1ECLIP H39R24656   7.723   3.089   5.568
    1ECLIP H39S24657   7.680   3.263   5.562
    1ECLIP C31024658   7.537   3.130   5.466
    1ECLIPH310R24659   7.463   3.213   5.462
    1ECLIPH310S24660   7.482   3.037   5.491
    1ECLIP C31124661   7.604   3.113   5.329
    1ECLIPH311R24662   7.676   3.196   5.313
    1ECLIPH311S24663   7.662   3.018   5.330
    1ECLIP C31224664   7.505   3.109   5.212
    1ECLIPH312R24665   7.431   3.028   5.230
    1ECLIPH312S24666   7.450   3.206   5.209
    1ECLIP C31324667   7.573   3.085   5.077
    1ECLIPH313R24668   7.649   3.166   5.061
    1ECLIPH313S24669   7.628   2.989   5.082
    1ECLIP C31424670   7.475   3.084   4.960
    1ECLIPH314R24671   7.420   3.180   4.955
    1ECLIPH314S24672   7.528   3.069   4.863
    1ECLIPH314T24673   7.401   3.002   4.972
    1ECLIP  C1124674   7.912   2.308   5.752
    1ECLIP  O1124675   7.793   2.273   5.755
    1ECLIP  C1224676   8.003   2.261   5.641
    1ECLIP H12R24677   8.019   2.151   5.655
    1ECLIP H12S24678   8.102   2.309   5.653
    1ECLIP  C1324679   7.947   2.292   5.502
    1ECLIP H13R24680   7.842   2.329   5.504
    1ECLIP  O1324681   7.949   2.172   5.426
    1ECLIP HO1324682   7.943   2.189   5.332
    1ECLIP  C1424683   8.035   2.397   5.429
    1ECLIP H14R24684   8.140   2.378   5.458
    1ECLIP H14S24685   8.007   2.497   5.470
    1ECLIP  C1524686   8.034   2.402   5.275
    1ECLIP H15R24687   8.098   2.319   5.240
    1ECLIP H15S24688   8.085   2.495   5.243
    1ECLIP  C1624689   7.898   2.399   5.204
    1ECLIP H16R24690   7.869   2.504   5.181
    1ECLIP H16S24691   7.819   2.357   5.269
    1ECLIP  C1724692   7.906   2.319   5.073
    1ECLIP H17R24693   7.993   2.356   5.014
    1ECLIP H17S24694   7.815   2.337   5.013
    1ECLIP  C1824695   7.923   2.167   5.096
    1ECLIP H18R24696   8.003   2.148   5.170
    1ECLIP H18S24697   7.828   2.126   5.136
    1ECLIP  C1924698   7.963   2.090   4.970
    1ECLIP H19R24699   7.968   1.982   4.993
    1ECLIP H19S24700   8.064   2.123   4.939
    1ECLIP C11024701   7.868   2.112   4.853
    1ECLIPH110R24702   7.763   2.102   4.887
    1ECLIPH110S24703   7.880   2.216   4.814
    1ECLIP C11124704   7.890   2.013   4.740
    1ECLIPH111R24705   7.995   2.018   4.704
    1ECLIPH111S24706   7.870   1.910   4.774
    1ECLIP C11224707   7.797   2.048   4.623
    1ECLIPH112R24708   7.691   2.035   4.655
    1ECLIPH112S24709   7.810   2.155   4.598
    1ECLIP C11324710   7.823   1.966   4.498
    1ECLIPH113R24711   7.930   1.970   4.470
    1ECLIPH113S24712   7.799   1.859   4.519
    1ECLIP C11424713   7.737   2.017   4.384
    1ECLIPH114R24714   7.635   2.038   4.424
    1ECLIPH114S24715   7.775   2.113   4.344
    1ECLIPH114T24716   7.731   1.943   4.301
    2AKDO    C124717   7.575   2.772   6.878
    2AKDO   O1124718   7.513   2.851   6.954
    2AKDO   O1224719   7.676   2.800   6.807
    2AKDO    C224720   7.560   2.620   6.917
    2AKDO    C624721   7.418   2.456   7.017
    2AKDO    H624722   7.448   2.396   6.929
    2AKDO    O624723   7.432   2.594   6.979
    2AKDO    C324724   7.667   2.580   7.019
    2AKDO   H3124725   7.654   2.648   7.106
    2AKDO   H3224726   7.767   2.598   6.976
    2AKDO    C424727   7.656   2.437   7.065
    2AKDO    H424728   7.672   2.369   6.979
    2AKDO    O424729   7.745   2.407   7.171
    2AKDO    C524730   7.519   2.415   7.127
    2AKDO    H524731   7.510   2.305   7.139
    2AKDO    O524732   7.507   2.478   7.257
    2AKDO    C724733   7.271   2.421   7.033
    2AKDO    H724734   7.227   2.470   7.123
    2AKDO    O724735   7.259   2.278   7.038
    2AKDO   HO724736   7.255   2.257   6.945
    2AKDO    C824737   7.195   2.472   6.913
    2AKDO   H8124738   7.202   2.582   6.907
    2AKDO   H8224739   7.242   2.432   6.820
    2AKDO    O824740   7.056   2.437   6.910
    2AKDO   HO824741   7.035   2.473   6.823
    3AKDO    C124742   7.915   2.255   7.063
    3AKDO   O1124743   8.037   2.238   7.037
    3AKDO   O1224744   7.826   2.165   7.054
    3AKDO    C224745   7.882   2.375   7.160
    3AKDO    C624746   7.939   2.602   7.221
    3AKDO    H624747   7.832   2.631   7.212
    3AKDO    O624748   7.968   2.490   7.134
    3AKDO    C324749   7.901   2.332   7.306
    3AKDO   H3124750   8.004   2.294   7.320
    3AKDO   H3224751   7.834   2.246   7.326
    3AKDO    C424752   7.872   2.444   7.400
    3AKDO    H424753   7.767   2.478   7.389
    3AKDO    O424754   7.889   2.393   7.533
    3AKDO   HO424755   7.810   2.347   7.562
    3AKDO    C524756   7.960   2.564   7.368
    3AKDO    H524757   7.923   2.649   7.431
    3AKDO    O524758   8.097   2.547   7.403
    3AKDO   HO524759   8.132   2.466   7.366
    3AKDO    C724760   8.021   2.725   7.179
    3AKDO    H724761   8.127   2.709   7.205
    3AKDO    O724762   7.973   2.844   7.242
    3AKDO   HO724763   7.974   2.907   7.169
    3AKDO    C824764   8.013   2.750   7.028
    3AKDO   H8124765   8.035   2.657   6.971
    3AKDO   H8224766   7.911   2.783   6.999
    3AKDO    O824767   8.107   2.852   6.991
    3AKDO   HO824768   8.180   2.808   6.947
    4AHEP    C124769   7.412   2.422   7.346
    4AHEP    H124770   7.313   2.445   7.302
    4AHEP    C524771   7.536   2.238   7.436
    4AHEP    H524772   7.624   2.287   7.388
    4AHEP    O524773   7.420   2.279   7.359
    4AHEP    C224774   7.405   2.486   7.486
    4AHEP    H224775   7.415   2.596   7.471
    4AHEP    O224776   7.278   2.465   7.550
    4AHEP   HO224777   7.209   2.504   7.495
    4AHEP    C324778   7.522   2.443   7.573
    4AHEP    H324779   7.615   2.483   7.526
    4AHEP    O324780   7.508   2.494   7.707
    4AHEP    C424781   7.527   2.291   7.580
    4AHEP    H424782   7.431   2.257   7.624
    4AHEP    O424783   7.641   2.251   7.660
    4AHEP    P424784   7.624   2.136   7.780
    4AHEP  OP4224785   7.744   2.136   7.872
    4AHEP  OP4324786   7.613   2.003   7.708
    4AHEP  OP4424787   7.496   2.167   7.858
    4AHEP    C624788   7.560   2.088   7.421
    4AHEP    H624789   7.661   2.066   7.464
    4AHEP    O624790   7.463   2.013   7.495
    4AHEP   HO624791   7.507   2.004   7.580
    4AHEP    C724792   7.561   2.040   7.276
    4AHEP   H7124793   7.592   1.933   7.273
    4AHEP   H7224794   7.637   2.098   7.219
    4AHEP    O724795   7.434   2.054   7.212
    4AHEP   HO724796   7.403   2.138   7.245
    5AHEP    C124797   7.615   2.570   7.759
    5AHEP    H124798   7.709   2.549   7.701
    5AHEP    C524799   7.469   2.748   7.825
    5AHEP    H524800   7.384   2.689   7.783
    5AHEP    O524801   7.588   2.712   7.752
    5AHEP    C224802   7.639   2.532   7.903
    5AHEP    H224803   7.648   2.421   7.906
    5AHEP    O224804   7.762   2.585   7.953
    5AHEP   HO224805   7.831   2.524   7.925
    5AHEP    C324806   7.516   2.567   7.986
    5AHEP    H324807   7.431   2.508   7.947
    5AHEP    O324808   7.538   2.539   8.125
    5AHEP    C424809   7.484   2.715   7.973
    5AHEP    H424810   7.562   2.778   8.020
    5AHEP    O424811   7.354   2.745   8.026
    5AHEP    P424812   7.309   2.764   8.182
    5AHEP  OP4224813   7.194   2.664   8.200
    5AHEP  OP4324814   7.263   2.906   8.205
    5AHEP  OP4424815   7.425   2.729   8.274
    5AHEP    C624816   7.438   2.895   7.795
    5AHEP    H624817   7.342   2.922   7.842
    5AHEP    O624818   7.540   2.982   7.848
    5AHEP   HO624819   7.585   3.005   7.766
    5AHEP    C724820   7.429   2.917   7.643
    5AHEP   H7124821   7.335   2.973   7.623
    5AHEP   H7224822   7.420   2.821   7.589
    5AHEP    O724823   7.538   2.997   7.594
    6AHEP    C124824   7.632   2.924   7.516
    6AHEP    H124825   7.631   2.816   7.542
    6AHEP    C524826   7.603   3.078   7.334
    6AHEP    H524827   7.525   3.130   7.393
    6AHEP    O524828   7.609   2.940   7.377
    6AHEP    C224829   7.767   2.983   7.552
    6AHEP    H224830   7.775   2.979   7.663
    6AHEP    O224831   7.878   2.907   7.504
    6AHEP   HO224832   7.876   2.895   7.410
    6AHEP    C324833   7.769   3.130   7.513
    6AHEP    H324834   7.689   3.182   7.568
    6AHEP    O324835   7.893   3.194   7.549
    6AHEP   HO324836   7.929   3.230   7.467
    6AHEP    C424837   7.738   3.143   7.365
    6AHEP    H424838   7.816   3.091   7.306
    6AHEP    O424839   7.736   3.281   7.328
    6AHEP   HO424840   7.773   3.290   7.240
    6AHEP    C624841   7.560   3.095   7.188
    6AHEP    H624842   7.562   3.203   7.161
    6AHEP    O624843   7.654   3.029   7.101
    6AHEP   HO624844   7.606   2.959   7.057
    6AHEP    C724845   7.418   3.046   7.160
    6AHEP   H7124846   7.392   3.066   7.054
    6AHEP   H7224847   7.348   3.106   7.222
    6AHEP    O724848   7.396   2.908   7.188
    6AHEP   HO724849   7.428   2.863   7.109
    7AGLC    C124850   7.512   2.410   8.171
    7AGLC    H124851   7.424   2.366   8.120
    7AGLC    C524852   7.743   2.371   8.215
    7AGLC    H524853   7.765   2.475   8.183
    7AGLC    O524854   7.624   2.324   8.151
    7AGLC    C224855   7.487   2.415   8.321
    7AGLC    H224856   7.471   2.310   8.355
    7AGLC    O224857   7.367   2.484   8.353
    7AGLC   HO224858   7.380   2.574   8.322
    7AGLC    C324859   7.606   2.471   8.398
    7AGLC    H324860   7.630   2.569   8.352
    7AGLC    O324861   7.577   2.491   8.539
    7AGLC    C424862   7.721   2.374   8.367
    7AGLC    H424863   7.689   2.272   8.398
    7AGLC    O424864   7.842   2.402   8.438
    7AGLC   HO424865   7.865   2.324   8.487
    7AGLC    C624866   7.858   2.284   8.164
    7AGLC   H6124867   7.884   2.319   8.062
    7AGLC   H6224868   7.948   2.295   8.228
    7AGLC    O624869   7.825   2.146   8.151
    7AGLC   HO624870   7.793   2.135   8.061
    8AGLC    C124871   7.597   2.625   8.587
    8AGLC    H124872   7.687   2.669   8.538
    8AGLC    C524873   7.362   2.678   8.622
    8AGLC    H524874   7.336   2.577   8.585
    8AGLC    O524875   7.487   2.715   8.561
    8AGLC    C224876   7.611   2.627   8.737
    8AGLC    H224877   7.632   2.732   8.767
    8AGLC    O224878   7.718   2.546   8.785
    8AGLC    C324879   7.486   2.580   8.809
    8AGLC    H324880   7.461   2.480   8.767
    8AGLC    O324881   7.512   2.561   8.950
    8AGLC    C424882   7.375   2.675   8.773
    8AGLC    H424883   7.404   2.777   8.808
    8AGLC    O424884   7.251   2.640   8.837
    8AGLC   HO424885   7.201   2.583   8.778
    8AGLC    C624886   7.257   2.776   8.571
    8AGLC   H6124887   7.279   2.803   8.466
    8AGLC   H6224888   7.158   2.726   8.570
    8AGLC    O624889   7.248   2.895   8.650
    8AGLC   HO624890   7.188   2.878   8.723
    9AGAL    C124891   7.846   2.569   8.733
    9AGAL    H124892   7.849   2.559   8.622
    9AGAL    C524893   7.894   2.721   8.910
    9AGAL    H524894   7.789   2.711   8.946
    9AGAL    O524895   7.896   2.698   8.768
    9AGAL    C224896   7.928   2.458   8.795
    9AGAL    H224897   8.032   2.464   8.759
    9AGAL    O224898   7.864   2.341   8.740
    9AGAL    C324899   7.926   2.477   8.946
    9AGAL    H324900   7.821   2.468   8.983
    9AGAL    O324901   8.001   2.377   9.016
    9AGAL   HO324902   8.094   2.394   8.997
    9AGAL    C424903   7.978   2.616   8.981
    9AGAL    H424904   7.968   2.631   9.091
    9AGAL    O424905   8.115   2.632   8.948
    9AGAL   HO424906   8.124   2.722   8.917
    9AGAL    C624907   7.934   2.866   8.934
    9AGAL   H6124908   7.864   2.933   8.880
    9AGAL   H6224909   7.925   2.889   9.042
    9AGAL    O624910   8.068   2.897   8.893
    9AGAL   HO624911   8.071   2.914   8.799
   10AGAL    C124912   7.886   2.212   8.788
   10AGAL    H124913   7.994   2.195   8.804
   10AGAL    C524914   7.671   2.207   8.895
   10AGAL    H524915   7.655   2.308   8.851
   10AGAL    O524916   7.813   2.188   8.910
   10AGAL    C224917   7.834   2.113   8.683
   10AGAL    H224918   7.857   2.011   8.719
   10AGAL    O224919   7.902   2.132   8.558
   10AGAL   HO224920   7.936   2.047   8.530
   10AGAL    C324921   7.683   2.126   8.663
   10AGAL    H324922   7.660   2.228   8.624
   10AGAL    O324923   7.633   2.029   8.569
   10AGAL   HO324924   7.635   2.062   8.479
   10AGAL    C424925   7.613   2.106   8.796
   10AGAL    H424926   7.506   2.130   8.782
   10AGAL    O424927   7.623   1.970   8.839
   10AGAL   HO424928   7.624   1.922   8.756
   10AGAL    C624929   7.607   2.213   9.033
   10AGAL   H6124930   7.654   2.296   9.089
   10AGAL   H6224931   7.499   2.237   9.023
   10AGAL    O624932   7.621   2.093   9.110
   10AGAL   HO624933   7.713   2.066   9.105
   11BGLC    C124934   7.492   2.668   9.040
   11BGLC    H124935   7.384   2.686   9.054
   11BGLC    C524936   7.539   2.897   9.089
   11BGLC    H524937   7.430   2.914   9.102
   11BGLC    O524938   7.558   2.787   8.997
   11BGLC    C224939   7.554   2.624   9.172
   11BGLC    H224940   7.662   2.605   9.155
   11BGLC    O224941   7.495   2.502   9.219
   11BGLC   HO224942   7.508   2.437   9.150
   11BGLC    C324943   7.541   2.733   9.275
   11BGLC    H324944   7.434   2.749   9.301
   11BGLC    O324945   7.619   2.702   9.392
   11BGLC    C424946   7.602   2.859   9.221
   11BGLC    H424947   7.711   2.843   9.205
   11BGLC    O424948   7.587   2.965   9.315
   11BGLC   HO424949   7.600   2.929   9.403
   11BGLC    C624950   7.598   3.025   9.031
   11BGLC   H6124951   7.565   3.113   9.090
   11BGLC   H6224952   7.709   3.021   9.039
   11BGLC    O624953   7.566   3.046   8.893
   11BGLC   HO624954   7.473   3.062   8.880
   12BGLCN   C124955   7.552   2.675   9.512
   12BGLCN   H124956   7.503   2.576   9.506
   12BGLCN   C524957   7.392   2.756   9.668
   12BGLCN   H524958   7.344   2.655   9.669
   12BGLCN   O524959   7.457   2.777   9.542
   12BGLCN   C224960   7.662   2.677   9.617
   12BGLCN   H224961   7.703   2.780   9.617
   12BGLCN    N24962   7.770   2.587   9.577
   12BGLCN   HN24963   7.745   2.510   9.520
   12BGLCN    C24964   7.900   2.614   9.595
   12BGLCN    O24965   7.940   2.707   9.664
   12BGLCN   CT24966   7.998   2.521   9.528
   12BGLCN  HT124967   8.079   2.495   9.601
   12BGLCN  HT224968   8.044   2.572   9.441
   12BGLCN  HT324969   7.947   2.428   9.493
   12BGLCN   C324970   7.603   2.654   9.756
   12BGLCN   H324971   7.554   2.554   9.757
   12BGLCN   O324972   7.701   2.660   9.862
   12BGLCN   C424973   7.498   2.762   9.778
   12BGLCN   H424974   7.549   2.860   9.766
   12BGLCN   O424975   7.441   2.761   9.908
   12BGLCN  HO424976   7.474   2.839   9.953
   12BGLCN   C624977   7.281   2.860   9.681
   12BGLCN  H6124978   7.230   2.847   9.778
   12BGLCN  H6224979   7.326   2.961   9.676
   12BGLCN   O624980   7.184   2.847   9.575
   12BGLCN  HO624981   7.108   2.902   9.591
   13AGAL    C124982   7.682   2.566   9.967
   13AGAL    H124983   7.574   2.558   9.991
   13AGAL    C524984   7.871   2.437   9.899
   13AGAL    H524985   7.891   2.518   9.826
   13AGAL    O524986   7.729   2.436   9.927
   13AGAL    C224987   7.758   2.603  10.095
   13AGAL    H224988   7.743   2.517  10.164
   13AGAL    O224989   7.706   2.722  10.158
   13AGAL    C324990   7.907   2.610  10.066
   13AGAL    H324991   7.922   2.683   9.984
   13AGAL    O324992   7.984   2.655  10.177
   13AGAL   HO324993   8.045   2.723  10.149
   13AGAL    C424994   7.954   2.473  10.020
   13AGAL    H424995   8.060   2.482   9.990
   13AGAL    O424996   7.946   2.373  10.122
   13AGAL   HO424997   7.995   2.407  10.197
   13AGAL    C624998   7.916   2.308   9.833
   13AGAL   H6124999   7.888   2.313   9.726
   13AGAL   H6225000   8.027   2.302   9.837
   13AGAL    O625001   7.860   2.192   9.893
   13AGAL   HO625002   7.887   2.194   9.985
   14ARHM    C125003   7.650   2.708  10.288
   14ARHM    H125004   7.607   2.606  10.299
   14ARHM    C525005   7.578   2.934  10.304
   14ARHM    H525006   7.622   2.956  10.204
   14ARHM    O525007   7.539   2.796  10.308
   14ARHM    C225008   7.757   2.729  10.395
   14ARHM    H225009   7.842   2.662  10.372
   14ARHM    O225010   7.719   2.701  10.531
   14ARHM    C325011   7.803   2.872  10.391
   14ARHM    H325012   7.847   2.894  10.292
   14ARHM    O325013   7.905   2.893  10.490
   14ARHM   HO325014   7.886   2.832  10.561
   14ARHM    C425015   7.683   2.964  10.411
   14ARHM    H425016   7.638   2.942  10.510
   14ARHM    O425017   7.717   3.102  10.410
   14ARHM   HO425018   7.638   3.153  10.426
   14ARHM    C625019   7.449   3.015  10.320
   14ARHM   H6125020   7.376   2.985  10.241
   14ARHM   H6225021   7.403   2.996  10.419
   14ARHM   H6325022   7.468   3.124  10.309
   15ARHM    C125023   7.665   2.574  10.558
   15ARHM    H125024   7.704   2.499  10.486
   15ARHM    C525025   7.465   2.672  10.648
   15ARHM    H525026   7.504   2.774  10.627
   15ARHM    O525027   7.522   2.578  10.554
   15ARHM    C225028   7.707   2.534  10.700
   15ARHM    H225029   7.818   2.534  10.704
   15ARHM    O225030   7.659   2.401  10.720
   15ARHM    C325031   7.654   2.634  10.797
   15ARHM    H325032   7.688   2.735  10.766
   15ARHM    O325033   7.707   2.608  10.927
   15ARHM    C425034   7.502   2.632  10.789
   15ARHM    H425035   7.465   2.529  10.806
   15ARHM    O425036   7.442   2.715  10.890
   15ARHM   HO425037   7.347   2.707  10.884
   15ARHM    C625038   7.314   2.674  10.620
   15ARHM   H6125039   7.264   2.753  10.679
   15ARHM   H6225040   7.296   2.695  10.512
   15ARHM   H6325041   7.270   2.575  10.644
   16BMANN   C125042   7.670   2.341  10.847
   16BMANN   H125043   7.602   2.390  10.919
   16BMANN   C525044   7.814   2.274  11.024
   16BMANN   H525045   7.742   2.320  11.095
   16BMANN   O525046   7.805   2.341  10.898
   16BMANN   C225047   7.626   2.198  10.822
   16BMANN   H225048   7.519   2.204  10.792
   16BMANN    N25049   7.701   2.141  10.712
   16BMANN   HN25050   7.792   2.179  10.695
   16BMANN    C25051   7.651   2.052  10.625
   16BMANN    O25052   7.539   2.005  10.638
   16BMANN   CT25053   7.739   2.014  10.510
   16BMANN  HT125054   7.691   1.932  10.452
   16BMANN  HT225055   7.838   1.979  10.547
   16BMANN  HT325056   7.753   2.101  10.443
   16BMANN   C325057   7.634   2.120  10.953
   16BMANN   H325058   7.567   2.168  11.027
   16BMANN   O325059   7.587   1.986  10.936
   16BMANN  HO325060   7.495   1.988  10.909
   16BMANN   C425061   7.776   2.127  11.005
   16BMANN   H425062   7.842   2.084  10.927
   16BMANN   O425063   7.798   2.051  11.123
   16BMANN  HO425064   7.876   1.997  11.107
   16BMANN   C625065   7.952   2.294  11.083
   16BMANN  H6125066   7.955   2.253  11.186
   16BMANN  H6225067   8.028   2.240  11.023
   16BMANN   O625068   7.988   2.432  11.089
   16BMANN  HO625069   7.968   2.471  11.002
   17BGLCN   C125070   7.737   2.722  11.002
   17BGLCN   H125071   7.666   2.804  10.978
   17BGLCN   C525072   7.905   2.879  11.062
   17BGLCN   H525073   7.834   2.961  11.038
   17BGLCN   O525074   7.872   2.764  10.982
   17BGLCN   C225075   7.719   2.679  11.145
   17BGLCN   H225076   7.797   2.603  11.168
   17BGLCN    N25077   7.590   2.615  11.159
   17BGLCN   HN25078   7.522   2.642  11.092
   17BGLCN    C25079   7.560   2.517  11.245
   17BGLCN    O25080   7.640   2.470  11.325
   17BGLCN   CT25081   7.419   2.466  11.239
   17BGLCN  HT125082   7.420   2.355  11.238
   17BGLCN  HT225083   7.367   2.504  11.148
   17BGLCN  HT325084   7.364   2.499  11.331
   17BGLCN   C325085   7.745   2.801  11.234
   17BGLCN   H325086   7.679   2.882  11.196
   17BGLCN   O325087   7.710   2.776  11.371
   17BGLCN   C425088   7.889   2.844  11.210
   17BGLCN   H425089   7.956   2.759  11.235
   17BGLCN   O425090   7.927   2.955  11.290
   17BGLCN  HO425091   8.008   2.936  11.338
   17BGLCN   C625092   8.043   2.925  11.023
   17BGLCN  H6125093   8.073   3.013  11.083
   17BGLCN  H6225094   8.118   2.845  11.040
   17BGLCN   O625095   8.046   2.965  10.884
   17BGLCN  HO625096   8.044   2.886  10.830
   18AGAL    C125097   7.659   2.888  11.443
   18AGAL    H125098   7.736   2.967  11.450
   18AGAL    C525099   7.434   2.850  11.370
   18AGAL    H525100   7.476   2.760  11.321
   18AGAL    O525101   7.542   2.945  11.380
   18AGAL    C225102   7.617   2.848  11.583
   18AGAL    H225103   7.574   2.940  11.627
   18AGAL    O225104   7.729   2.809  11.665
   18AGAL    C325105   7.509   2.741  11.578
   18AGAL    H325106   7.548   2.656  11.519
   18AGAL    O325107   7.475   2.690  11.707
   18AGAL   HO325108   7.416   2.614  11.700
   18AGAL    C425109   7.388   2.801  11.509
   18AGAL    H425110   7.314   2.720  11.492
   18AGAL    O425111   7.327   2.903  11.586
   18AGAL   HO425112   7.291   2.863  11.666
   18AGAL    C625113   7.329   2.899  11.273
   18AGAL   H6125114   7.379   2.947  11.186
   18AGAL   H6225115   7.273   2.812  11.232
   18AGAL    O625116   7.234   2.990  11.328
   18AGAL   HO625117   7.281   3.068  11.357
   19ARHM    C125118   7.713   2.851  11.800
   19ARHM    H125119   7.606   2.868  11.825
   19ARHM    C525120   7.924   2.963  11.804
   19ARHM    H525121   7.942   2.933  11.699
   19ARHM    O525122   7.783   2.973  11.826
   19ARHM    C225123   7.766   2.741  11.888
   19ARHM    H225124   7.723   2.646  11.852
   19ARHM    O225125   7.729   2.759  12.026
   19ARHM    C325126   7.915   2.726  11.870
   19ARHM    H325127   7.933   2.699  11.763
   19ARHM    O325128   7.966   2.620  11.950
   19ARHM   HO325129   7.971   2.650  12.040
   19ARHM    C425130   7.984   2.858  11.897
   19ARHM    H425131   7.966   2.889  12.002
   19ARHM    O425132   8.124   2.848  11.873
   19ARHM   HO425133   8.159   2.774  11.925
   19ARHM    C625134   7.981   3.104  11.821
   19ARHM   H6125135   7.940   3.172  11.743
   19ARHM   H6225136   7.952   3.145  11.922
   19ARHM   H6325137   8.092   3.103  11.812
   20ARHM    C125138   7.596   2.722  12.054
   20ARHM    H125139   7.557   2.656  11.972
   20ARHM    C525140   7.539   2.923  12.168
   20ARHM    H525141   7.643   2.959  12.155
   20ARHM    O525142   7.505   2.833  12.062
   20ARHM    C225143   7.594   2.644  12.183
   20ARHM    H225144   7.675   2.568  12.179
   20ARHM    O225145   7.469   2.577  12.203
   20ARHM    C325146   7.627   2.734  12.300
   20ARHM    H325147   7.730   2.772  12.287
   20ARHM    O325148   7.615   2.657  12.418
   20ARHM    C425149   7.529   2.849  12.301
   20ARHM    H425150   7.426   2.808  12.311
   20ARHM    O425151   7.551   2.937  12.412
   20ARHM   HO425152   7.481   3.003  12.412
   20ARHM    C625153   7.445   3.044  12.158
   20ARHM   H6125154   7.340   3.014  12.176
   20ARHM   H6225155   7.475   3.124  12.228
   20ARHM   H6325156   7.452   3.086  12.054
   21BMANN   C125157   7.451   2.463  12.123
   21BMANN   H125158   7.542   2.438  12.065
   21BMANN   C525159   7.318   2.371  11.949
   21BMANN   H525160   7.411   2.347  11.894
   21BMANN   O525161   7.342   2.485  12.033
   21BMANN   C225162   7.417   2.348  12.217
   21BMANN   H225163   7.509   2.331  12.276
   21BMANN    N25164   7.311   2.383  12.311
   21BMANN   HN25165   7.250   2.457  12.283
   21BMANN    C25166   7.296   2.327  12.432
   21BMANN    O25167   7.364   2.232  12.468
   21BMANN   CT25168   7.190   2.385  12.520
   21BMANN  HT125169   7.094   2.331  12.505
   21BMANN  HT225170   7.176   2.493  12.499
   21BMANN  HT325171   7.221   2.373  12.627
   21BMANN   C325172   7.392   2.223  12.134
   21BMANN   H325173   7.483   2.200  12.075
   21BMANN   O325174   7.366   2.111  12.218
   21BMANN  HO325175   7.351   2.145  12.307
   21BMANN   C425176   7.280   2.251  12.034
   21BMANN   H425177   7.187   2.277  12.090
   21BMANN   O425178   7.250   2.139  11.950
   21BMANN  HO425179   7.165   2.102  11.974
   21BMANN   C625180   7.212   2.408  11.846
   21BMANN  H6125181   7.193   2.322  11.779
   21BMANN  H6225182   7.117   2.432  11.898
   21BMANN   O625183   7.252   2.520  11.766
   21BMANN  HO625184   7.222   2.600  11.808
   22BGLCN   C125185   7.710   2.686  12.516
   22BGLCN   H125186   7.738   2.794  12.515
   22BGLCN   C525187   7.921   2.624  12.603
   22BGLCN   H525188   7.951   2.731  12.606
   22BGLCN   O525189   7.825   2.604  12.499
   22BGLCN   C225190   7.639   2.651  12.645
   22BGLCN   H225191   7.614   2.543  12.641
   22BGLCN    N25192   7.515   2.726  12.656
   22BGLCN   HN25193   7.508   2.808  12.599
   22BGLCN    C25194   7.406   2.685  12.722
   22BGLCN    O25195   7.400   2.579  12.784
   22BGLCN   CT25196   7.287   2.777  12.717
   22BGLCN  HT125197   7.224   2.751  12.630
   22BGLCN  HT225198   7.319   2.882  12.708
   22BGLCN  HT325199   7.227   2.764  12.809
   22BGLCN   C325200   7.736   2.673  12.760
   22BGLCN   H325201   7.767   2.779  12.758
   22BGLCN   O325202   7.666   2.649  12.884
   22BGLCN   C425203   7.858   2.585  12.736
   22BGLCN   H425204   7.824   2.480  12.729
   22BGLCN   O425205   7.955   2.594  12.840
   22BGLCN  HO425206   7.979   2.503  12.863
   22BGLCN   C625207   8.043   2.541  12.568
   22BGLCN  H6125208   8.110   2.534  12.655
   22BGLCN  H6225209   8.012   2.438  12.540
   22BGLCN   O625210   8.118   2.600  12.460
   22BGLCN  HO625211   8.145   2.530  12.399
   23AGAL    C125212   7.723   2.699  13.003
   23AGAL    H125213   7.814   2.641  13.029
   23AGAL    C525214   7.643   2.923  12.974
   23AGAL    H525215   7.591   2.889  12.881
   23AGAL    O525216   7.758   2.838  12.995
   23AGAL    C225217   7.625   2.679  13.117
   23AGAL    H225218   7.676   2.710  13.211
   23AGAL    O225219   7.586   2.541  13.127
   23AGAL    C325220   7.502   2.765  13.100
   23AGAL    H325221   7.450   2.733  13.008
   23AGAL    O325222   7.412   2.749  13.210
   23AGAL   HO325223   7.437   2.817  13.273
   23AGAL    C425224   7.544   2.910  13.089
   23AGAL    H425225   7.455   2.971  13.065
   23AGAL    O425226   7.600   2.958  13.211
   23AGAL   HO425227   7.650   3.037  13.189
   23AGAL    C625228   7.688   3.066  12.946
   23AGAL   H6125229   7.749   3.069  12.853
   23AGAL   H6225230   7.599   3.130  12.929
   23AGAL    O625231   7.764   3.123  13.054
   23AGAL   HO625232   7.857   3.104  13.037
   24ARHM    C125233   7.661   2.460  13.214
   24ARHM    H125234   7.763   2.502  13.225
   24ARHM    C525235   7.554   2.260  13.142
   24ARHM    H525236   7.491   2.318  13.071
   24ARHM    O525237   7.679   2.328  13.162
   24ARHM    C225238   7.590   2.458  13.349
   24ARHM    H225239   7.568   2.563  13.378
   24ARHM    O225240   7.669   2.396  13.451
   24ARHM    C325241   7.458   2.388  13.332
   24ARHM    H325242   7.395   2.444  13.259
   24ARHM    O325243   7.386   2.381  13.456
   24ARHM   HO325244   7.349   2.293  13.460
   24ARHM    C425245   7.483   2.249  13.277
   24ARHM    H425246   7.552   2.196  13.346
   24ARHM    O425247   7.363   2.172  13.269
   24ARHM   HO425248   7.383   2.081  13.245
   24ARHM    C625249   7.588   2.124  13.078
   24ARHM   H6125250   7.495   2.069  13.051
   24ARHM   H6225251   7.648   2.140  12.986
   24ARHM   H6325252   7.648   2.063  13.148
   25ARHM    C125253   7.767   2.480  13.509
   25ARHM    H125254   7.793   2.561  13.437
   25ARHM    C525255   7.873   2.306  13.630
   25ARHM    H525256   7.797   2.234  13.593
   25ARHM    O525257   7.889   2.410  13.533
   25ARHM    C225258   7.714   2.544  13.635
   25ARHM    H225259   7.614   2.586  13.614
   25ARHM    O225260   7.800   2.647  13.686
   25ARHM    C325261   7.695   2.437  13.741
   25ARHM    H325262   7.619   2.365  13.704
   25ARHM    O325263   7.649   2.500  13.861
   25ARHM    C425264   7.826   2.365  13.762
   25ARHM    H425265   7.902   2.439  13.797
   25ARHM    O425266   7.813   2.264  13.863
   25ARHM   HO425267   7.900   2.230  13.887
   25ARHM    C625268   8.008   2.232  13.637
   25ARHM   H6125269   8.036   2.198  13.534
   25ARHM   H6225270   8.088   2.300  13.672
   25ARHM   H6325271   8.001   2.143  13.701
   26BMANN   C125272   7.786   2.772  13.623
   26BMANN   H125273   7.681   2.787  13.590
   26BMANN   C525274   7.864   2.914  13.447
   26BMANN   H525275   7.758   2.923  13.416
   26BMANN   O525276   7.877   2.786  13.513
   26BMANN   C225277   7.823   2.877  13.727
   26BMANN   H225278   7.750   2.867  13.809
   26BMANN    N25279   7.957   2.857  13.780
   26BMANN   HN25280   8.027   2.837  13.711
   26BMANN    C25281   7.992   2.865  13.909
   26BMANN    O25282   7.912   2.883  14.000
   26BMANN   CT25283   8.138   2.849  13.939
   26BMANN  HT125284   8.187   2.785  13.863
   26BMANN  HT225285   8.150   2.802  14.040
   26BMANN  HT325286   8.187   2.949  13.940
   26BMANN   C325287   7.802   3.014  13.663
   26BMANN   H325288   7.698   3.017  13.624
   26BMANN   O325289   7.812   3.119  13.759
   26BMANN  HO325290   7.728   3.165  13.762
   26BMANN   C425291   7.895   3.028  13.544
   26BMANN   H425292   8.000   3.018  13.578
   26BMANN   O425293   7.886   3.153  13.477
   26BMANN  HO425294   7.802   3.197  13.495
   26BMANN   C625295   7.946   2.914  13.319
   26BMANN  H6125296   7.942   2.814  13.272
   26BMANN  H6225297   7.901   2.986  13.248
   26BMANN   O625298   8.083   2.951  13.339
   26BMANN  HO625299   8.086   3.045  13.359
   27BGLCN   C125300   7.564   2.421  13.939
   27BGLCN   H125301   7.584   2.312  13.926
   27BGLCN   C525302   7.337   2.373  13.986
   27BGLCN   H525303   7.361   2.265  13.977
   27BGLCN   O525304   7.428   2.449  13.905
   27BGLCN   C225305   7.590   2.463  14.082
   27BGLCN   H225306   7.562   2.570  14.090
   27BGLCN    N25307   7.732   2.452  14.114
   27BGLCN   HN25308   7.781   2.377  14.069
   27BGLCN    C25309   7.802   2.541  14.186
   27BGLCN    O25310   7.751   2.640  14.239
   27BGLCN   CT25311   7.950   2.518  14.196
   27BGLCN  HT125312   7.982   2.445  14.117
   27BGLCN  HT225313   7.975   2.478  14.295
   27BGLCN  HT325314   8.004   2.613  14.179
   27BGLCN   C325315   7.498   2.386  14.175
   27BGLCN   H325316   7.519   2.278  14.161
   27BGLCN   O325317   7.532   2.423  14.311
   27BGLCN   C425318   7.355   2.414  14.131
   27BGLCN   H425319   7.337   2.524  14.140
   27BGLCN   O425320   7.255   2.351  14.211
   27BGLCN  HO425321   7.280   2.261  14.234
   27BGLCN   C625322   7.199   2.394  13.929
   27BGLCN  H6125323   7.123   2.343  13.991
   27BGLCN  H6225324   7.174   2.503  13.925
   27BGLCN   O625325   7.191   2.340  13.797
   27BGLCN  HO625326   7.248   2.391  13.738
   28AGAL    C125327   7.485   2.340  14.416
   28AGAL    H125328   7.376   2.356  14.429
   28AGAL    C525329   7.651   2.168  14.387
   28AGAL    H525330   7.698   2.228  14.307
   28AGAL    O525331   7.510   2.200  14.391
   28AGAL    C225332   7.551   2.378  14.548
   28AGAL    H225333   7.508   2.305  14.620
   28AGAL    O225334   7.518   2.510  14.595
   28AGAL    C325335   7.701   2.354  14.541
   28AGAL    H325336   7.741   2.412  14.455
   28AGAL    O325337   7.769   2.399  14.657
   28AGAL   HO325338   7.818   2.479  14.638
   28AGAL    C425339   7.724   2.206  14.516
   28AGAL    H425340   7.833   2.190  14.501
   28AGAL    O425341   7.683   2.127  14.627
   28AGAL   HO425342   7.730   2.161  14.704
   28AGAL    C625343   7.672   2.022  14.348
   28AGAL   H6125344   7.663   2.011  14.238
   28AGAL   H6225345   7.775   1.991  14.376
   28AGAL    O625346   7.579   1.932  14.410
   28AGAL   HO625347   7.492   1.947  14.373
   29ARHM    C125348   7.488   2.512  14.733
   29ARHM    H125349   7.534   2.425  14.783
   29ARHM    C525350   7.280   2.626  14.701
   29ARHM    H525351   7.293   2.626  14.590
   29ARHM    O525352   7.346   2.510  14.756
   29ARHM    C225353   7.546   2.636  14.798
   29ARHM    H225354   7.655   2.636  14.780
   29ARHM    O225355   7.518   2.632  14.940
   29ARHM    C325356   7.487   2.760  14.735
   29ARHM    H325357   7.506   2.757  14.625
   29ARHM    O325358   7.549   2.878  14.785
   29ARHM   HO325359   7.566   2.937  14.711
   29ARHM    C425360   7.337   2.755  14.759
   29ARHM    H425361   7.321   2.752  14.869
   29ARHM    O425362   7.266   2.869  14.709
   29ARHM   HO425363   7.297   2.890  14.621
   29ARHM    C625364   7.131   2.608  14.733
   29ARHM   H6125365   7.093   2.513  14.690
   29ARHM   H6225366   7.114   2.606  14.843
   29ARHM   H6325367   7.071   2.691  14.689
   30ARHM    C125368   7.627   2.590  15.019
   30ARHM    H125369   7.715   2.651  14.992
   30ARHM    C525370   7.554   2.363  15.039
   30ARHM    H525371   7.461   2.386  14.983
   30ARHM    O525372   7.659   2.452  14.998
   30ARHM    C225373   7.596   2.612  15.166
   30ARHM    H225374   7.562   2.717  15.180
   30ARHM    O225375   7.712   2.587  15.245
   30ARHM    C325376   7.484   2.521  15.214
   30ARHM    H325377   7.395   2.544  15.151
   30ARHM    O325378   7.447   2.552  15.350
   30ARHM    C425379   7.524   2.377  15.187
   30ARHM    H425380   7.617   2.352  15.242
   30ARHM    O425381   7.423   2.285  15.226
   30ARHM   HO425382   7.338   2.322  15.203
   30ARHM    C625383   7.601   2.222  14.998
   30ARHM   H6125384   7.523   2.146  15.022
   30ARHM   H6225385   7.620   2.218  14.889
   30ARHM   H6325386   7.695   2.196  15.051
   31BMANN   C125387   7.801   2.693  15.261
   31BMANN   H125388   7.747   2.789  15.275
   31BMANN   C525389   7.992   2.803  15.169
   31BMANN   H525390   7.941   2.901  15.181
   31BMANN   O525391   7.893   2.700  15.152
   31BMANN   C225392   7.878   2.656  15.386
   31BMANN   H225393   7.805   2.656  15.470
   31BMANN    N25394   7.934   2.521  15.378
   31BMANN   HN25395   7.945   2.485  15.286
   31BMANN    C25396   7.967   2.443  15.482
   31BMANN    O25397   7.970   2.486  15.597
   31BMANN   CT25398   8.001   2.300  15.452
   31BMANN  HT125399   8.052   2.291  15.354
   31BMANN  HT225400   7.907   2.239  15.450
   31BMANN  HT325401   8.067   2.260  15.532
   31BMANN   C325402   7.978   2.766  15.413
   31BMANN   H325403   7.924   2.862  15.420
   31BMANN   O325404   8.041   2.746  15.539
   31BMANN  HO325405   8.031   2.654  15.564
   31BMANN   C425406   8.074   2.775  15.295
   31BMANN   H425407   8.127   2.678  15.282
   31BMANN   O425408   8.172   2.877  15.314
   31BMANN  HO425409   8.190   2.885  15.407
   31BMANN   C625410   8.075   2.811  15.041
   31BMANN  H6125411   8.152   2.890  15.051
   31BMANN  H6225412   8.129   2.714  15.028
   31BMANN   O625413   7.997   2.835  14.923
   31BMANN  HO625414   7.979   2.929  14.912
   32BGLCN   C125415   7.523   2.494  15.454
   32BGLCN   H125416   7.630   2.490  15.428
   32BGLCN   C525417   7.559   2.300  15.586
   32BGLCN   H525418   7.665   2.300  15.553
   32BGLCN   O525419   7.477   2.363  15.486
   32BGLCN   C225420   7.507   2.579  15.579
   32BGLCN   H225421   7.402   2.564  15.613
   32BGLCN    N25422   7.525   2.721  15.553
   32BGLCN   HN25423   7.592   2.748  15.483
   32BGLCN    C25424   7.447   2.816  15.606
   32BGLCN    O25425   7.359   2.790  15.687
   32BGLCN   CT25426   7.471   2.958  15.561
   32BGLCN  HT125427   7.529   2.960  15.466
   32BGLCN  HT225428   7.527   3.013  15.640
   32BGLCN  HT325429   7.374   3.008  15.545
   32BGLCN   C325430   7.598   2.521  15.686
   32BGLCN   H325431   7.700   2.516  15.643
   32BGLCN   O325432   7.605   2.597  15.808
   32BGLCN   C425433   7.549   2.380  15.714
   32BGLCN   H425434   7.443   2.384  15.746
   32BGLCN   O425435   7.622   2.318  15.819
   32BGLCN  HO425436   7.614   2.374  15.896
   32BGLCN   C625437   7.514   2.156  15.595
   32BGLCN  H6125438   7.569   2.104  15.676
   32BGLCN  H6225439   7.405   2.151  15.619
   32BGLCN   O625440   7.539   2.089  15.471
   32BGLCN  HO625441   7.493   2.137  15.402
   33AGAL    C125442   7.735   2.606  15.863
   33AGAL    H125443   7.793   2.512  15.847
   33AGAL    C525444   7.746   2.842  15.825
   33AGAL    H525445   7.644   2.838  15.780
   33AGAL    O525446   7.809   2.714  15.804
   33AGAL    C225447   7.724   2.632  16.012
   33AGAL    H225448   7.828   2.645  16.050
   33AGAL    O225449   7.669   2.517  16.076
   33AGAL    C325450   7.647   2.760  16.036
   33AGAL    H325451   7.547   2.752  15.988
   33AGAL    O325452   7.624   2.784  16.175
   33AGAL   HO325453   7.697   2.840  16.204
   33AGAL    C425454   7.725   2.874  15.973
   33AGAL    H425455   7.661   2.965  15.978
   33AGAL    O425456   7.844   2.905  16.045
   33AGAL   HO425457   7.918   2.852  16.014
   33AGAL    C625458   7.824   2.948  15.748
   33AGAL   H6125459   7.798   2.942  15.640
   33AGAL   H6225460   7.795   3.049  15.784
   33AGAL    O625461   7.966   2.934  15.759
   33AGAL   HO625462   7.997   2.867  15.697
   34ARHM    C125463   7.724   2.485  16.203
   34ARHM    H125464   7.745   2.578  16.261
   34ARHM    C525465   7.825   2.287  16.115
   34ARHM    H525466   7.795   2.314  16.011
   34ARHM    O525467   7.844   2.406  16.192
   34ARHM    C225468   7.614   2.405  16.271
   34ARHM    H225469   7.522   2.467  16.266
   34ARHM    O225470   7.636   2.371  16.409
   34ARHM    C325471   7.590   2.279  16.189
   34ARHM    H325472   7.562   2.308  16.085
   34ARHM    O325473   7.480   2.203  16.240
   34ARHM   HO325474   7.503   2.111  16.230
   34ARHM    C425475   7.718   2.199  16.178
   34ARHM    H425476   7.752   2.169  16.279
   34ARHM    O425477   7.698   2.082  16.098
   34ARHM   HO425478   7.705   2.002  16.152
   34ARHM    C625479   7.963   2.219  16.104
   34ARHM   H6125480   8.004   2.197  16.205
   34ARHM   H6225481   7.956   2.123  16.048
   34ARHM   H6325482   8.034   2.284  16.049
   35ARHM    C125483   7.647   2.479  16.500
   35ARHM    H125484   7.580   2.563  16.471
   35ARHM    C525485   7.875   2.424  16.541
   35ARHM    H525486   7.874   2.343  16.466
   35ARHM    O525487   7.782   2.527  16.505
   35ARHM    C225488   7.608   2.428  16.639
   35ARHM    H225489   7.504   2.389  16.632
   35ARHM    O225490   7.615   2.521  16.749
   35ARHM    C325491   7.699   2.314  16.677
   35ARHM    H325492   7.693   2.233  16.601
   35ARHM    O325493   7.659   2.257  16.802
   35ARHM   HO325494   7.661   2.329  16.866
   35ARHM    C425495   7.841   2.367  16.679
   35ARHM    H425496   7.845   2.453  16.749
   35ARHM    O425497   7.937   2.272  16.723
   35ARHM   HO425498   7.927   2.190  16.674
   35ARHM    C625499   8.013   2.492  16.536
   35ARHM   H6125500   8.035   2.526  16.433
   35ARHM   H6225501   8.015   2.581  16.603
   35ARHM   H6325502   8.092   2.422  16.570
   36BMANN   C125503   7.526   2.630  16.751
   36BMANN   H125504   7.425   2.595  16.720
   36BMANN   C525505   7.482   2.846  16.662
   36BMANN   H525506   7.383   2.810  16.626
   36BMANN   O525507   7.572   2.735  16.665
   36BMANN   C225508   7.521   2.685  16.894
   36BMANN   H225509   7.480   2.603  16.959
   36BMANN    N25510   7.653   2.719  16.948
   36BMANN   HN25511   7.727   2.725  16.882
   36BMANN    C25512   7.683   2.739  17.078
   36BMANN    O25513   7.603   2.729  17.171
   36BMANN   CT25514   7.826   2.775  17.107
   36BMANN  HT125515   7.854   2.868  17.052
   36BMANN  HT225516   7.894   2.693  17.075
   36BMANN  HT325517   7.840   2.792  17.216
   36BMANN   C325518   7.418   2.799  16.895
   36BMANN   H325519   7.323   2.758  16.855
   36BMANN   O325520   7.389   2.849  17.025
   36BMANN  HO325521   7.317   2.912  17.017
   36BMANN   C425522   7.465   2.907  16.800
   36BMANN   H425523   7.562   2.947  16.836
   36BMANN   O425524   7.370   3.014  16.794
   36BMANN  HO425525   7.401   3.090  16.844
   36BMANN   C625526   7.533   2.944  16.557
   36BMANN  H6125527   7.558   2.889  16.464
   36BMANN  H6225528   7.453   3.017  16.532
   36BMANN   O625529   7.649   3.017  16.600
   36BMANN  HO625530   7.622   3.094  16.650
    1ECLIP HB6S25531   0.724   2.559   6.662
    1ECLIP  OB625532   0.633   2.440   6.801
    1ECLIP  CB625533   0.733   2.455   6.700
    1ECLIP HB6R25534   0.835   2.446   6.745
    1ECLIP  CB525535   0.724   2.362   6.580
    1ECLIP  OB525536   0.588   2.369   6.538
    1ECLIP  HB525537   0.751   2.259   6.611
    1ECLIP  CB125538   0.564   2.289   6.422
    1ECLIP  HB125539   0.575   2.181   6.445
    1ECLIP  OA625540   0.431   2.316   6.388
    1ECLIP  CA625541   0.403   2.457   6.386
    1ECLIP HA6R25542   0.492   2.522   6.401
    1ECLIP HA6S25543   0.331   2.483   6.466
    1ECLIP  CB425544   0.813   2.405   6.464
    1ECLIP  HB425545   0.781   2.505   6.429
    1ECLIP  OB425546   0.944   2.406   6.517
    1ECLIP   PB25547   1.021   2.551   6.537
    1ECLIP OPB425548   1.122   2.522   6.648
    1ECLIP OPB325549   0.912   2.652   6.576
    1ECLIP OPB225550   1.076   2.585   6.401
    1ECLIP  CB325551   0.797   2.309   6.348
    1ECLIP  OB325552   0.884   2.343   6.240
    1ECLIP  HB325553   0.816   2.208   6.387
    1ECLIP  C7125554   0.933   2.240   6.170
    1ECLIP  O7125555   0.889   2.126   6.181
    1ECLIP  C7225556   0.987   2.287   6.036
    1ECLIP H72R25557   0.903   2.294   5.964
    1ECLIP H72S25558   1.058   2.210   5.999
    1ECLIP  CB225559   0.653   2.324   6.302
    1ECLIP  HB225560   0.641   2.432   6.280
    1ECLIP  NB225561   0.621   2.249   6.179
    1ECLIP HNB225562   0.614   2.150   6.186
    1ECLIP  CA425563   0.269   2.388   6.181
    1ECLIP  HA425564   0.344   2.312   6.150
    1ECLIP  OA425565   0.171   2.334   6.271
    1ECLIP HOA425566   0.106   2.403   6.285
    1ECLIP  CA525567   0.342   2.496   6.256
    1ECLIP  HA525568   0.269   2.575   6.282
    1ECLIP  OA525569   0.442   2.553   6.174
    1ECLIP  CA125570   0.385   2.623   6.061
    1ECLIP  HA125571   0.469   2.661   5.999
    1ECLIP  OA125572   0.309   2.733   6.106
    1ECLIP OPA225573   0.265   2.930   6.263
    1ECLIP OPA325574   0.449   2.771   6.325
    1ECLIP OPA425575   0.490   2.913   6.141
    1ECLIP   PA25576   0.376   2.843   6.210
    1ECLIP  CA325577   0.206   2.450   6.061
    1ECLIP  HA325578   0.145   2.532   6.104
    1ECLIP  OA325579   0.120   2.364   5.983
    1ECLIP  C3125580   0.141   2.237   5.941
    1ECLIP  O3125581   0.094   2.199   5.834
    1ECLIP  C3225582   0.100   2.136   6.050
    1ECLIP H32R25583   0.013   2.084   6.005
    1ECLIP H32S25584   0.058   2.185   6.141
    1ECLIP  CA225585   0.309   2.521   5.976
    1ECLIP  HA225586   0.381   2.445   5.939
    1ECLIP  NA225587   0.246   2.587   5.862
    1ECLIP HNA225588   0.151   2.613   5.875
    1ECLIP  C7325589   1.059   2.422   6.042
    1ECLIP H73R25590   1.124   2.427   6.132
    1ECLIP  O7325591   0.955   2.518   6.049
    1ECLIP  C8125592   0.989   2.641   6.084
    1ECLIP  O8125593   1.099   2.691   6.077
    1ECLIP  C8225594   0.862   2.725   6.057
    1ECLIP H82R25595   0.887   2.828   6.089
    1ECLIP H82S25596   0.779   2.680   6.116
    1ECLIP  C8325597   0.828   2.721   5.906
    1ECLIP H83R25598   0.780   2.624   5.882
    1ECLIP H83S25599   0.923   2.724   5.849
    1ECLIP  C8425600   0.742   2.836   5.855
    1ECLIP H84R25601   0.795   2.932   5.872
    1ECLIP H84S25602   0.644   2.840   5.908
    1ECLIP  C8525603   0.718   2.817   5.704
    1ECLIP H85R25604   0.649   2.731   5.691
    1ECLIP H85S25605   0.815   2.790   5.658
    1ECLIP  C8625606   0.662   2.940   5.631
    1ECLIP H86R25607   0.741   3.018   5.629
    1ECLIP H86S25608   0.576   2.981   5.688
    1ECLIP  C8725609   0.619   2.909   5.486
    1ECLIP H87R25610   0.602   3.004   5.432
    1ECLIP H87S25611   0.521   2.855   5.491
    1ECLIP  C8825612   0.719   2.821   5.410
    1ECLIP H88R25613   0.732   2.725   5.464
    1ECLIP H88S25614   0.818   2.871   5.406
    1ECLIP  C8925615   0.675   2.784   5.267
    1ECLIP H89R25616   0.570   2.749   5.269
    1ECLIP H89S25617   0.738   2.698   5.234
    1ECLIP C81025618   0.690   2.898   5.167
    1ECLIPH810R25619   0.790   2.945   5.177
    1ECLIPH810S25620   0.614   2.975   5.189
    1ECLIP C81125621   0.670   2.850   5.021
    1ECLIPH811R25622   0.653   2.938   4.957
    1ECLIPH811S25623   0.578   2.786   5.020
    1ECLIP C81225624   0.786   2.769   4.962
    1ECLIPH812R25625   0.753   2.725   4.865
    1ECLIPH812S25626   0.812   2.684   5.030
    1ECLIP C81325627   0.912   2.853   4.936
    1ECLIPH813R25628   0.885   2.938   4.870
    1ECLIPH813S25629   0.947   2.897   5.032
    1ECLIP C81425630   1.026   2.773   4.873
    1ECLIPH814R25631   0.994   2.726   4.778
    1ECLIPH814S25632   1.059   2.693   4.943
    1ECLIPH814T25633   1.113   2.839   4.854
    1ECLIP  C7425634   1.149   2.444   5.917
    1ECLIP H74R25635   1.229   2.367   5.915
    1ECLIP H74S25636   1.203   2.541   5.929
    1ECLIP  C7525637   1.082   2.445   5.778
    1ECLIP H75R25638   1.145   2.509   5.714
    1ECLIP H75S25639   0.982   2.493   5.783
    1ECLIP  C7625640   1.074   2.307   5.710
    1ECLIP H76R25641   0.996   2.245   5.759
    1ECLIP H76S25642   1.171   2.255   5.724
    1ECLIP  C7725643   1.047   2.317   5.559
    1ECLIP H77R25644   1.137   2.362   5.511
    1ECLIP H77S25645   0.962   2.386   5.542
    1ECLIP  C7825646   1.017   2.181   5.495
    1ECLIP H78R25647   1.108   2.119   5.507
    1ECLIP H78S25648   0.936   2.131   5.554
    1ECLIP  C7925649   0.974   2.187   5.347
    1ECLIP H79R25650   0.866   2.213   5.342
    1ECLIP H79S25651   0.986   2.085   5.304
    1ECLIP C71025652   1.050   2.288   5.259
    1ECLIPH710R25653   1.040   2.390   5.302
    1ECLIPH710S25654   1.158   2.262   5.259
    1ECLIP C71125655   0.997   2.291   5.115
    1ECLIPH711R25656   1.000   2.189   5.072
    1ECLIPH711S25657   0.890   2.322   5.117
    1ECLIP C71225658   1.075   2.389   5.025
    1ECLIPH712R25659   1.181   2.356   5.019
    1ECLIPH712S25660   1.074   2.488   5.075
    1ECLIP C71325661   1.018   2.404   4.884
    1ECLIPH713R25662   0.912   2.435   4.891
    1ECLIPH713S25663   1.074   2.486   4.832
    1ECLIP C71425664   1.029   2.278   4.795
    1ECLIPH714R25665   1.135   2.248   4.786
    1ECLIPH714S25666   0.972   2.194   4.840
    1ECLIPH714T25667   0.989   2.298   4.693
    1ECLIP  C5125668   0.626   2.304   6.056
    1ECLIP  O5125669   0.642   2.423   6.036
    1ECLIP  C5225670   0.608   2.209   5.938
    1ECLIP H52R25671   0.697   2.144   5.929
    1ECLIP H52S25672   0.519   2.146   5.960
    1ECLIP  C5325673   0.584   2.286   5.806
    1ECLIP H53R25674   0.525   2.379   5.823
    1ECLIP  O5325675   0.518   2.194   5.717
    1ECLIP  C6125676   0.396   2.229   5.679
    1ECLIP  O6125677   0.324   2.310   5.733
    1ECLIP  C6225678   0.346   2.119   5.587
    1ECLIP H62R25679   0.304   2.037   5.650
    1ECLIP H62S25680   0.436   2.081   5.533
    1ECLIP  C6325681   0.240   2.167   5.485
    1ECLIP H63R25682   0.282   2.249   5.424
    1ECLIP H63S25683   0.151   2.206   5.539
    1ECLIP  C6425684   0.196   2.054   5.391
    1ECLIP H64R25685   0.127   2.096   5.313
    1ECLIP H64S25686   0.140   1.977   5.447
    1ECLIP  C6525687   0.316   1.988   5.321
    1ECLIP H65R25688   0.382   1.943   5.399
    1ECLIP H65S25689   0.376   2.065   5.268
    1ECLIP  C6625690   0.282   1.871   5.229
    1ECLIP H66R25691   0.233   1.793   5.290
    1ECLIP H66S25692   0.378   1.830   5.190
    1ECLIP  C6725693   0.195   1.907   5.109
    1ECLIP H67R25694   0.089   1.922   5.141
    1ECLIP H67S25695   0.197   1.822   5.037
    1ECLIP  C6825696   0.243   2.033   5.036
    1ECLIP H68R25697   0.354   2.034   5.030
    1ECLIP H68S25698   0.212   2.122   5.095
    1ECLIP  C6925699   0.185   2.041   4.896
    1ECLIP H69R25700   0.084   1.996   4.894
    1ECLIP H69S25701   0.249   1.980   4.829
    1ECLIP C61025702   0.176   2.186   4.847
    1ECLIPH610R25703   0.279   2.228   4.845
    1ECLIPH610S25704   0.116   2.246   4.918
    1ECLIP C61125705   0.116   2.195   4.707
    1ECLIPH611R25706   0.010   2.160   4.710
    1ECLIPH611S25707   0.113   2.301   4.675
    1ECLIP C61225708   0.195   2.111   4.608
    1ECLIPH612R25709   0.182   2.148   4.503
    1ECLIPH612S25710   0.304   2.118   4.631
    1ECLIPH612T25711   0.164   2.005   4.612
    1ECLIP  C5425712   0.713   2.331   5.734
    1ECLIP H54R25713   0.775   2.243   5.710
    1ECLIP H54S25714   0.769   2.394   5.806
    1ECLIP  C5525715   0.689   2.415   5.606
    1ECLIP H55R25716   0.784   2.470   5.584
    1ECLIP H55S25717   0.614   2.494   5.627
    1ECLIP  C5625718   0.649   2.335   5.483
    1ECLIP H56R25719   0.542   2.303   5.490
    1ECLIP H56S25720   0.711   2.243   5.477
    1ECLIP  C5725721   0.663   2.415   5.352
    1ECLIP H57R25722   0.768   2.447   5.340
    1ECLIP H57S25723   0.600   2.506   5.359
    1ECLIP  C5825724   0.621   2.334   5.227
    1ECLIP H58R25725   0.686   2.245   5.219
    1ECLIP H58S25726   0.516   2.299   5.240
    1ECLIP  C5925727   0.634   2.418   5.101
    1ECLIP H59R25728   0.735   2.466   5.099
    1ECLIP H59S25729   0.561   2.502   5.103
    1ECLIP C51025730   0.616   2.338   4.971
    1ECLIPH510R25731   0.520   2.284   4.971
    1ECLIPH510S25732   0.698   2.263   4.965
    1ECLIP C51125733   0.624   2.431   4.849
    1ECLIPH511R25734   0.528   2.486   4.839
    1ECLIPH511S25735   0.702   2.507   4.870
    1ECLIP C51225736   0.662   2.361   4.719
    1ECLIPH512R25737   0.668   2.439   4.641
    1ECLIPH512S25738   0.763   2.317   4.729
    1ECLIP C51325739   0.566   2.253   4.672
    1ECLIPH513R25740   0.462   2.292   4.677
    1ECLIPH513S25741   0.571   2.165   4.740
    1ECLIP C51425742   0.597   2.212   4.528
    1ECLIPH514R25743   0.688   2.148   4.524
    1ECLIPH514S25744   0.512   2.157   4.483
    1ECLIPH514T25745   0.616   2.302   4.466
    1ECLIP  C3325746   0.206   2.028   6.077
    1ECLIP H33R25747   0.159   1.942   6.129
    1ECLIP  O3325748   0.303   2.081   6.164
    1ECLIP HO3325749   0.272   2.144   6.229
    1ECLIP  C3425750   0.275   1.979   5.948
    1ECLIP H34R25751   0.320   2.067   5.899
    1ECLIP H34S25752   0.200   1.937   5.877
    1ECLIP  C3525753   0.392   1.879   5.964
    1ECLIP H35R25754   0.357   1.779   5.998
    1ECLIP H35S25755   0.463   1.919   6.038
    1ECLIP  C3625756   0.465   1.868   5.828
    1ECLIP H36R25757   0.474   1.971   5.788
    1ECLIP H36S25758   0.404   1.810   5.755
    1ECLIP  C3725759   0.609   1.815   5.832
    1ECLIP H37R25760   0.610   1.704   5.834
    1ECLIP H37S25761   0.658   1.851   5.925
    1ECLIP  C3825762   0.691   1.867   5.714
    1ECLIP H38R25763   0.700   1.977   5.721
    1ECLIP H38S25764   0.795   1.826   5.720
    1ECLIP  C3925765   0.633   1.832   5.575
    1ECLIP H39R25766   0.534   1.881   5.564
    1ECLIP H39S25767   0.618   1.722   5.568
    1ECLIP C31025768   0.724   1.879   5.460
    1ECLIPH310R25769   0.816   1.816   5.458
    1ECLIPH310S25770   0.757   1.983   5.479
    1ECLIP C31125771   0.656   1.873   5.323
    1ECLIPH311R25772   0.599   1.778   5.312
    1ECLIPH311S25773   0.583   1.958   5.318
    1ECLIP C31225774   0.753   1.888   5.205
    1ECLIPH312R25775   0.820   1.974   5.224
    1ECLIPH312S25776   0.816   1.797   5.197
    1ECLIP C31325777   0.682   1.912   5.071
    1ECLIPH313R25778   0.613   1.827   5.050
    1ECLIPH313S25779   0.620   2.004   5.082
    1ECLIP C31425780   0.779   1.930   4.954
    1ECLIPH314R25781   0.839   1.838   4.939
    1ECLIPH314S25782   0.725   1.953   4.860
    1ECLIPH314T25783   0.849   2.013   4.976
    1ECLIP  C1125784   0.310   2.626   5.752
    1ECLIP  O1125785   0.425   2.593   5.727
    1ECLIP  C1225786   0.236   2.719   5.658
    1ECLIP H12R25787   0.264   2.823   5.686
    1ECLIP H12S25788   0.126   2.708   5.672
    1ECLIP  C1325789   0.274   2.694   5.511
    1ECLIP H13R25790   0.384   2.698   5.498
    1ECLIP  O1325791   0.216   2.800   5.436
    1ECLIP HO1325792   0.254   2.810   5.348
    1ECLIP  C1425793   0.220   2.561   5.455
    1ECLIP H14R25794   0.122   2.544   5.504
    1ECLIP H14S25795   0.289   2.479   5.487
    1ECLIP  C1525796   0.198   2.554   5.301
    1ECLIP H15R25797   0.123   2.631   5.274
    1ECLIP H15S25798   0.154   2.455   5.276
    1ECLIP  C1625799   0.324   2.572   5.215
    1ECLIP H16R25800   0.371   2.472   5.207
    1ECLIP H16S25801   0.397   2.638   5.266
    1ECLIP  C1725802   0.297   2.628   5.075
    1ECLIP H17R25803   0.210   2.575   5.030
    1ECLIP H17S25804   0.385   2.607   5.010
    1ECLIP  C1825805   0.272   2.780   5.072
    1ECLIP H18R25806   0.182   2.801   5.134
    1ECLIP H18S25807   0.358   2.833   5.120
    1ECLIP  C1925808   0.250   2.839   4.931
    1ECLIP H19R25809   0.199   2.937   4.940
    1ECLIP H19S25810   0.184   2.770   4.874
    1ECLIP C11025811   0.380   2.861   4.851
    1ECLIPH110R25812   0.442   2.937   4.903
    1ECLIPH110S25813   0.437   2.765   4.851
    1ECLIP C11125814   0.360   2.904   4.705
    1ECLIPH111R25815   0.260   2.869   4.671
    1ECLIPH111S25816   0.359   3.015   4.698
    1ECLIP C11225817   0.469   2.847   4.612
    1ECLIPH112R25818   0.567   2.891   4.641
    1ECLIPH112S25819   0.477   2.737   4.630
    1ECLIP C11325820   0.443   2.869   4.462
    1ECLIPH113R25821   0.340   2.838   4.433
    1ECLIPH113S25822   0.440   2.979   4.444
    1ECLIP C11425823   0.545   2.806   4.368
    1ECLIPH114R25824   0.646   2.850   4.386
    1ECLIPH114S25825   0.551   2.697   4.384
    1ECLIPH114T25826   0.517   2.825   4.262
    2AKDO    C125827   0.630   2.202   6.839
    2AKDO   O1125828   0.662   2.105   6.911
    2AKDO   O1225829   0.525   2.208   6.766
    2AKDO    C225830   0.663   2.343   6.900
    2AKDO    C625831   0.797   2.506   7.016
    2AKDO    H625832   0.776   2.574   6.931
    2AKDO    O625833   0.788   2.368   6.966
    2AKDO    C325834   0.561   2.370   7.006
    2AKDO   H3125835   0.583   2.303   7.091
    2AKDO   H3225836   0.461   2.343   6.964
    2AKDO    C425837   0.559   2.510   7.056
    2AKDO    H425838   0.547   2.584   6.973
    2AKDO    O425839   0.450   2.520   7.145
    2AKDO    C525840   0.691   2.542   7.122
    2AKDO    H525841   0.694   2.653   7.130
    2AKDO    O525842   0.700   2.489   7.257
    2AKDO    C725843   0.941   2.536   7.049
    2AKDO    H725844   0.974   2.471   7.134
    2AKDO    O725845   0.957   2.673   7.085
    2AKDO   HO725846   1.036   2.697   7.037
    2AKDO    C825847   1.024   2.511   6.925
    2AKDO   H8125848   1.013   2.406   6.889
    2AKDO   H8225849   0.987   2.577   6.844
    2AKDO    O825850   1.163   2.537   6.943
    2AKDO   HO825851   1.193   2.538   6.851
    3AKDO    C125852   0.295   2.585   6.965
    3AKDO   O1125853   0.324   2.520   6.859
    3AKDO   O1225854   0.287   2.710   6.977
    3AKDO    C225855   0.317   2.505   7.099
    3AKDO    C625856   0.300   2.273   7.181
    3AKDO    H625857   0.409   2.269   7.202
    3AKDO    O625858   0.273   2.368   7.075
    3AKDO    C325859   0.250   2.552   7.228
    3AKDO   H3125860   0.140   2.557   7.212
    3AKDO   H3225861   0.283   2.656   7.252
    3AKDO    C425862   0.284   2.459   7.342
    3AKDO    H425863   0.394   2.451   7.355
    3AKDO    O425864   0.236   2.510   7.465
    3AKDO   HO425865   0.298   2.574   7.500
    3AKDO    C525866   0.232   2.320   7.308
    3AKDO    H525867   0.260   2.252   7.392
    3AKDO    O525868   0.092   2.315   7.293
    3AKDO   HO525869   0.068   2.356   7.209
    3AKDO    C725870   0.256   2.136   7.127
    3AKDO    H725871   0.151   2.145   7.090
    3AKDO    O725872   0.264   2.031   7.226
    3AKDO   HO725873   0.179   2.041   7.268
    3AKDO    C825874   0.341   2.097   7.006
    3AKDO   H8125875   0.316   2.165   6.922
    3AKDO   H8225876   0.448   2.114   7.030
    3AKDO    O825877   0.320   1.960   6.962
    3AKDO   HO825878   0.323   1.967   6.867
    4AHEP    C125879   0.768   2.578   7.346
    4AHEP    H125880   0.870   2.590   7.306
    4AHEP    C525881   0.585   2.716   7.422
    4AHEP    H525882   0.520   2.641   7.372
    4AHEP    O525883   0.712   2.711   7.354
    4AHEP    C225884   0.785   2.524   7.488
    4AHEP    H225885   0.808   2.416   7.477
    4AHEP    O225886   0.897   2.581   7.557
    4AHEP   HO225887   0.974   2.531   7.528
    4AHEP    C325888   0.654   2.530   7.568
    4AHEP    H325889   0.583   2.462   7.516
    4AHEP    O325890   0.678   2.489   7.703
    4AHEP    C425891   0.600   2.672   7.570
    4AHEP    H425892   0.674   2.737   7.622
    4AHEP    O425893   0.473   2.672   7.638
    4AHEP    P425894   0.421   2.784   7.747
    4AHEP  OP4225895   0.298   2.730   7.818
    4AHEP  OP4325896   0.378   2.909   7.674
    4AHEP  OP4425897   0.524   2.819   7.852
    4AHEP    C625898   0.515   2.851   7.401
    4AHEP    H625899   0.407   2.837   7.424
    4AHEP    O625900   0.565   2.948   7.492
    4AHEP   HO625901   0.508   2.934   7.568
    4AHEP    C725902   0.526   2.905   7.259
    4AHEP   H7125903   0.463   2.996   7.248
    4AHEP   H7225904   0.487   2.828   7.188
    4AHEP    O725905   0.660   2.939   7.220
    4AHEP   HO725906   0.714   2.868   7.256
    5AHEP    C125907   0.583   2.400   7.754
    5AHEP    H125908   0.488   2.409   7.697
    5AHEP    C525909   0.746   2.239   7.825
    5AHEP    H525910   0.820   2.317   7.799
    5AHEP    O525911   0.628   2.264   7.745
    5AHEP    C225912   0.552   2.435   7.899
    5AHEP    H225913   0.535   2.545   7.903
    5AHEP    O225914   0.432   2.373   7.947
    5AHEP   HO225915   0.358   2.405   7.894
    5AHEP    C325916   0.674   2.407   7.986
    5AHEP    H325917   0.759   2.468   7.950
    5AHEP    O325918   0.654   2.434   8.124
    5AHEP    C425919   0.709   2.261   7.969
    5AHEP    H425920   0.619   2.198   7.990
    5AHEP    O425921   0.819   2.220   8.049
    5AHEP    P425922   0.793   2.169   8.203
    5AHEP  OP4225923   0.890   2.248   8.286
    5AHEP  OP4325924   0.806   2.018   8.207
    5AHEP  OP4425925   0.647   2.189   8.240
    5AHEP    C625926   0.820   2.109   7.792
    5AHEP    H625927   0.913   2.103   7.852
    5AHEP    O625928   0.741   1.993   7.818
    5AHEP   HO625929   0.742   1.952   7.730
    5AHEP    C725930   0.860   2.109   7.644
    5AHEP   H7125931   0.963   2.069   7.637
    5AHEP   H7225932   0.865   2.212   7.601
    5AHEP    O725933   0.777   2.022   7.566
    6AHEP    C125934   0.668   2.089   7.505
    6AHEP    H125935   0.671   2.198   7.523
    6AHEP    C525936   0.676   1.930   7.327
    6AHEP    H525937   0.759   1.881   7.384
    6AHEP    O525938   0.675   2.069   7.365
    6AHEP    C225939   0.539   2.031   7.563
    6AHEP    H225940   0.542   2.041   7.674
    6AHEP    O225941   0.422   2.103   7.520
    6AHEP   HO225942   0.354   2.093   7.587
    6AHEP    C325943   0.532   1.884   7.528
    6AHEP    H325944   0.620   1.831   7.572
    6AHEP    O325945   0.415   1.822   7.582
    6AHEP   HO325946   0.378   1.757   7.520
    6AHEP    C425947   0.543   1.876   7.377
    6AHEP    H425948   0.468   1.949   7.339
    6AHEP    O425949   0.508   1.752   7.318
    6AHEP   HO425950   0.549   1.681   7.367
    6AHEP    C625951   0.708   1.902   7.181
    6AHEP    H625952   0.729   1.794   7.168
    6AHEP    O625953   0.593   1.932   7.099
    6AHEP   HO625954   0.630   1.995   7.037
    6AHEP    C725955   0.832   1.977   7.130
    6AHEP   H7125956   0.854   1.948   7.025
    6AHEP   H7225957   0.920   1.946   7.191
    6AHEP    O725958   0.820   2.119   7.138
    6AHEP   HO725959   0.805   2.152   7.049
    7AGLC    C125960   0.678   2.564   8.168
    7AGLC    H125961   0.762   2.611   8.113
    7AGLC    C525962   0.446   2.581   8.219
    7AGLC    H525963   0.438   2.474   8.186
    7AGLC    O525964   0.559   2.642   8.153
    7AGLC    C225965   0.711   2.559   8.318
    7AGLC    H225966   0.719   2.664   8.352
    7AGLC    O225967   0.838   2.501   8.344
    7AGLC   HO225968   0.839   2.408   8.319
    7AGLC    C325969   0.600   2.493   8.398
    7AGLC    H325970   0.584   2.392   8.353
    7AGLC    O325971   0.634   2.476   8.538
    7AGLC    C425972   0.473   2.576   8.370
    7AGLC    H425973   0.491   2.680   8.403
    7AGLC    O425974   0.359   2.528   8.439
    7AGLC   HO425975   0.328   2.597   8.498
    7AGLC    C625976   0.316   2.646   8.168
    7AGLC   H6125977   0.271   2.577   8.094
    7AGLC   H6225978   0.243   2.658   8.250
    7AGLC    O625979   0.335   2.771   8.101
    7AGLC   HO625980   0.419   2.761   8.054
    8AGLC    C125981   0.633   2.341   8.587
    8AGLC    H125982   0.548   2.287   8.542
    8AGLC    C525983   0.873   2.317   8.618
    8AGLC    H525984   0.890   2.419   8.579
    8AGLC    O525985   0.752   2.264   8.561
    8AGLC    C225986   0.621   2.336   8.738
    8AGLC    H225987   0.616   2.229   8.767
    8AGLC    O225988   0.505   2.401   8.787
    8AGLC    C325989   0.739   2.400   8.808
    8AGLC    H325990   0.749   2.503   8.769
    8AGLC    O325991   0.711   2.409   8.950
    8AGLC    C425992   0.861   2.321   8.770
    8AGLC    H425993   0.849   2.217   8.807
    8AGLC    O425994   0.978   2.378   8.829
    8AGLC   HO425995   1.022   2.435   8.766
    8AGLC    C625996   0.987   2.226   8.570
    8AGLC   H6125997   0.950   2.156   8.491
    8AGLC   H6225998   1.066   2.288   8.521
    8AGLC    O625999   1.046   2.147   8.674
    8AGLC   HO626000   1.077   2.209   8.740
    9AGAL    C126001   0.378   2.364   8.740
    9AGAL    H126002   0.372   2.374   8.629
    9AGAL    C526003   0.348   2.207   8.918
    9AGAL    H526004   0.452   2.226   8.952
    9AGAL    O526005   0.343   2.230   8.776
    9AGAL    C226006   0.291   2.467   8.807
    9AGAL    H226007   0.185   2.452   8.776
    9AGAL    O226008   0.336   2.590   8.747
    9AGAL    C326009   0.303   2.447   8.958
    9AGAL    H326010   0.410   2.455   8.987
    9AGAL    O326011   0.236   2.544   9.037
    9AGAL   HO326012   0.274   2.630   9.013
    9AGAL    C426013   0.256   2.306   8.990
    9AGAL    H426014   0.266   2.290   9.101
    9AGAL    O426015   0.120   2.286   8.955
    9AGAL   HO426016   0.115   2.263   8.862
    9AGAL    C626017   0.322   2.058   8.943
    9AGAL   H6126018   0.397   2.000   8.884
    9AGAL   H6226019   0.337   2.035   9.049
    9AGAL    O626020   0.192   2.014   8.903
    9AGAL   HO626021   0.170   2.055   8.818
   10AGAL    C126022   0.303   2.715   8.799
   10AGAL    H126023   0.194   2.723   8.814
   10AGAL    C526024   0.517   2.729   8.907
   10AGAL    H526025   0.542   2.630   8.865
   10AGAL    O526026   0.373   2.739   8.922
   10AGAL    C226027   0.349   2.818   8.696
   10AGAL    H226028   0.324   2.918   8.738
   10AGAL    O226029   0.277   2.805   8.572
   10AGAL   HO226030   0.277   2.893   8.533
   10AGAL    C326031   0.500   2.811   8.675
   10AGAL    H326032   0.525   2.709   8.639
   10AGAL    O326033   0.546   2.904   8.577
   10AGAL   HO326034   0.594   2.859   8.507
   10AGAL    C426035   0.569   2.834   8.809
   10AGAL    H426036   0.678   2.818   8.794
   10AGAL    O426037   0.551   2.966   8.858
   10AGAL   HO426038   0.535   3.023   8.782
   10AGAL    C626039   0.581   2.734   9.045
   10AGAL   H6126040   0.546   2.647   9.104
   10AGAL   H6226041   0.692   2.727   9.035
   10AGAL    O626042   0.549   2.853   9.117
   10AGAL   HO626043   0.542   2.923   9.052
   11BGLC    C126044   0.753   2.309   9.042
   11BGLC    H126045   0.864   2.311   9.054
   11BGLC    C526046   0.743   2.075   9.098
   11BGLC    H526047   0.853   2.078   9.118
   11BGLC    O526048   0.709   2.177   9.002
   11BGLC    C226049   0.684   2.344   9.174
   11BGLC    H226050   0.575   2.346   9.155
   11BGLC    O226051   0.722   2.474   9.220
   11BGLC   HO226052   0.743   2.528   9.143
   11BGLC    C326053   0.712   2.241   9.280
   11BGLC    H326054   0.821   2.241   9.306
   11BGLC    O326055   0.632   2.265   9.398
   11BGLC    C426056   0.671   2.106   9.229
   11BGLC    H426057   0.562   2.107   9.208
   11BGLC    O426058   0.695   2.006   9.328
   11BGLC   HO426059   0.624   2.009   9.393
   11BGLC    C626060   0.707   1.940   9.038
   11BGLC   H6126061   0.674   1.871   9.118
   11BGLC   H6226062   0.622   1.951   8.967
   11BGLC    O626063   0.818   1.879   8.970
   11BGLC   HO626064   0.838   1.927   8.891
   12BGLCN   C126065   0.695   2.311   9.514
   12BGLCN   H126066   0.729   2.416   9.500
   12BGLCN   C526067   0.860   2.262   9.679
   12BGLCN   H526068   0.890   2.369   9.677
   12BGLCN   O526069   0.804   2.226   9.551
   12BGLCN   C226070   0.584   2.301   9.618
   12BGLCN   H226071   0.551   2.195   9.622
   12BGLCN    N26072   0.472   2.386   9.578
   12BGLCN   HN26073   0.492   2.481   9.556
   12BGLCN    C26074   0.347   2.342   9.557
   12BGLCN    O26075   0.311   2.227   9.579
   12BGLCN   CT26076   0.249   2.443   9.503
   12BGLCN  HT126077   0.183   2.479   9.585
   12BGLCN  HT226078   0.187   2.397   9.424
   12BGLCN  HT326079   0.303   2.531   9.460
   12BGLCN   C326080   0.636   2.336   9.757
   12BGLCN   H326081   0.669   2.442   9.756
   12BGLCN   O326082   0.535   2.317   9.859
   12BGLCN   C426083   0.753   2.244   9.785
   12BGLCN   H426084   0.717   2.139   9.778
   12BGLCN   O426085   0.808   2.263   9.917
   12BGLCN  HO426086   0.817   2.357   9.933
   12BGLCN   C626087   0.985   2.179   9.700
   12BGLCN  H6126088   1.015   2.179   9.807
   12BGLCN  H6226089   0.966   2.073   9.672
   12BGLCN   O626090   1.096   2.230   9.625
   12BGLCN  HO626091   1.079   2.216   9.531
   13AGAL    C126092   0.539   2.409   9.966
   13AGAL    H126093   0.644   2.432   9.995
   13AGAL    C526094   0.337   2.517   9.894
   13AGAL    H526095   0.327   2.441   9.814
   13AGAL    O526096   0.476   2.533   9.929
   13AGAL    C226097   0.467   2.358  10.091
   13AGAL    H226098   0.470   2.441  10.165
   13AGAL    O226099   0.532   2.243  10.151
   13AGAL    C326100   0.321   2.333  10.058
   13AGAL    H326101   0.316   2.261   9.974
   13AGAL    O326102   0.251   2.274  10.167
   13AGAL   HO326103   0.237   2.180  10.151
   13AGAL    C426104   0.258   2.464  10.014
   13AGAL    H426105   0.154   2.444   9.983
   13AGAL    O426106   0.254   2.563  10.117
   13AGAL   HO426107   0.322   2.628  10.096
   13AGAL    C626108   0.283   2.648   9.837
   13AGAL   H6126109   0.326   2.661   9.735
   13AGAL   H6226110   0.173   2.644   9.826
   13AGAL    O626111   0.320   2.764   9.914
   13AGAL   HO626112   0.254   2.787   9.979
   14ARHM    C126113   0.589   2.262  10.280
   14ARHM    H126114   0.633   2.364  10.285
   14ARHM    C526115   0.657   2.035  10.306
   14ARHM    H526116   0.610   2.009  10.207
   14ARHM    O526117   0.699   2.172  10.304
   14ARHM    C226118   0.484   2.247  10.389
   14ARHM    H226119   0.400   2.316  10.367
   14ARHM    O226120   0.530   2.275  10.523
   14ARHM    C326121   0.435   2.105  10.392
   14ARHM    H326122   0.392   2.080  10.293
   14ARHM    O326123   0.331   2.087  10.490
   14ARHM   HO326124   0.370   2.093  10.576
   14ARHM    C426125   0.554   2.012  10.417
   14ARHM    H426126   0.602   2.040  10.512
   14ARHM    O426127   0.516   1.875  10.426
   14ARHM   HO426128   0.528   1.845  10.516
   14ARHM    C626129   0.785   1.952  10.320
   14ARHM   H6126130   0.854   1.972  10.235
   14ARHM   H6226131   0.838   1.978  10.414
   14ARHM   H6326132   0.762   1.843  10.320
   15ARHM    C126133   0.579   2.403  10.549
   15ARHM    H126134   0.542   2.476  10.474
   15ARHM    C526135   0.779   2.316  10.649
   15ARHM    H526136   0.748   2.212  10.627
   15ARHM    O526137   0.723   2.404  10.551
   15ARHM    C226138   0.528   2.443  10.688
   15ARHM    H226139   0.417   2.439  10.686
   15ARHM    O226140   0.569   2.580  10.707
   15ARHM    C326141   0.580   2.345  10.790
   15ARHM    H326142   0.551   2.243  10.756
   15ARHM    O326143   0.518   2.366  10.918
   15ARHM    C426144   0.731   2.354  10.789
   15ARHM    H426145   0.763   2.459  10.808
   15ARHM    O426146   0.791   2.272  10.891
   15ARHM   HO426147   0.884   2.262  10.868
   15ARHM    C626148   0.932   2.324  10.632
   15ARHM   H6126149   0.985   2.252  10.697
   15ARHM   H6226150   0.958   2.300  10.526
   15ARHM   H6326151   0.968   2.427  10.655
   16BMANN   C126152   0.544   2.639  10.830
   16BMANN   H126153   0.611   2.594  10.908
   16BMANN   C526154   0.386   2.681  11.002
   16BMANN   H526155   0.455   2.631  11.075
   16BMANN   O526156   0.408   2.625  10.871
   16BMANN   C226157   0.577   2.787  10.818
   16BMANN   H226158   0.686   2.793  10.792
   16BMANN    N26159   0.501   2.849  10.709
   16BMANN   HN26160   0.402   2.855  10.722
   16BMANN    C26161   0.552   2.890  10.592
   16BMANN    O26162   0.672   2.883  10.566
   16BMANN   CT26163   0.455   2.943  10.490
   16BMANN  HT126164   0.491   3.041  10.452
   16BMANN  HT226165   0.354   2.956  10.535
   16BMANN  HT326166   0.449   2.872  10.405
   16BMANN   C326167   0.559   2.851  10.953
   16BMANN   H326168   0.627   2.801  11.026
   16BMANN   O326169   0.595   2.990  10.951
   16BMANN  HO326170   0.676   3.000  10.901
   16BMANN   C426171   0.416   2.830  11.002
   16BMANN   H426172   0.344   2.882  10.934
   16BMANN   O426173   0.398   2.878  11.135
   16BMANN  HO426174   0.361   2.967  11.135
   16BMANN   C626175   0.244   2.645  11.041
   16BMANN  H6126176   0.222   2.678  11.144
   16BMANN  H6226177   0.173   2.695  10.972
   16BMANN   O626178   0.226   2.503  11.031
   16BMANN  HO626179   0.278   2.477  10.954
   17BGLCN   C126180   0.498   2.248  10.992
   17BGLCN   H126181   0.574   2.171  10.967
   17BGLCN   C526182   0.345   2.074  11.050
   17BGLCN   H526183   0.425   2.001  11.026
   17BGLCN   O526184   0.366   2.195  10.972
   17BGLCN   C226185   0.512   2.289  11.138
   17BGLCN   H226186   0.428   2.358  11.161
   17BGLCN    N26187   0.636   2.363  11.158
   17BGLCN   HN26188   0.708   2.344  11.092
   17BGLCN    C26189   0.654   2.457  11.252
   17BGLCN    O26190   0.566   2.492  11.328
   17BGLCN   CT26191   0.790   2.520  11.256
   17BGLCN  HT126192   0.800   2.596  11.175
   17BGLCN  HT226193   0.869   2.443  11.245
   17BGLCN  HT326194   0.804   2.571  11.354
   17BGLCN   C326195   0.497   2.164  11.224
   17BGLCN   H326196   0.570   2.090  11.186
   17BGLCN   O326197   0.527   2.191  11.363
   17BGLCN   C426198   0.358   2.109  11.199
   17BGLCN   H426199   0.285   2.190  11.221
   17BGLCN   O426200   0.323   1.998  11.280
   17BGLCN  HO426201   0.381   1.924  11.259
   17BGLCN   C626202   0.213   2.009  11.015
   17BGLCN  H6126203   0.194   1.921  11.079
   17BGLCN  H6226204   0.129   2.080  11.031
   17BGLCN   O626205   0.211   1.963  10.878
   17BGLCN  HO626206   0.255   1.878  10.877
   18AGAL    C126207   0.578   2.081  11.437
   18AGAL    H126208   0.498   2.005  11.453
   18AGAL    C526209   0.801   2.104  11.352
   18AGAL    H526210   0.768   2.194  11.297
   18AGAL    O526211   0.687   2.017  11.370
   18AGAL    C226212   0.628   2.120  11.576
   18AGAL    H226213   0.672   2.026  11.616
   18AGAL    O226214   0.523   2.159  11.666
   18AGAL    C326215   0.742   2.221  11.562
   18AGAL    H326216   0.704   2.308  11.503
   18AGAL    O326217   0.787   2.272  11.689
   18AGAL   HO326218   0.821   2.361  11.680
   18AGAL    C426219   0.855   2.153  11.486
   18AGAL    H426220   0.935   2.228  11.467
   18AGAL    O426221   0.915   2.048  11.562
   18AGAL   HO426222   0.947   2.086  11.644
   18AGAL    C626223   0.902   2.032  11.266
   18AGAL   H6126224   0.858   2.013  11.165
   18AGAL   H6226225   0.991   2.097  11.252
   18AGAL    O626226   0.943   1.908  11.321
   18AGAL   HO626227   0.934   1.918  11.416
   19ARHM    C126228   0.546   2.108  11.797
   19ARHM    H126229   0.654   2.107  11.818
   19ARHM    C526230   0.357   1.960  11.795
   19ARHM    H526231   0.330   1.993  11.693
   19ARHM    O526232   0.499   1.973  11.811
   19ARHM    C226233   0.477   2.196  11.898
   19ARHM    H226234   0.504   2.301  11.877
   19ARHM    O226235   0.521   2.164  12.031
   19ARHM    C326236   0.327   2.189  11.884
   19ARHM    H326237   0.298   2.226  11.784
   19ARHM    O326238   0.263   2.273  11.981
   19ARHM   HO326239   0.169   2.258  11.974
   19ARHM    C426240   0.284   2.045  11.898
   19ARHM    H426241   0.312   2.009  11.999
   19ARHM    O426242   0.143   2.029  11.884
   19ARHM   HO426243   0.119   2.044  11.793
   19ARHM    C626244   0.325   1.810  11.807
   19ARHM   H6126245   0.387   1.751  11.736
   19ARHM   H6226246   0.347   1.775  11.911
   19ARHM   H6326247   0.218   1.790  11.786
   20ARHM    C126248   0.651   2.210  12.058
   20ARHM    H126249   0.689   2.272  11.974
   20ARHM    C526250   0.722   2.022  12.189
   20ARHM    H526251   0.621   1.976  12.177
   20ARHM    O526252   0.748   2.105  12.074
   20ARHM    C226253   0.646   2.296  12.182
   20ARHM    H226254   0.560   2.365  12.173
   20ARHM    O226255   0.766   2.374  12.194
   20ARHM    C326256   0.620   2.213  12.304
   20ARHM    H326257   0.519   2.167  12.293
   20ARHM    O326258   0.622   2.301  12.415
   20ARHM    C426259   0.726   2.107  12.315
   20ARHM    H426260   0.825   2.156  12.321
   20ARHM    O426261   0.710   2.028  12.433
   20ARHM   HO426262   0.626   1.982  12.429
   20ARHM    C626263   0.827   1.909  12.186
   20ARHM   H6126264   0.929   1.952  12.191
   20ARHM   H6226265   0.811   1.839  12.270
   20ARHM   H6326266   0.818   1.853  12.090
   21BMANN   C126267   0.762   2.491  12.118
   21BMANN   H126268   0.674   2.491  12.051
   21BMANN   C526269   0.869   2.620  11.950
   21BMANN   H526270   0.774   2.616  11.892
   21BMANN   O526271   0.878   2.504  12.036
   21BMANN   C226272   0.751   2.608  12.214
   21BMANN   H226273   0.654   2.595  12.269
   21BMANN    N26274   0.857   2.609  12.314
   21BMANN   HN26275   0.940   2.560  12.288
   21BMANN    C26276   0.846   2.662  12.436
   21BMANN    O26277   0.744   2.717  12.477
   21BMANN   CT26278   0.968   2.650  12.524
   21BMANN  HT126279   1.047   2.720  12.491
   21BMANN  HT226280   1.007   2.546  12.522
   21BMANN  HT326281   0.940   2.675  12.630
   21BMANN   C326282   0.743   2.733  12.130
   21BMANN   H326283   0.655   2.723  12.064
   21BMANN   O326284   0.717   2.849  12.210
   21BMANN  HO326285   0.784   2.857  12.277
   21BMANN   C426286   0.865   2.744  12.040
   21BMANN   H426287   0.957   2.745  12.102
   21BMANN   O426288   0.863   2.862  11.960
   21BMANN  HO426289   0.927   2.923  11.999
   21BMANN   C626290   0.981   2.616  11.849
   21BMANN  H6126291   0.977   2.706  11.784
   21BMANN  H6226292   1.080   2.616  11.899
   21BMANN   O626293   0.970   2.501  11.765
   21BMANN  HO626294   1.024   2.430  11.801
   22BGLCN   C126295   0.529   2.270  12.515
   22BGLCN   H126296   0.510   2.160  12.520
   22BGLCN   C526297   0.313   2.318  12.597
   22BGLCN   H526298   0.297   2.209  12.611
   22BGLCN   O526299   0.407   2.340  12.491
   22BGLCN   C226300   0.595   2.318  12.641
   22BGLCN   H226301   0.614   2.427  12.631
   22BGLCN    N26302   0.724   2.252  12.656
   22BGLCN   HN26303   0.736   2.170  12.600
   22BGLCN    C26304   0.829   2.300  12.722
   22BGLCN    O26305   0.831   2.408  12.781
   22BGLCN   CT26306   0.950   2.212  12.721
   22BGLCN  HT126307   1.013   2.236  12.634
   22BGLCN  HT226308   0.920   2.105  12.717
   22BGLCN  HT326309   1.009   2.230  12.814
   22BGLCN   C326310   0.499   2.296  12.756
   22BGLCN   H326311   0.472   2.188  12.756
   22BGLCN   O326312   0.564   2.326  12.880
   22BGLCN   C426313   0.373   2.375  12.724
   22BGLCN   H426314   0.403   2.480  12.703
   22BGLCN   O426315   0.278   2.379  12.831
   22BGLCN  HO426316   0.275   2.469  12.863
   22BGLCN   C626317   0.180   2.377  12.557
   22BGLCN  H6126318   0.108   2.363  12.641
   22BGLCN  H6226319   0.193   2.486  12.538
   22BGLCN   O626320   0.126   2.314  12.443
   22BGLCN  HO626321   0.160   2.354  12.363
   23AGAL    C126322   0.510   2.268  12.998
   23AGAL    H126323   0.414   2.318  13.023
   23AGAL    C526324   0.606   2.052  12.960
   23AGAL    H526325   0.655   2.091  12.867
   23AGAL    O526326   0.486   2.127  12.984
   23AGAL    C226327   0.606   2.293  13.111
   23AGAL    H226328   0.560   2.255  13.204
   23AGAL    O226329   0.631   2.434  13.124
   23AGAL    C326330   0.735   2.217  13.089
   23AGAL    H326331   0.781   2.255  12.995
   23AGAL    O326332   0.830   2.240  13.193
   23AGAL   HO326333   0.809   2.179  13.263
   23AGAL    C426334   0.705   2.070  13.075
   23AGAL    H426335   0.799   2.016  13.048
   23AGAL    O426336   0.654   2.012  13.194
   23AGAL   HO426337   0.597   1.941  13.166
   23AGAL    C626338   0.569   1.907  12.932
   23AGAL   H6126339   0.512   1.903  12.836
   23AGAL   H6226340   0.661   1.847  12.918
   23AGAL    O626341   0.489   1.847  13.034
   23AGAL   HO626342   0.398   1.850  13.008
   24ARHM    C126343   0.546   2.504  13.213
   24ARHM    H126344   0.451   2.449  13.224
   24ARHM    C526345   0.624   2.717  13.142
   24ARHM    H526346   0.690   2.672  13.064
   24ARHM    O526347   0.510   2.633  13.161
   24ARHM    C226348   0.618   2.514  13.345
   24ARHM    H226349   0.653   2.412  13.374
   24ARHM    O226350   0.534   2.565  13.449
   24ARHM    C326351   0.742   2.598  13.326
   24ARHM    H326352   0.810   2.549  13.253
   24ARHM    O326353   0.813   2.611  13.450
   24ARHM   HO326354   0.868   2.689  13.440
   24ARHM    C426355   0.702   2.734  13.273
   24ARHM    H426356   0.636   2.784  13.346
   24ARHM    O426357   0.817   2.817  13.252
   24ARHM   HO426358   0.866   2.781  13.177
   24ARHM    C626359   0.569   2.851  13.089
   24ARHM   H6126360   0.651   2.925  13.076
   24ARHM   H6226361   0.521   2.837  12.989
   24ARHM   H6326362   0.494   2.892  13.158
   25ARHM    C126363   0.447   2.471  13.506
   25ARHM    H126364   0.438   2.383  13.439
   25ARHM    C526365   0.311   2.636  13.609
   25ARHM    H526366   0.378   2.715  13.568
   25ARHM    O526367   0.314   2.523  13.522
   25ARHM    C226368   0.503   2.425  13.640
   25ARHM    H226369   0.610   2.399  13.625
   25ARHM    O226370   0.434   2.309  13.690
   25ARHM    C326371   0.501   2.539  13.738
   25ARHM    H326372   0.571   2.618  13.703
   25ARHM    O326373   0.543   2.485  13.863
   25ARHM    C426374   0.360   2.594  13.748
   25ARHM    H426375   0.294   2.515  13.786
   25ARHM    O426376   0.355   2.706  13.836
   25ARHM   HO426377   0.401   2.779  13.794
   25ARHM    C626378   0.167   2.690  13.606
   25ARHM   H6126379   0.137   2.715  13.502
   25ARHM   H6226380   0.096   2.614  13.647
   25ARHM   H6326381   0.160   2.783  13.668
   26BMANN   C126382   0.471   2.189  13.627
   26BMANN   H126383   0.575   2.195  13.586
   26BMANN   C526384   0.413   2.038  13.450
   26BMANN   H526385   0.516   2.050  13.411
   26BMANN   O526386   0.378   2.158  13.522
   26BMANN   C226387   0.465   2.077  13.728
   26BMANN   H226388   0.540   2.101  13.807
   26BMANN    N26389   0.335   2.067  13.794
   26BMANN   HN26390   0.260   2.111  13.745
   26BMANN    C26391   0.315   2.005  13.911
   26BMANN    O26392   0.406   1.955  13.977
   26BMANN   CT26393   0.173   1.997  13.960
   26BMANN  HT126394   0.104   1.991  13.873
   26BMANN  HT226395   0.150   2.086  14.023
   26BMANN  HT326396   0.161   1.906  14.023
   26BMANN   C326397   0.508   1.949  13.658
   26BMANN   H326398   0.609   1.965  13.616
   26BMANN   O326399   0.519   1.839  13.748
   26BMANN  HO326400   0.538   1.873  13.835
   26BMANN   C426401   0.412   1.919  13.545
   26BMANN   H426402   0.309   1.906  13.586
   26BMANN   O426403   0.446   1.798  13.477
   26BMANN  HO426404   0.507   1.751  13.534
   26BMANN   C626405   0.321   2.023  13.331
   26BMANN  H6126406   0.317   2.119  13.274
   26BMANN  H6226407   0.362   1.947  13.260
   26BMANN   O626408   0.188   1.984  13.366
   26BMANN  HO626409   0.187   1.890  13.387
   27BGLCN   C126410   0.619   2.568  13.946
   27BGLCN   H126411   0.579   2.671  13.946
   27BGLCN   C526412   0.839   2.648  13.992
   27BGLCN   H526413   0.802   2.752  13.988
   27BGLCN   O526414   0.757   2.566  13.908
   27BGLCN   C226415   0.610   2.508  14.086
   27BGLCN   H226416   0.662   2.410  14.081
   27BGLCN    N26417   0.474   2.483  14.130
   27BGLCN   HN26418   0.404   2.549  14.104
   27BGLCN    C26419   0.438   2.376  14.204
   27BGLCN    O26420   0.518   2.290  14.241
   27BGLCN   CT26421   0.293   2.365  14.243
   27BGLCN  HT126422   0.238   2.458  14.217
   27BGLCN  HT226423   0.286   2.349  14.353
   27BGLCN  HT326424   0.248   2.278  14.190
   27BGLCN   C326425   0.689   2.596  14.182
   27BGLCN   H326426   0.648   2.699  14.168
   27BGLCN   O326427   0.665   2.554  14.318
   27BGLCN   C426428   0.833   2.598  14.137
   27BGLCN   H426429   0.873   2.494  14.140
   27BGLCN   O426430   0.917   2.679  14.218
   27BGLCN  HO426431   0.869   2.757  14.246
   27BGLCN   C626432   0.979   2.645  13.936
   27BGLCN  H6126433   1.047   2.704  14.002
   27BGLCN  H6226434   1.016   2.540  13.934
   27BGLCN   O626435   0.986   2.700  13.804
   27BGLCN  HO626436   0.948   2.636  13.742
   28AGAL    C126437   0.691   2.648  14.419
   28AGAL    H126438   0.801   2.655  14.434
   28AGAL    C526439   0.498   2.785  14.379
   28AGAL    H526440   0.463   2.708  14.307
   28AGAL    O526441   0.642   2.780  14.384
   28AGAL    C226442   0.634   2.606  14.553
   28AGAL    H226443   0.668   2.685  14.623
   28AGAL    O226444   0.683   2.477  14.598
   28AGAL    C326445   0.482   2.608  14.550
   28AGAL    H326446   0.449   2.539  14.470
   28AGAL    O326447   0.423   2.561  14.672
   28AGAL   HO326448   0.409   2.466  14.668
   28AGAL    C426449   0.437   2.749  14.515
   28AGAL    H426450   0.326   2.750  14.505
   28AGAL    O426451   0.473   2.845  14.615
   28AGAL   HO426452   0.394   2.879  14.658
   28AGAL    C626453   0.454   2.918  14.321
   28AGAL   H6126454   0.499   2.931  14.220
   28AGAL   H6226455   0.343   2.918  14.307
   28AGAL    O626456   0.489   3.031  14.401
   28AGAL   HO626457   0.537   2.997  14.477
   29ARHM    C126458   0.734   2.478  14.729
   29ARHM    H126459   0.700   2.569  14.784
   29ARHM    C526460   0.930   2.354  14.669
   29ARHM    H526461   0.895   2.349  14.564
   29ARHM    O526462   0.877   2.473  14.730
   29ARHM    C226463   0.680   2.358  14.806
   29ARHM    H226464   0.570   2.360  14.794
   29ARHM    O226465   0.714   2.368  14.946
   29ARHM    C326466   0.730   2.230  14.745
   29ARHM    H326467   0.694   2.223  14.640
   29ARHM    O326468   0.679   2.117  14.816
   29ARHM   HO326469   0.732   2.041  14.793
   29ARHM    C426470   0.881   2.231  14.745
   29ARHM    H426471   0.917   2.239  14.850
   29ARHM    O426472   0.936   2.111  14.690
   29ARHM   HO426473   0.919   2.106  14.596
   29ARHM    C626474   1.082   2.372  14.669
   29ARHM   H6126475   1.109   2.462  14.609
   29ARHM   H6226476   1.120   2.385  14.773
   29ARHM   H6326477   1.132   2.283  14.624
   30ARHM    C126478   0.600   2.387  15.026
   30ARHM    H126479   0.524   2.311  14.999
   30ARHM    C526480   0.636   2.623  15.046
   30ARHM    H526481   0.729   2.616  14.986
   30ARHM    O526482   0.545   2.518  15.010
   30ARHM    C226483   0.639   2.367  15.172
   30ARHM    H226484   0.687   2.268  15.183
   30ARHM    O226485   0.526   2.377  15.259
   30ARHM    C326486   0.735   2.475  15.214
   30ARHM    H326487   0.823   2.469  15.147
   30ARHM    O326488   0.785   2.447  15.347
   30ARHM    C426489   0.674   2.612  15.193
   30ARHM    H426490   0.581   2.624  15.253
   30ARHM    O426491   0.766   2.713  15.232
   30ARHM   HO426492   0.806   2.684  15.314
   30ARHM    C626493   0.566   2.755  15.009
   30ARHM   H6126494   0.631   2.842  15.032
   30ARHM   H6226495   0.543   2.756  14.900
   30ARHM   H6326496   0.470   2.766  15.065
   31BMANN   C126497   0.447   2.262  15.275
   31BMANN   H126498   0.510   2.172  15.293
   31BMANN   C526499   0.271   2.133  15.178
   31BMANN   H526500   0.330   2.042  15.198
   31BMANN   O526501   0.360   2.245  15.163
   31BMANN   C226502   0.362   2.293  15.397
   31BMANN   H226503   0.430   2.297  15.484
   31BMANN    N26504   0.302   2.426  15.385
   31BMANN   HN26505   0.306   2.465  15.293
   31BMANN    C26506   0.260   2.501  15.486
   31BMANN    O26507   0.246   2.456  15.600
   31BMANN   CT26508   0.231   2.645  15.456
   31BMANN  HT126509   0.197   2.656  15.351
   31BMANN  HT226510   0.323   2.706  15.470
   31BMANN  HT326511   0.153   2.684  15.524
   31BMANN   C326512   0.266   2.178  15.420
   31BMANN   H326513   0.326   2.086  15.433
   31BMANN   O326514   0.190   2.195  15.540
   31BMANN  HO326515   0.199   2.286  15.568
   31BMANN   C426516   0.179   2.158  15.297
   31BMANN   H426517   0.120   2.250  15.278
   31BMANN   O426518   0.088   2.050  15.315
   31BMANN  HO426519   0.080   2.035  15.409
   31BMANN   C626520   0.198   2.112  15.047
   31BMANN  H6126521   0.132   2.023  15.055
   31BMANN  H6226522   0.133   2.200  15.026
   31BMANN   O626523   0.288   2.094  14.937
   31BMANN  HO626524   0.368   2.053  14.968
   32BGLCN   C126525   0.711   2.499  15.455
   32BGLCN   H126526   0.602   2.502  15.432
   32BGLCN   C526527   0.677   2.687  15.596
   32BGLCN   H526528   0.570   2.690  15.565
   32BGLCN   O526529   0.755   2.630  15.490
   32BGLCN   C226530   0.730   2.406  15.573
   32BGLCN   H226531   0.836   2.415  15.606
   32BGLCN    N26532   0.709   2.268  15.531
   32BGLCN   HN26533   0.655   2.255  15.449
   32BGLCN    C26534   0.775   2.162  15.581
   32BGLCN    O26535   0.847   2.167  15.679
   32BGLCN   CT26536   0.755   2.032  15.509
   32BGLCN  HT126537   0.703   2.048  15.412
   32BGLCN  HT226538   0.697   1.961  15.572
   32BGLCN  HT326539   0.855   1.987  15.488
   32BGLCN   C326540   0.641   2.457  15.686
   32BGLCN   H326541   0.538   2.463  15.644
   32BGLCN   O326542   0.637   2.371  15.801
   32BGLCN   C426543   0.687   2.598  15.719
   32BGLCN   H426544   0.794   2.593  15.751
   32BGLCN   O426545   0.614   2.656  15.826
   32BGLCN  HO426546   0.677   2.704  15.881
   32BGLCN   C626547   0.724   2.830  15.615
   32BGLCN  H6126548   0.669   2.876  15.701
   32BGLCN  H6226549   0.832   2.831  15.641
   32BGLCN   O626550   0.700   2.909  15.498
   32BGLCN  HO626551   0.739   2.863  15.423
   33AGAL    C126552   0.507   2.355  15.854
   33AGAL    H126553   0.448   2.448  15.842
   33AGAL    C526554   0.501   2.120  15.808
   33AGAL    H526555   0.608   2.130  15.781
   33AGAL    O526556   0.438   2.248  15.786
   33AGAL    C226557   0.510   2.322  16.003
   33AGAL    H226558   0.404   2.313  16.035
   33AGAL    O226559   0.570   2.430  16.076
   33AGAL    C326560   0.579   2.189  16.029
   33AGAL    H326561   0.682   2.195  15.988
   33AGAL    O326562   0.593   2.157  16.168
   33AGAL   HO326563   0.516   2.106  16.196
   33AGAL    C426564   0.502   2.081  15.956
   33AGAL    H426565   0.558   1.985  15.965
   33AGAL    O426566   0.371   2.062  16.009
   33AGAL   HO426567   0.376   2.000  16.082
   33AGAL    C626568   0.446   2.014  15.714
   33AGAL   H6126569   0.471   2.042  15.609
   33AGAL   H6226570   0.496   1.917  15.734
   33AGAL    O626571   0.305   1.994  15.722
   33AGAL   HO626572   0.260   2.073  15.689
   34ARHM    C126573   0.505   2.462  16.197
   34ARHM    H126574   0.490   2.369  16.256
   34ARHM    C526575   0.388   2.646  16.098
   34ARHM    H526576   0.433   2.622  16.000
   34ARHM    O526577   0.378   2.526  16.175
   34ARHM    C226578   0.598   2.556  16.272
   34ARHM    H226579   0.698   2.508  16.277
   34ARHM    O226580   0.558   2.589  16.407
   34ARHM    C326581   0.612   2.684  16.193
   34ARHM    H326582   0.652   2.654  16.093
   34ARHM    O326583   0.708   2.773  16.250
   34ARHM   HO326584   0.770   2.792  16.179
   34ARHM    C426585   0.477   2.748  16.169
   34ARHM    H426586   0.431   2.772  16.267
   34ARHM    O426587   0.486   2.869  16.093
   34ARHM   HO426588   0.577   2.878  16.064
   34ARHM    C626589   0.245   2.694  16.072
   34ARHM   H6126590   0.194   2.716  16.168
   34ARHM   H6226591   0.246   2.787  16.010
   34ARHM   H6326592   0.188   2.616  16.018
   35ARHM    C126593   0.560   2.481  16.497
   35ARHM    H126594   0.650   2.418  16.479
   35ARHM    C526595   0.323   2.479  16.498
   35ARHM    H526596   0.323   2.563  16.425
   35ARHM    O526597   0.442   2.401  16.482
   35ARHM    C226598   0.563   2.537  16.638
   35ARHM    H226599   0.651   2.604  16.646
   35ARHM    O226600   0.571   2.438  16.742
   35ARHM    C326601   0.439   2.620  16.663
   35ARHM    H326602   0.438   2.706  16.592
   35ARHM    O326603   0.442   2.675  16.795
   35ARHM   HO326604   0.465   2.602  16.854
   35ARHM    C426605   0.317   2.534  16.639
   35ARHM    H426606   0.320   2.447  16.709
   35ARHM    O426607   0.195   2.605  16.664
   35ARHM   HO426608   0.214   2.699  16.662
   35ARHM    C626609   0.208   2.385  16.458
   35ARHM   H6126610   0.232   2.336  16.361
   35ARHM   H6226611   0.192   2.307  16.535
   35ARHM   H6326612   0.115   2.445  16.444
   36BMANN   C126613   0.687   2.360  16.741
   36BMANN   H126614   0.774   2.419  16.706
   36BMANN   C526615   0.785   2.155  16.664
   36BMANN   H526616   0.870   2.215  16.625
   36BMANN   O526617   0.669   2.241  16.663
   36BMANN   C226618   0.707   2.316  16.885
   36BMANN   H226619   0.722   2.408  16.946
   36BMANN    N26620   0.588   2.248  16.935
   36BMANN   HN26621   0.524   2.222  16.864
   36BMANN    C26622   0.560   2.222  17.063
   36BMANN    O26623   0.633   2.255  17.155
   36BMANN   CT26624   0.431   2.148  17.088
   36BMANN  HT126625   0.435   2.049  17.038
   36BMANN  HT226626   0.345   2.206  17.049
   36BMANN  HT326627   0.419   2.132  17.198
   36BMANN   C326628   0.835   2.233  16.891
   36BMANN   H326629   0.918   2.294  16.849
   36BMANN   O326630   0.872   2.201  17.025
   36BMANN  HO326631   0.797   2.216  17.083
   36BMANN   C426632   0.817   2.110  16.806
   36BMANN   H426633   0.733   2.050  16.846
   36BMANN   O426634   0.934   2.028  16.807
   36BMANN  HO426635   0.982   2.051  16.887
   36BMANN   C626636   0.761   2.041  16.565
   36BMANN  H6126637   0.688   2.072  16.488
   36BMANN  H6226638   0.856   2.018  16.512
   36BMANN   O626639   0.717   1.921  16.629
   36BMANN  HO626640   0.792   1.890  16.681
    1ECLIP HB6S26641   8.027   3.787   6.648
    1ECLIP  OB626642   8.109   3.921   6.781
    1ECLIP  CB626643   8.006   3.889   6.684
    1ECLIP HB6R26644   7.906   3.886   6.733
    1ECLIP  CB526645   7.990   3.980   6.564
    1ECLIP  OB526646   8.121   3.994   6.511
    1ECLIP  HB526647   7.950   4.079   6.595
    1ECLIP  CB126648   8.128   4.083   6.400
    1ECLIP  HB126649   8.095   4.184   6.429
    1ECLIP  OA626650   8.259   4.088   6.352
    1ECLIP  CA626651   8.331   3.966   6.372
    1ECLIP HA6R26652   8.265   3.877   6.379
    1ECLIP HA6S26653   8.388   3.974   6.467
    1ECLIP  CB426654   7.902   3.919   6.454
    1ECLIP  HB426655   7.952   3.825   6.422
    1ECLIP  OB426656   7.770   3.897   6.509
    1ECLIP   PB26657   7.710   3.746   6.530
    1ECLIP OPB426658   7.601   3.739   6.634
    1ECLIP OPB326659   7.830   3.659   6.563
    1ECLIP OPB226660   7.671   3.697   6.391
    1ECLIP  CB326661   7.902   4.011   6.333
    1ECLIP  OB326662   7.832   3.946   6.226
    1ECLIP  HB326663   7.861   4.110   6.365
    1ECLIP  C7126664   7.732   4.016   6.170
    1ECLIP  O7126665   7.697   4.127   6.204
    1ECLIP  C7226666   7.711   3.970   6.026
    1ECLIP H72R26667   7.787   4.020   5.962
    1ECLIP H72S26668   7.611   4.009   5.997
    1ECLIP  CB226669   8.045   4.030   6.285
    1ECLIP  HB226670   8.084   3.929   6.260
    1ECLIP  NB226671   8.059   4.114   6.164
    1ECLIP HNB226672   8.061   4.213   6.179
    1ECLIP  CA426673   8.487   4.070   6.207
    1ECLIP  HA426674   8.407   4.140   6.177
    1ECLIP  OA426675   8.561   4.125   6.316
    1ECLIP HOA426676   8.503   4.187   6.360
    1ECLIP  CA526677   8.424   3.943   6.257
    1ECLIP  HA526678   8.503   3.872   6.290
    1ECLIP  OA526679   8.346   3.887   6.151
    1ECLIP  CA126680   8.423   3.849   6.036
    1ECLIP  HA126681   8.353   3.805   5.962
    1ECLIP  OA126682   8.526   3.757   6.062
    1ECLIP OPA226683   8.589   3.646   6.270
    1ECLIP OPA326684   8.367   3.574   6.158
    1ECLIP OPA426685   8.606   3.529   6.064
    1ECLIP   PA26686   8.511   3.617   6.142
    1ECLIP  CA326687   8.572   4.041   6.087
    1ECLIP  HA326688   8.650   3.968   6.117
    1ECLIP  OA326689   8.644   4.156   6.038
    1ECLIP  C3126690   8.576   4.262   5.990
    1ECLIP  O3126691   8.617   4.314   5.884
    1ECLIP  C3226692   8.566   4.364   6.103
    1ECLIP H32R26693   8.651   4.435   6.087
    1ECLIP H32S26694   8.591   4.322   6.202
    1ECLIP  CA226695   8.487   3.974   5.977
    1ECLIP  HA226696   8.406   4.044   5.947
    1ECLIP  NA226697   8.567   3.942   5.859
    1ECLIP HNA226698   8.665   3.938   5.874
    1ECLIP  C7326699   7.716   3.818   6.007
    1ECLIP H73R26700   7.680   3.768   6.099
    1ECLIP  O7326701   7.848   3.781   5.969
    1ECLIP  C8126702   7.923   3.711   6.052
    1ECLIP  O8126703   7.881   3.659   6.156
    1ECLIP  C8226704   8.034   3.644   5.974
    1ECLIP H82R26705   8.094   3.584   6.046
    1ECLIP H82S26706   8.101   3.721   5.932
    1ECLIP  C8326707   7.978   3.553   5.863
    1ECLIP H83R26708   7.926   3.616   5.788
    1ECLIP H83S26709   7.904   3.481   5.905
    1ECLIP  C8426710   8.091   3.476   5.794
    1ECLIP H84R26711   8.062   3.370   5.782
    1ECLIP H84S26712   8.182   3.479   5.858
    1ECLIP  C8526713   8.122   3.537   5.658
    1ECLIP H85R26714   8.148   3.644   5.674
    1ECLIP H85S26715   8.030   3.533   5.596
    1ECLIP  C8626716   8.238   3.468   5.585
    1ECLIP H86R26717   8.207   3.366   5.557
    1ECLIP H86S26718   8.325   3.460   5.653
    1ECLIP  C8726719   8.281   3.546   5.459
    1ECLIP H87R26720   8.349   3.482   5.398
    1ECLIP H87S26721   8.339   3.635   5.492
    1ECLIP  C8826722   8.162   3.594   5.377
    1ECLIP H88R26723   8.105   3.668   5.436
    1ECLIP H88S26724   8.094   3.509   5.354
    1ECLIP  C8926725   8.201   3.664   5.245
    1ECLIP H89R26726   8.280   3.740   5.266
    1ECLIP H89S26727   8.111   3.719   5.212
    1ECLIP C81026728   8.247   3.567   5.136
    1ECLIPH810R26729   8.203   3.467   5.155
    1ECLIPH810S26730   8.357   3.555   5.142
    1ECLIP C81126731   8.207   3.615   4.995
    1ECLIPH811R26732   8.255   3.548   4.921
    1ECLIPH811S26733   8.248   3.717   4.980
    1ECLIP C81226734   8.055   3.617   4.969
    1ECLIPH812R26735   8.037   3.646   4.865
    1ECLIPH812S26736   8.007   3.696   5.032
    1ECLIP C81326737   7.982   3.485   4.998
    1ECLIPH813R26738   8.035   3.402   4.946
    1ECLIPH813S26739   7.988   3.463   5.108
    1ECLIP C81426740   7.834   3.486   4.957
    1ECLIPH814R26741   7.824   3.515   4.851
    1ECLIPH814S26742   7.778   3.559   5.019
    1ECLIPH814T26743   7.789   3.386   4.971
    1ECLIP  C7426744   7.624   3.774   5.891
    1ECLIP H74R26745   7.524   3.819   5.905
    1ECLIP H74S26746   7.614   3.664   5.900
    1ECLIP  C7526747   7.674   3.803   5.747
    1ECLIP H75R26748   7.638   3.719   5.683
    1ECLIP H75S26749   7.785   3.802   5.743
    1ECLIP  C7626750   7.622   3.932   5.684
    1ECLIP H76R26751   7.659   4.021   5.740
    1ECLIP H76S26752   7.511   3.934   5.688
    1ECLIP  C7726753   7.667   3.940   5.537
    1ECLIP H77R26754   7.639   3.845   5.487
    1ECLIP H77S26755   7.778   3.949   5.535
    1ECLIP  C7826756   7.607   4.057   5.458
    1ECLIP H78R26757   7.497   4.042   5.450
    1ECLIP H78S26758   7.623   4.152   5.514
    1ECLIP  C7926759   7.668   4.072   5.318
    1ECLIP H79R26760   7.771   4.112   5.327
    1ECLIP H79S26761   7.610   4.148   5.260
    1ECLIP C71026762   7.673   3.942   5.236
    1ECLIPH710R26763   7.757   3.879   5.273
    1ECLIPH710S26764   7.579   3.885   5.253
    1ECLIP C71126765   7.690   3.967   5.087
    1ECLIPH711R26766   7.600   4.022   5.050
    1ECLIPH711S26767   7.778   4.033   5.070
    1ECLIP C71226768   7.709   3.838   5.006
    1ECLIPH712R26769   7.622   3.771   5.023
    1ECLIPH712S26770   7.798   3.785   5.049
    1ECLIP C71326771   7.729   3.858   4.856
    1ECLIPH713R26772   7.828   3.906   4.842
    1ECLIPH713S26773   7.734   3.758   4.807
    1ECLIP C71426774   7.623   3.943   4.785
    1ECLIPH714R26775   7.522   3.900   4.800
    1ECLIPH714S26776   7.623   4.047   4.826
    1ECLIPH714T26777   7.644   3.949   4.676
    1ECLIP  C5126778   8.078   4.066   6.039
    1ECLIP  O5126779   8.078   3.946   6.017
    1ECLIP  C5226780   8.097   4.166   5.925
    1ECLIP H52R26781   8.002   4.222   5.912
    1ECLIP H52S26782   8.178   4.237   5.957
    1ECLIP  C5326783   8.137   4.100   5.789
    1ECLIP H53R26784   8.223   4.032   5.806
    1ECLIP  O5326785   8.167   4.204   5.695
    1ECLIP  C6126786   8.294   4.231   5.670
    1ECLIP  O6126787   8.387   4.205   5.745
    1ECLIP  C6226788   8.299   4.339   5.561
    1ECLIP H62R26789   8.306   4.438   5.610
    1ECLIP H62S26790   8.204   4.335   5.504
    1ECLIP  C6326791   8.418   4.322   5.462
    1ECLIP H63R26792   8.416   4.221   5.418
    1ECLIP H63S26793   8.513   4.332   5.520
    1ECLIP  C6426794   8.419   4.425   5.348
    1ECLIP H64R26795   8.518   4.422   5.297
    1ECLIP H64S26796   8.405   4.527   5.389
    1ECLIP  C6526797   8.310   4.397   5.242
    1ECLIP H65R26798   8.212   4.397   5.294
    1ECLIP H65S26799   8.325   4.296   5.200
    1ECLIP  C6626800   8.302   4.503   5.130
    1ECLIP H66R26801   8.288   4.603   5.176
    1ECLIP H66S26802   8.211   4.482   5.069
    1ECLIP  C6726803   8.421   4.505   5.033
    1ECLIP H67R26804   8.513   4.534   5.089
    1ECLIP H67S26805   8.401   4.582   4.957
    1ECLIP  C6826806   8.444   4.371   4.964
    1ECLIP H68R26807   8.348   4.335   4.920
    1ECLIP H68S26808   8.476   4.297   5.040
    1ECLIP  C6926809   8.551   4.378   4.855
    1ECLIP H69R26810   8.641   4.429   4.896
    1ECLIP H69S26811   8.513   4.440   4.771
    1ECLIP C61026812   8.589   4.238   4.808
    1ECLIPH610R26813   8.497   4.185   4.774
    1ECLIPH610S26814   8.630   4.183   4.895
    1ECLIP C61126815   8.694   4.236   4.697
    1ECLIPH611R26816   8.783   4.293   4.731
    1ECLIPH611S26817   8.726   4.130   4.682
    1ECLIP C61226818   8.645   4.292   4.563
    1ECLIPH612R26819   8.556   4.237   4.528
    1ECLIPH612S26820   8.618   4.400   4.575
    1ECLIPH612T26821   8.725   4.284   4.487
    1ECLIP  C5426822   8.022   4.019   5.723
    1ECLIP H54R26823   7.933   4.083   5.714
    1ECLIP H54S26824   7.996   3.935   5.792
    1ECLIP  C5526825   8.056   3.956   5.587
    1ECLIP H55R26826   7.986   3.871   5.569
    1ECLIP H55S26827   8.159   3.912   5.590
    1ECLIP  C5626828   8.044   4.050   5.464
    1ECLIP H56R26829   8.121   4.130   5.471
    1ECLIP H56S26830   7.945   4.100   5.466
    1ECLIP  C5726831   8.063   3.978   5.330
    1ECLIP H57R26832   7.986   3.899   5.321
    1ECLIP H57S26833   8.163   3.928   5.332
    1ECLIP  C5826834   8.056   4.070   5.207
    1ECLIP H58R26835   7.958   4.122   5.205
    1ECLIP H58S26836   8.136   4.147   5.214
    1ECLIP  C5926837   8.073   3.990   5.075
    1ECLIP H59R26838   7.999   3.908   5.076
    1ECLIP H59S26839   8.174   3.943   5.075
    1ECLIP C51026840   8.054   4.071   4.945
    1ECLIPH510R26841   8.119   4.161   4.946
    1ECLIPH510S26842   7.948   4.104   4.941
    1ECLIP C51126843   8.085   3.985   4.821
    1ECLIPH511R26844   8.195   3.979   4.807
    1ECLIPH511S26845   8.050   3.882   4.844
    1ECLIP C51226846   8.018   4.028   4.690
    1ECLIPH512R26847   8.021   3.941   4.622
    1ECLIPH512S26848   7.911   4.051   4.708
    1ECLIP C51326849   8.083   4.146   4.617
    1ECLIPH513R26850   8.192   4.132   4.608
    1ECLIPH513S26851   8.069   4.238   4.679
    1ECLIP C51426852   8.023   4.165   4.477
    1ECLIPH514R26853   7.912   4.169   4.483
    1ECLIPH514S26854   8.058   4.259   4.429
    1ECLIPH514T26855   8.051   4.080   4.411
    1ECLIP  C3326856   8.435   4.447   6.109
    1ECLIP H33R26857   8.456   4.544   6.157
    1ECLIP  O3326858   8.344   4.374   6.189
    1ECLIP HO3326859   8.273   4.428   6.224
    1ECLIP  C3426860   8.368   4.471   5.972
    1ECLIP H34R26861   8.352   4.373   5.922
    1ECLIP H34S26862   8.435   4.533   5.910
    1ECLIP  C3526863   8.230   4.541   5.979
    1ECLIP H35R26864   8.241   4.648   6.006
    1ECLIP H35S26865   8.169   4.493   6.058
    1ECLIP  C3626866   8.153   4.526   5.847
    1ECLIP H36R26867   8.189   4.434   5.797
    1ECLIP H36S26868   8.174   4.612   5.780
    1ECLIP  C3726869   8.002   4.506   5.865
    1ECLIP H37R26870   7.955   4.605   5.885
    1ECLIP H37S26871   7.982   4.443   5.955
    1ECLIP  C3826872   7.935   4.439   5.745
    1ECLIP H38R26873   7.974   4.336   5.731
    1ECLIP H38S26874   7.826   4.428   5.763
    1ECLIP  C3926875   7.959   4.515   5.615
    1ECLIP H39R26876   8.066   4.504   5.587
    1ECLIP H39S26877   7.942   4.624   5.631
    1ECLIP C31026878   7.873   4.467   5.498
    1ECLIPH310R26879   7.785   4.533   5.487
    1ECLIPH310S26880   7.836   4.364   5.519
    1ECLIP C31126881   7.955   4.463   5.368
    1ECLIPH311R26882   8.010   4.559   5.356
    1ECLIPH311S26883   8.028   4.380   5.379
    1ECLIP C31226884   7.869   4.437   5.245
    1ECLIPH312R26885   7.810   4.345   5.262
    1ECLIPH312S26886   7.799   4.523   5.233
    1ECLIP C31326887   7.952   4.421   5.117
    1ECLIPH313R26888   7.998   4.519   5.094
    1ECLIPH313S26889   8.033   4.348   5.137
    1ECLIP C31426890   7.870   4.371   4.998
    1ECLIPH314R26891   7.794   4.447   4.969
    1ECLIPH314S26892   7.937   4.352   4.911
    1ECLIPH314T26893   7.818   4.277   5.023
    1ECLIP  C1126894   8.516   3.892   5.745
    1ECLIP  O1126895   8.397   3.900   5.715
    1ECLIP  C1226896   8.612   3.819   5.655
    1ECLIP H12R26897   8.601   3.710   5.676
    1ECLIP H12S26898   8.716   3.849   5.679
    1ECLIP  C1326899   8.580   3.847   5.509
    1ECLIP H13R26900   8.474   3.818   5.486
    1ECLIP  O1326901   8.665   3.766   5.431
    1ECLIP HO1326902   8.652   3.773   5.337
    1ECLIP  C1426903   8.603   3.994   5.467
    1ECLIP H14R26904   8.701   4.026   5.507
    1ECLIP H14S26905   8.525   4.056   5.516
    1ECLIP  C1526906   8.603   4.021   5.315
    1ECLIP H15R26907   8.690   3.968   5.270
    1ECLIP H15S26908   8.619   4.129   5.299
    1ECLIP  C1626909   8.474   3.978   5.242
    1ECLIP H16R26910   8.392   4.045   5.275
    1ECLIP H16S26911   8.446   3.875   5.270
    1ECLIP  C1726912   8.487   3.985   5.089
    1ECLIP H17R26913   8.540   4.079   5.062
    1ECLIP H17S26914   8.384   3.991   5.047
    1ECLIP  C1826915   8.560   3.865   5.028
    1ECLIP H18R26916   8.659   3.854   5.078
    1ECLIP H18S26917   8.502   3.773   5.050
    1ECLIP  C1926918   8.583   3.876   4.877
    1ECLIP H19R26919   8.638   3.785   4.841
    1ECLIP H19S26920   8.649   3.963   4.856
    1ECLIP C11026921   8.453   3.889   4.796
    1ECLIPH110R26922   8.394   3.796   4.811
    1ECLIPH110S26923   8.395   3.974   4.837
    1ECLIP C11126924   8.472   3.915   4.646
    1ECLIPH111R26925   8.497   4.022   4.629
    1ECLIPH111S26926   8.560   3.856   4.611
    1ECLIP C11226927   8.347   3.878   4.565
    1ECLIPH112R26928   8.320   3.772   4.583
    1ECLIPH112S26929   8.261   3.938   4.602
    1ECLIP C11326930   8.361   3.901   4.414
    1ECLIPH113R26931   8.374   4.010   4.395
    1ECLIPH113S26932   8.453   3.850   4.379
    1ECLIP C11426933   8.241   3.849   4.333
    1ECLIPH114R26934   8.229   3.740   4.348
    1ECLIPH114S26935   8.148   3.898   4.367
    1ECLIPH114T26936   8.255   3.869   4.226
    2AKDO    C126937   8.049   4.148   6.829
    2AKDO   O1126938   7.948   4.213   6.866
    2AKDO   O1226939   8.157   4.195   6.781
    2AKDO    C226940   8.064   4.004   6.887
    2AKDO    C626941   7.969   3.813   6.998
    2AKDO    H626942   8.016   3.754   6.917
    2AKDO    O626943   7.946   3.947   6.950
    2AKDO    C326944   8.172   4.005   6.995
    2AKDO   H3126945   8.136   4.071   7.076
    2AKDO   H3226946   8.264   4.050   6.952
    2AKDO    C426947   8.202   3.872   7.052
    2AKDO    H426948   8.237   3.805   6.971
    2AKDO    O426949   8.303   3.885   7.153
    2AKDO    C526950   8.074   3.812   7.112
    2AKDO    H526951   8.098   3.706   7.129
    2AKDO    O526952   8.034   3.873   7.238
    2AKDO    C726953   7.835   3.745   7.021
    2AKDO    H726954   7.773   3.803   7.092
    2AKDO    O726955   7.854   3.609   7.066
    2AKDO   HO726956   7.791   3.565   7.009
    2AKDO    C826957   7.760   3.739   6.891
    2AKDO   H8126958   7.736   3.842   6.856
    2AKDO   H8226959   7.824   3.692   6.811
    2AKDO    O826960   7.637   3.666   6.896
    2AKDO   HO826961   7.600   3.687   6.811
    3AKDO    C126962   8.508   3.839   7.017
    3AKDO   O1126963   8.467   3.854   6.899
    3AKDO   O1226964   8.577   3.742   7.061
    3AKDO    C226965   8.438   3.926   7.127
    3AKDO    C626966   8.407   4.162   7.186
    3AKDO    H626967   8.297   4.153   7.190
    3AKDO    O626968   8.460   4.065   7.091
    3AKDO    C326969   8.499   3.904   7.266
    3AKDO   H3126970   8.609   3.922   7.259
    3AKDO   H3226971   8.483   3.799   7.297
    3AKDO    C426972   8.440   3.996   7.368
    3AKDO    H426973   8.331   3.977   7.373
    3AKDO    O426974   8.493   3.965   7.495
    3AKDO   HO426975   8.466   4.036   7.556
    3AKDO    C526976   8.466   4.139   7.325
    3AKDO    H526977   8.410   4.205   7.394
    3AKDO    O526978   8.605   4.175   7.332
    3AKDO   HO526979   8.652   4.130   7.262
    3AKDO    C726980   8.440   4.302   7.131
    3AKDO    H726981   8.550   4.308   7.115
    3AKDO    O726982   8.402   4.403   7.226
    3AKDO   HO726983   8.350   4.467   7.177
    3AKDO    C826984   8.371   4.329   6.999
    3AKDO   H8126985   8.388   4.243   6.929
    3AKDO   H8226986   8.261   4.336   7.012
    3AKDO    O826987   8.421   4.450   6.938
    3AKDO   HO826988   8.361   4.516   6.974
    4AHEP    C126989   7.954   3.793   7.325
    4AHEP    H126990   7.853   3.788   7.278
    4AHEP    C526991   8.126   3.645   7.400
    4AHEP    H526992   8.200   3.714   7.353
    4AHEP    O526993   8.001   3.658   7.332
    4AHEP    C226994   7.928   3.843   7.469
    4AHEP    H226995   7.902   3.951   7.459
    4AHEP    O226996   7.817   3.778   7.531
    4AHEP   HO226997   7.740   3.811   7.484
    4AHEP    C326998   8.052   3.833   7.554
    4AHEP    H326999   8.131   3.904   7.520
    4AHEP    O327000   8.014   3.854   7.693
    4AHEP    C427001   8.101   3.690   7.544
    4AHEP    H427002   8.019   3.622   7.575
    4AHEP    O427003   8.218   3.677   7.627
    4AHEP    P427004   8.210   3.583   7.759
    4AHEP  OP4227005   8.286   3.650   7.872
    4AHEP  OP4327006   8.280   3.455   7.717
    4AHEP  OP4427007   8.061   3.558   7.786
    4AHEP    C627008   8.177   3.500   7.380
    4AHEP    H627009   8.288   3.506   7.377
    4AHEP    O627010   8.141   3.414   7.490
    4AHEP   HO627011   8.180   3.454   7.568
    4AHEP    C727012   8.128   3.432   7.252
    4AHEP   H7127013   8.179   3.334   7.242
    4AHEP   H7227014   8.157   3.492   7.162
    4AHEP    O727015   7.986   3.409   7.245
    4AHEP   HO727016   7.951   3.483   7.195
    5AHEP    C127017   8.061   3.972   7.755
    5AHEP    H127018   8.159   4.000   7.712
    5AHEP    C527019   7.843   4.068   7.804
    5AHEP    H527020   7.792   3.979   7.759
    5AHEP    O527021   7.972   4.083   7.742
    5AHEP    C227022   8.082   3.954   7.906
    5AHEP    H227023   8.145   3.864   7.920
    5AHEP    O227024   8.154   4.066   7.958
    5AHEP   HO227025   8.101   4.144   7.940
    5AHEP    C327026   7.950   3.932   7.979
    5AHEP    H327027   7.903   3.839   7.940
    5AHEP    O327028   7.966   3.923   8.122
    5AHEP    C427029   7.858   4.049   7.954
    5AHEP    H427030   7.897   4.142   8.002
    5AHEP    O427031   7.728   4.016   8.002
    5AHEP    P427032   7.658   4.063   8.143
    5AHEP  OP4227033   7.528   3.986   8.144
    5AHEP  OP4327034   7.639   4.214   8.139
    5AHEP  OP4427035   7.747   4.018   8.257
    5AHEP    C627036   7.762   4.193   7.767
    5AHEP    H627037   7.661   4.184   7.813
    5AHEP    O627038   7.823   4.312   7.818
    5AHEP   HO627039   7.838   4.358   7.735
    5AHEP    C727040   7.748   4.213   7.616
    5AHEP   H7127041   7.641   4.235   7.595
    5AHEP   H7227042   7.771   4.119   7.561
    5AHEP    O727043   7.824   4.325   7.566
    6AHEP    C127044   7.950   4.288   7.516
    6AHEP    H127045   7.978   4.186   7.552
    6AHEP    C527046   7.929   4.394   7.304
    6AHEP    H527047   7.833   4.441   7.335
    6AHEP    O527048   7.948   4.272   7.375
    6AHEP    C227049   8.059   4.383   7.561
    6AHEP    H227050   8.044   4.401   7.668
    6AHEP    O227051   8.191   4.330   7.549
    6AHEP   HO227052   8.251   4.403   7.561
    6AHEP    C327053   8.042   4.515   7.488
    6AHEP    H327054   7.942   4.557   7.513
    6AHEP    O327055   8.140   4.610   7.530
    6AHEP   HO327056   8.178   4.648   7.450
    6AHEP    C427057   8.044   4.488   7.337
    6AHEP    H427058   8.139   4.437   7.312
    6AHEP    O427059   8.041   4.609   7.262
    6AHEP   HO427060   7.953   4.646   7.264
    6AHEP    C627061   7.913   4.357   7.156
    6AHEP    H627062   7.902   4.449   7.095
    6AHEP    O627063   8.028   4.287   7.110
    6AHEP   HO627064   8.008   4.266   7.019
    6AHEP    C727065   7.788   4.271   7.134
    6AHEP   H7127066   7.778   4.243   7.025
    6AHEP   H7227067   7.698   4.332   7.158
    6AHEP    O727068   7.785   4.151   7.214
    6AHEP   HO727069   7.874   4.154   7.250
    7AGLC    C127070   7.991   3.797   8.179
    7AGLC    H127071   7.925   3.721   8.132
    7AGLC    C527072   8.216   3.864   8.215
    7AGLC    H527073   8.191   3.963   8.172
    7AGLC    O527074   8.129   3.763   8.160
    7AGLC    C227075   7.970   3.802   8.330
    7AGLC    H227076   8.008   3.705   8.370
    7AGLC    O227077   7.832   3.803   8.367
    7AGLC   HO227078   7.796   3.883   8.328
    7AGLC    C327079   8.053   3.912   8.395
    7AGLC    H327080   8.026   4.008   8.347
    7AGLC    O327081   8.031   3.922   8.538
    7AGLC    C427082   8.198   3.876   8.365
    7AGLC    H427083   8.221   3.778   8.412
    7AGLC    O427084   8.289   3.972   8.415
    7AGLC   HO427085   8.377   3.934   8.417
    7AGLC    C627086   8.357   3.832   8.169
    7AGLC   H6127087   8.359   3.837   8.058
    7AGLC   H6227088   8.428   3.909   8.207
    7AGLC    O627089   8.401   3.702   8.210
    7AGLC   HO627090   8.372   3.645   8.138
    8AGLC    C127091   8.021   4.053   8.591
    8AGLC    H127092   8.097   4.119   8.544
    8AGLC    C527093   7.783   4.034   8.622
    8AGLC    H527094   7.793   3.929   8.587
    8AGLC    O527095   7.891   4.109   8.565
    8AGLC    C227096   8.039   4.053   8.743
    8AGLC    H227097   8.033   4.159   8.776
    8AGLC    O227098   8.164   3.997   8.790
    8AGLC    C327099   7.928   3.975   8.812
    8AGLC    H327100   7.930   3.872   8.773
    8AGLC    O327101   7.958   3.966   8.953
    8AGLC    C427102   7.794   4.035   8.774
    8AGLC    H427103   7.789   4.141   8.807
    8AGLC    O427104   7.686   3.963   8.833
    8AGLC   HO427105   7.608   4.010   8.804
    8AGLC    C627106   7.650   4.083   8.566
    8AGLC   H6127107   7.665   4.116   8.462
    8AGLC   H6227108   7.578   3.999   8.562
    8AGLC    O627109   7.591   4.191   8.641
    8AGLC   HO627110   7.572   4.258   8.575
    9AGAL    C127111   8.283   4.056   8.745
    9AGAL    H127112   8.287   4.048   8.634
    9AGAL    C527113   8.296   4.223   8.914
    9AGAL    H527114   8.209   4.170   8.960
    9AGAL    O527115   8.290   4.197   8.773
    9AGAL    C227116   8.403   3.981   8.800
    9AGAL    H227117   8.494   4.021   8.750
    9AGAL    O227118   8.389   3.843   8.759
    9AGAL    C327119   8.414   4.010   8.950
    9AGAL    H327120   8.322   3.972   8.999
    9AGAL    O327121   8.525   3.948   9.014
    9AGAL   HO327122   8.605   3.976   8.969
    9AGAL    C427123   8.423   4.160   8.971
    9AGAL    H427124   8.428   4.181   9.080
    9AGAL    O427125   8.542   4.214   8.911
    9AGAL   HO427126   8.516   4.262   8.832
    9AGAL    C627127   8.273   4.371   8.945
    9AGAL   H6127128   8.208   4.416   8.867
    9AGAL   H6227129   8.217   4.378   9.042
    9AGAL    O627130   8.392   4.448   8.960
    9AGAL   HO627131   8.430   4.464   8.874
   10AGAL    C127132   8.469   3.744   8.821
   10AGAL    H127133   8.570   3.784   8.839
   10AGAL    C527134   8.281   3.638   8.924
   10AGAL    H527135   8.223   3.707   8.859
   10AGAL    O527136   8.408   3.701   8.945
   10AGAL    C227137   8.489   3.620   8.733
   10AGAL    H227138   8.562   3.553   8.782
   10AGAL    O227139   8.547   3.660   8.608
   10AGAL   HO227140   8.610   3.594   8.577
   10AGAL    C327141   8.359   3.546   8.709
   10AGAL    H327142   8.291   3.614   8.655
   10AGAL    O327143   8.375   3.429   8.627
   10AGAL   HO327144   8.405   3.455   8.540
   10AGAL    C427145   8.299   3.509   8.844
   10AGAL    H427146   8.199   3.465   8.826
   10AGAL    O427147   8.378   3.413   8.914
   10AGAL   HO427148   8.468   3.445   8.918
   10AGAL    C627149   8.195   3.632   9.050
   10AGAL   H6127150   8.203   3.729   9.102
   10AGAL   H6227151   8.088   3.618   9.020
   10AGAL    O627152   8.228   3.527   9.141
   10AGAL   HO627153   8.225   3.560   9.231
   11BGLC    C127154   7.904   4.059   9.043
   11BGLC    H127155   7.797   4.036   9.061
   11BGLC    C527156   7.865   4.290   9.092
   11BGLC    H527157   7.757   4.267   9.108
   11BGLC    O527158   7.920   4.194   9.000
   11BGLC    C227159   7.984   4.043   9.171
   11BGLC    H227160   8.089   4.072   9.146
   11BGLC    O227161   7.988   3.908   9.217
   11BGLC   HO227162   7.983   3.852   9.139
   11BGLC    C327163   7.933   4.137   9.278
   11BGLC    H327164   7.828   4.111   9.302
   11BGLC    O327165   8.015   4.134   9.398
   11BGLC    C427166   7.941   4.278   9.224
   11BGLC    H427167   8.046   4.302   9.200
   11BGLC    O427168   7.896   4.373   9.319
   11BGLC   HO427169   7.824   4.334   9.370
   11BGLC    C627170   7.876   4.429   9.035
   11BGLC   H6127171   7.818   4.502   9.095
   11BGLC   H6227172   7.982   4.462   9.035
   11BGLC    O627173   7.830   4.437   8.899
   11BGLC   HO627174   7.742   4.399   8.891
   12BGLCN   C127175   7.962   4.067   9.509
   12BGLCN   H127176   7.960   3.957   9.490
   12BGLCN   C527177   7.776   4.053   9.660
   12BGLCN   H527178   7.771   3.943   9.643
   12BGLCN   O527179   7.832   4.116   9.542
   12BGLCN   C227180   8.057   4.101   9.624
   12BGLCN   H227181   8.046   4.210   9.639
   12BGLCN    N27182   8.196   4.071   9.591
   12BGLCN   HN27183   8.220   3.978   9.568
   12BGLCN    C27184   8.294   4.163   9.589
   12BGLCN    O27185   8.277   4.280   9.620
   12BGLCN   CT27186   8.429   4.116   9.540
   12BGLCN  HT127187   8.498   4.202   9.535
   12BGLCN  HT227188   8.420   4.071   9.439
   12BGLCN  HT327189   8.469   4.039   9.610
   12BGLCN   C327190   8.009   4.035   9.753
   12BGLCN   H327191   8.012   3.925   9.742
   12BGLCN   O327192   8.095   4.077   9.861
   12BGLCN   C427193   7.867   4.084   9.778
   12BGLCN   H427194   7.870   4.194   9.790
   12BGLCN   O427195   7.811   4.030   9.898
   12BGLCN  HO427196   7.792   3.937   9.886
   12BGLCN   C627197   7.635   4.108   9.676
   12BGLCN  H6127198   7.603   4.098   9.782
   12BGLCN  H6227199   7.632   4.216   9.650
   12BGLCN   O627200   7.539   4.037   9.596
   12BGLCN  HO627201   7.457   4.028   9.646
   13AGAL    C127202   8.112   3.993   9.974
   13AGAL    H127203   8.017   3.945  10.005
   13AGAL    C527204   8.340   3.946   9.912
   13AGAL    H527205   8.321   4.008   9.822
   13AGAL    O527206   8.213   3.891   9.952
   13AGAL    C227207   8.165   4.079  10.089
   13AGAL    H227208   8.195   4.007  10.168
   13AGAL    O227209   8.066   4.166  10.148
   13AGAL    C327210   8.294   4.147  10.044
   13AGAL    H327211   8.275   4.199   9.948
   13AGAL    O327212   8.338   4.249  10.134
   13AGAL   HO327213   8.311   4.332  10.095
   13AGAL    C427214   8.398   4.040  10.018
   13AGAL    H427215   8.488   4.089   9.976
   13AGAL    O427216   8.440   3.973  10.138
   13AGAL   HO427217   8.374   3.909  10.162
   13AGAL    C627218   8.431   3.834   9.861
   13AGAL   H6127219   8.369   3.765   9.800
   13AGAL   H6227220   8.507   3.878   9.794
   13AGAL    O627221   8.498   3.757   9.962
   13AGAL   HO627222   8.590   3.783   9.964
   14ARHM    C127223   8.031   4.134  10.282
   14ARHM    H127224   8.031   4.024  10.294
   14ARHM    C527225   7.877   4.315  10.308
   14ARHM    H527226   7.897   4.350  10.204
   14ARHM    O527227   7.897   4.173  10.314
   14ARHM    C227228   8.131   4.197  10.380
   14ARHM    H227229   8.233   4.170  10.345
   14ARHM    O227230   8.122   4.156  10.518
   14ARHM    C327231   8.114   4.347  10.368
   14ARHM    H327232   8.128   4.375  10.262
   14ARHM    O327233   8.214   4.420  10.440
   14ARHM   HO327234   8.193   4.422  10.533
   14ARHM    C427235   7.971   4.385  10.405
   14ARHM    H427236   7.948   4.346  10.507
   14ARHM    O427237   7.950   4.527  10.410
   14ARHM   HO427238   8.005   4.567  10.341
   14ARHM    C627239   7.727   4.335  10.337
   14ARHM   H6127240   7.666   4.277  10.266
   14ARHM   H6227241   7.702   4.302  10.439
   14ARHM   H6327242   7.700   4.443  10.326
   15ARHM    C127243   8.125   4.016  10.543
   15ARHM    H127244   8.198   3.967  10.476
   15ARHM    C527245   7.895   4.014  10.609
   15ARHM    H527246   7.885   4.122  10.589
   15ARHM    O527247   7.996   3.957  10.525
   15ARHM    C227248   8.167   3.989  10.688
   15ARHM    H227249   8.268   4.031  10.705
   15ARHM    O227250   8.173   3.845  10.707
   15ARHM    C327251   8.069   4.057  10.780
   15ARHM    H327252   8.063   4.164  10.752
   15ARHM    O327253   8.116   4.049  10.915
   15ARHM    C427254   7.933   3.994  10.756
   15ARHM    H427255   7.938   3.885  10.774
   15ARHM    O427256   7.833   4.046  10.844
   15ARHM   HO427257   7.825   4.139  10.826
   15ARHM    C627258   7.762   3.946  10.571
   15ARHM   H6127259   7.678   3.987  10.632
   15ARHM   H6227260   7.740   3.965  10.464
   15ARHM   H6327261   7.769   3.836  10.587
   16BMANN   C127262   8.192   3.792  10.835
   16BMANN   H127263   8.112   3.825  10.905
   16BMANN   C527264   8.341   3.776  11.023
   16BMANN   H527265   8.258   3.816  11.085
   16BMANN   O527266   8.322   3.825  10.888
   16BMANN   C227267   8.178   3.641  10.825
   16BMANN   H227268   8.071   3.622  10.801
   16BMANN    N27269   8.258   3.580  10.719
   16BMANN   HN27270   8.351   3.550  10.741
   16BMANN    C27271   8.208   3.556  10.596
   16BMANN    O27272   8.094   3.589  10.564
   16BMANN   CT27273   8.297   3.486  10.497
   16BMANN  HT127274   8.256   3.384  10.476
   16BMANN  HT227275   8.400   3.478  10.535
   16BMANN  HT327276   8.297   3.543  10.401
   16BMANN   C327277   8.198   3.582  10.964
   16BMANN   H327278   8.119   3.623  11.030
   16BMANN   O327279   8.181   3.441  10.963
   16BMANN  HO327280   8.131   3.417  11.041
   16BMANN   C427281   8.332   3.623  11.022
   16BMANN   H427282   8.413   3.582  10.957
   16BMANN   O427283   8.352   3.573  11.155
   16BMANN  HO427284   8.437   3.529  11.158
   16BMANN   C627285   8.471   3.826  11.083
   16BMANN  H6127286   8.465   3.812  11.194
   16BMANN  H6227287   8.556   3.763  11.048
   16BMANN   O627288   8.501   3.963  11.055
   16BMANN  HO627289   8.540   3.970  10.968
   17BGLCN   C127290   8.092   4.163  10.992
   17BGLCN   H127291   7.988   4.199  10.977
   17BGLCN   C527292   8.163   4.385  11.043
   17BGLCN   H527293   8.059   4.420  11.026
   17BGLCN   O527294   8.186   4.267  10.964
   17BGLCN   C227295   8.110   4.120  11.137
   17BGLCN   H227296   8.218   4.096  11.149
   17BGLCN    N27297   8.037   3.997  11.166
   17BGLCN   HN27298   7.964   3.971  11.104
   17BGLCN    C27299   8.066   3.916  11.269
   17BGLCN    O27300   8.158   3.937  11.346
   17BGLCN   CT27301   7.976   3.796  11.286
   17BGLCN  HT127302   7.990   3.726  11.201
   17BGLCN  HT227303   7.870   3.828  11.290
   17BGLCN  HT327304   8.002   3.744  11.381
   17BGLCN   C327305   8.077   4.241  11.224
   17BGLCN   H327306   7.979   4.278  11.186
   17BGLCN   O327307   8.062   4.206  11.363
   17BGLCN   C427308   8.178   4.350  11.190
   17BGLCN   H427309   8.280   4.311  11.208
   17BGLCN   O427310   8.161   4.465  11.272
   17BGLCN  HO427311   8.244   4.513  11.280
   17BGLCN   C627312   8.256   4.493  10.995
   17BGLCN  H6127313   8.234   4.589  11.047
   17BGLCN  H6227314   8.361   4.465  11.017
   17BGLCN   O627315   8.243   4.515  10.853
   17BGLCN  HO627316   8.262   4.432  10.808
   18AGAL    C127317   7.965   4.283  11.432
   18AGAL    H127318   8.002   4.388  11.443
   18AGAL    C527319   7.777   4.157  11.354
   18AGAL    H527320   7.848   4.089  11.304
   18AGAL    O527321   7.837   4.287  11.366
   18AGAL    C227322   7.941   4.229  11.572
   18AGAL    H227323   7.867   4.298  11.617
   18AGAL    O227324   8.060   4.233  11.654
   18AGAL    C327325   7.881   4.090  11.566
   18AGAL    H327326   7.952   4.024  11.512
   18AGAL    O327327   7.862   4.035  11.696
   18AGAL   HO327328   7.857   3.939  11.693
   18AGAL    C427329   7.749   4.096  11.491
   18AGAL    H427330   7.712   3.992  11.477
   18AGAL    O427331   7.650   4.168  11.564
   18AGAL   HO427332   7.668   4.155  11.658
   18AGAL    C627333   7.656   4.165  11.262
   18AGAL   H6127334   7.688   4.201  11.162
   18AGAL   H6227335   7.612   4.063  11.249
   18AGAL    O627336   7.555   4.253  11.314
   18AGAL   HO627337   7.567   4.252  11.409
   19ARHM    C127338   8.034   4.274  11.786
   19ARHM    H127339   7.934   4.237  11.819
   19ARHM    C527340   8.156   4.476  11.756
   19ARHM    H527341   8.177   4.447  11.651
   19ARHM    O527342   8.033   4.417  11.797
   19ARHM    C227343   8.140   4.216  11.875
   19ARHM    H227344   8.151   4.110  11.845
   19ARHM    O227345   8.104   4.218  12.016
   19ARHM    C327346   8.275   4.277  11.839
   19ARHM    H327347   8.301   4.248  11.735
   19ARHM    O327348   8.375   4.225  11.927
   19ARHM   HO327349   8.390   4.133  11.902
   19ARHM    C427350   8.268   4.428  11.846
   19ARHM    H427351   8.245   4.459  11.951
   19ARHM    O427352   8.391   4.490  11.807
   19ARHM   HO427353   8.407   4.469  11.714
   19ARHM    C627354   8.135   4.628  11.759
   19ARHM   H6127355   8.048   4.657  11.696
   19ARHM   H6227356   8.118   4.661  11.864
   19ARHM   H6327357   8.225   4.681  11.720
   20ARHM    C127358   8.004   4.122  12.047
   20ARHM    H127359   7.995   4.048  11.964
   20ARHM    C527360   7.866   4.268  12.175
   20ARHM    H527361   7.941   4.349  12.162
   20ARHM    O527362   7.874   4.180  12.062
   20ARHM    C227363   8.041   4.045  12.172
   20ARHM    H227364   8.146   4.011  12.162
   20ARHM    O227365   7.955   3.932  12.190
   20ARHM    C327366   8.034   4.133  12.293
   20ARHM    H327367   8.110   4.213  12.283
   20ARHM    O327368   8.061   4.051  12.408
   20ARHM    C427369   7.895   4.192  12.304
   20ARHM    H427370   7.822   4.108  12.311
   20ARHM    O427371   7.879   4.275  12.418
   20ARHM   HO427372   7.786   4.297  12.426
   20ARHM    C627373   7.726   4.331  12.172
   20ARHM   H6127374   7.646   4.254  12.180
   20ARHM   H6227375   7.713   4.405  12.253
   20ARHM   H6327376   7.711   4.383  12.075
   21BMANN   C127377   7.988   3.820  12.113
   21BMANN   H127378   8.078   3.840  12.051
   21BMANN   C527379   7.914   3.675  11.939
   21BMANN   H527380   8.006   3.701  11.883
   21BMANN   O527381   7.880   3.787  12.026
   21BMANN   C227382   8.016   3.705  12.207
   21BMANN   H227383   8.109   3.734  12.262
   21BMANN    N27384   7.911   3.682  12.307
   21BMANN   HN27385   7.818   3.672  12.273
   21BMANN    C27386   7.933   3.669  12.439
   21BMANN    O27387   8.043   3.683  12.489
   21BMANN   CT27388   7.812   3.636  12.523
   21BMANN  HT127389   7.767   3.541  12.488
   21BMANN  HT227390   7.737   3.718  12.515
   21BMANN  HT327391   7.844   3.625  12.628
   21BMANN   C327392   8.052   3.584  12.123
   21BMANN   H327393   8.144   3.607  12.065
   21BMANN   O327394   8.082   3.474  12.208
   21BMANN  HO327395   8.073   3.393  12.158
   21BMANN   C427396   7.941   3.552  12.026
   21BMANN   H427397   7.848   3.525  12.082
   21BMANN   O427398   7.978   3.442  11.943
   21BMANN  HO427399   7.906   3.412  11.887
   21BMANN   C627400   7.802   3.658  11.839
   21BMANN  H6127401   7.832   3.584  11.762
   21BMANN  H6227402   7.710   3.619  11.890
   21BMANN   O627403   7.770   3.781  11.773
   21BMANN  HO627404   7.731   3.839  11.839
   22BGLCN   C127405   8.129   4.114  12.512
   22BGLCN   H127406   8.111   4.224  12.512
   22BGLCN   C527407   8.344   4.144  12.607
   22BGLCN   H527408   8.324   4.254  12.611
   22BGLCN   O527409   8.268   4.086  12.499
   22BGLCN   C227410   8.073   4.053  12.637
   22BGLCN   H227411   8.093   3.943  12.634
   22BGLCN    N27412   7.929   4.071  12.644
   22BGLCN   HN27413   7.893   4.143  12.585
   22BGLCN    C27414   7.843   3.991  12.710
   22BGLCN    O27415   7.875   3.892  12.773
   22BGLCN   CT27416   7.698   4.031  12.700
   22BGLCN  HT127417   7.648   3.971  12.620
   22BGLCN  HT227418   7.689   4.139  12.676
   22BGLCN  HT327419   7.648   4.010  12.797
   22BGLCN   C327420   8.148   4.111  12.756
   22BGLCN   H327421   8.135   4.221  12.753
   22BGLCN   O327422   8.087   4.060  12.877
   22BGLCN   C427423   8.296   4.080  12.736
   22BGLCN   H427424   8.307   3.970  12.724
   22BGLCN   O427425   8.379   4.119  12.845
   22BGLCN  HO427426   8.433   4.042  12.864
   22BGLCN   C627427   8.491   4.126  12.578
   22BGLCN  H6127428   8.552   4.175  12.658
   22BGLCN  H6227429   8.517   4.018  12.578
   22BGLCN   O627430   8.526   4.185  12.453
   22BGLCN  HO627431   8.483   4.136  12.384
   23AGAL    C127432   8.114   4.127  12.998
   23AGAL    H127433   8.220   4.111  13.026
   23AGAL    C527434   7.949   4.296  12.960
   23AGAL    H527435   7.920   4.240  12.867
   23AGAL    O527436   8.088   4.269  12.988
   23AGAL    C227437   8.029   4.068  13.109
   23AGAL    H227438   8.059   4.116  13.204
   23AGAL    O227439   8.051   3.926  13.113
   23AGAL    C327440   7.882   4.096  13.086
   23AGAL    H327441   7.849   4.045  12.993
   23AGAL    O327442   7.804   4.045  13.194
   23AGAL   HO327443   7.812   4.108  13.267
   23AGAL    C427444   7.860   4.246  13.072
   23AGAL    H427445   7.754   4.263  13.043
   23AGAL    O427446   7.883   4.318  13.193
   23AGAL   HO427447   7.906   4.407  13.165
   23AGAL    C627448   7.933   4.443  12.925
   23AGAL   H6127449   7.994   4.466  12.835
   23AGAL   H6227450   7.827   4.462  12.898
   23AGAL    O627451   7.971   4.531  13.030
   23AGAL   HO627452   8.063   4.556  13.017
   24ARHM    C127453   8.147   3.883  13.206
   24ARHM    H127454   8.223   3.963  13.217
   24ARHM    C527455   8.140   3.654  13.144
   24ARHM    H527456   8.062   3.677  13.068
   24ARHM    O527457   8.223   3.769  13.161
   24ARHM    C227458   8.076   3.856  13.335
   24ARHM    H227459   8.009   3.941  13.359
   24ARHM    O227460   8.170   3.841  13.441
   24ARHM    C327461   7.987   3.734  13.319
   24ARHM    H327462   7.911   3.754  13.241
   24ARHM    O327463   7.918   3.704  13.440
   24ARHM   HO327464   7.912   3.608  13.441
   24ARHM    C427465   8.073   3.617  13.276
   24ARHM    H427466   8.152   3.599  13.352
   24ARHM    O427467   7.996   3.497  13.263
   24ARHM   HO427468   8.054   3.422  13.248
   24ARHM    C627469   8.229   3.542  13.086
   24ARHM   H6127470   8.167   3.455  13.055
   24ARHM   H6227471   8.284   3.579  12.996
   24ARHM   H6327472   8.303   3.508  13.162
   25ARHM    C127473   8.229   3.961  13.484
   25ARHM    H127474   8.202   4.045  13.415
   25ARHM    C527475   8.415   3.842  13.568
   25ARHM    H527476   8.375   3.746  13.529
   25ARHM    O527477   8.372   3.951  13.486
   25ARHM    C227478   8.173   3.991  13.620
   25ARHM    H227479   8.062   3.986  13.614
   25ARHM    O227480   8.211   4.122  13.668
   25ARHM    C327481   8.215   3.880  13.713
   25ARHM    H327482   8.168   3.785  13.680
   25ARHM    O327483   8.167   3.917  13.842
   25ARHM    C427484   8.366   3.865  13.710
   25ARHM    H427485   8.415   3.959  13.745
   25ARHM    O427486   8.409   3.758  13.793
   25ARHM   HO427487   8.472   3.790  13.859
   25ARHM    C627488   8.569   3.839  13.557
   25ARHM   H6127489   8.599   3.828  13.451
   25ARHM   H6227490   8.613   3.932  13.599
   25ARHM   H6327491   8.611   3.753  13.614
   26BMANN   C127492   8.135   4.229  13.613
   26BMANN   H127493   8.031   4.197  13.592
   26BMANN   C527494   8.122   4.394  13.440
   26BMANN   H527495   8.019   4.358  13.418
   26BMANN   O527496   8.196   4.283  13.495
   26BMANN   C227497   8.136   4.340  13.717
   26BMANN   H227498   8.088   4.298  13.808
   26BMANN    N27499   8.272   4.380  13.750
   26BMANN   HN27500   8.339   4.365  13.679
   26BMANN    C27501   8.312   4.434  13.866
   26BMANN    O27502   8.240   4.443  13.964
   26BMANN   CT27503   8.455   4.482  13.868
   26BMANN  HT127504   8.515   4.427  13.793
   26BMANN  HT227505   8.498   4.466  13.970
   26BMANN  HT327506   8.458   4.591  13.845
   26BMANN   C327507   8.050   4.455  13.666
   26BMANN   H327508   7.950   4.415  13.641
   26BMANN   O327509   8.030   4.556  13.766
   26BMANN  HO327510   7.936   4.574  13.774
   26BMANN   C427511   8.113   4.509  13.540
   26BMANN   H427512   8.216   4.544  13.564
   26BMANN   O427513   8.044   4.621  13.488
   26BMANN  HO427514   8.055   4.693  13.550
   26BMANN   C627515   8.184   4.433  13.307
   26BMANN  H6127516   8.207   4.343  13.246
   26BMANN  H6227517   8.110   4.492  13.250
   26BMANN   O627518   8.302   4.512  13.325
   26BMANN  HO627519   8.288   4.595  13.280
   27BGLCN   C127520   8.105   3.815  13.916
   27BGLCN   H127521   8.167   3.722  13.915
   27BGLCN   C527522   7.903   3.693  13.953
   27BGLCN   H527523   7.965   3.600  13.953
   27BGLCN   O527524   7.971   3.791  13.871
   27BGLCN   C227525   8.097   3.873  14.057
   27BGLCN   H227526   8.030   3.961  14.050
   27BGLCN    N27527   8.227   3.918  14.102
   27BGLCN   HN27528   8.306   3.863  14.078
   27BGLCN    C27529   8.247   4.032  14.169
   27BGLCN    O27530   8.157   4.107  14.207
   27BGLCN   CT27531   8.389   4.070  14.196
   27BGLCN  HT127532   8.458   3.986  14.173
   27BGLCN  HT227533   8.399   4.100  14.304
   27BGLCN  HT327534   8.415   4.158  14.134
   27BGLCN   C327535   8.032   3.773  14.149
   27BGLCN   H327536   8.091   3.679  14.145
   27BGLCN   O327537   8.039   3.830  14.283
   27BGLCN   C427538   7.892   3.743  14.096
   27BGLCN   H427539   7.834   3.837  14.097
   27BGLCN   O427540   7.823   3.649  14.179
   27BGLCN  HO427541   7.856   3.561  14.159
   27BGLCN   C627542   7.770   3.662  13.887
   27BGLCN  H6127543   7.699   3.618  13.960
   27BGLCN  H6227544   7.724   3.755  13.847
   27BGLCN   O627545   7.784   3.566  13.780
   27BGLCN  HO627546   7.740   3.595  13.700
   28AGAL    C127547   8.018   3.746  14.394
   28AGAL    H127548   7.909   3.731  14.408
   28AGAL    C527549   8.226   3.627  14.375
   28AGAL    H527550   8.255   3.686  14.286
   28AGAL    O527551   8.082   3.618  14.381
   28AGAL    C227552   8.074   3.812  14.520
   28AGAL    H227553   8.059   3.731  14.595
   28AGAL    O227554   8.004   3.928  14.569
   28AGAL    C327555   8.224   3.834  14.506
   28AGAL    H327556   8.241   3.889  14.412
   28AGAL    O327557   8.280   3.915  14.609
   28AGAL   HO327558   8.358   3.957  14.573
   28AGAL    C427559   8.289   3.697  14.495
   28AGAL    H427560   8.397   3.711  14.475
   28AGAL    O427561   8.278   3.622  14.616
   28AGAL   HO427562   8.298   3.530  14.594
   28AGAL    C627563   8.275   3.485  14.352
   28AGAL   H6127564   8.233   3.446  14.258
   28AGAL   H6227565   8.386   3.487  14.341
   28AGAL    O627566   8.242   3.395  14.458
   28AGAL   HO627567   8.146   3.391  14.467
   29ARHM    C127568   7.973   3.912  14.706
   29ARHM    H127569   8.051   3.851  14.756
   29ARHM    C527570   7.738   3.927  14.665
   29ARHM    H527571   7.757   3.942  14.556
   29ARHM    O527572   7.845   3.849  14.722
   29ARHM    C227573   7.971   4.044  14.780
   29ARHM    H227574   8.070   4.093  14.765
   29ARHM    O227575   7.948   4.021  14.921
   29ARHM    C327576   7.864   4.133  14.722
   29ARHM    H327577   7.886   4.151  14.614
   29ARHM    O327578   7.861   4.260  14.787
   29ARHM   HO327579   7.770   4.291  14.781
   29ARHM    C427580   7.731   4.062  14.734
   29ARHM    H427581   7.712   4.044  14.842
   29ARHM    O427582   7.623   4.141  14.685
   29ARHM   HO427583   7.642   4.175  14.597
   29ARHM    C627584   7.611   3.841  14.681
   29ARHM   H6127585   7.622   3.745  14.626
   29ARHM   H6227586   7.593   3.817  14.788
   29ARHM   H6327587   7.522   3.894  14.640
   30ARHM    C127588   8.064   4.021  15.001
   30ARHM    H127589   8.122   4.114  14.980
   30ARHM    C527590   8.088   3.782  15.012
   30ARHM    H527591   7.994   3.769  14.953
   30ARHM    O527592   8.150   3.908  14.977
   30ARHM    C227593   8.024   4.024  15.148
   30ARHM    H227594   7.951   4.106  15.163
   30ARHM    O227595   8.139   4.045  15.231
   30ARHM    C327596   7.957   3.894  15.189
   30ARHM    H327597   7.868   3.882  15.123
   30ARHM    O327598   7.905   3.904  15.324
   30ARHM    C427599   8.051   3.779  15.160
   30ARHM    H427600   8.144   3.790  15.219
   30ARHM    O427601   7.994   3.652  15.191
   30ARHM   HO427602   7.906   3.643  15.155
   30ARHM    C627603   8.185   3.670  14.972
   30ARHM   H6127604   8.141   3.571  14.994
   30ARHM   H6227605   8.207   3.675  14.863
   30ARHM   H6327606   8.280   3.679  15.028
   31BMANN   C127607   8.166   4.177  15.272
   31BMANN   H127608   8.073   4.230  15.301
   31BMANN   C527609   8.278   4.382  15.217
   31BMANN   H527610   8.188   4.437  15.253
   31BMANN   O527611   8.238   4.251  15.172
   31BMANN   C227612   8.255   4.156  15.394
   31BMANN   H227613   8.190   4.113  15.472
   31BMANN    N27614   8.364   4.061  15.369
   31BMANN   HN27615   8.402   4.060  15.277
   31BMANN    C27616   8.408   3.972  15.459
   31BMANN    O27617   8.363   3.967  15.573
   31BMANN   CT27618   8.514   3.876  15.414
   31BMANN  HT127619   8.614   3.920  15.432
   31BMANN  HT227620   8.501   3.851  15.307
   31BMANN  HT327621   8.507   3.783  15.475
   31BMANN   C327622   8.300   4.291  15.444
   31BMANN   H327623   8.209   4.350  15.466
   31BMANN   O327624   8.371   4.283  15.567
   31BMANN  HO327625   8.448   4.226  15.559
   31BMANN   C427626   8.374   4.366  15.335
   31BMANN   H427627   8.461   4.305  15.302
   31BMANN   O427628   8.423   4.492  15.378
   31BMANN  HO427629   8.432   4.494  15.473
   31BMANN   C627630   8.336   4.465  15.103
   31BMANN  H6127631   8.368   4.565  15.141
   31BMANN  H6227632   8.427   4.415  15.064
   31BMANN   O627633   8.243   4.486  14.996
   31BMANN  HO627634   8.186   4.561  15.017
   32BGLCN   C127635   7.989   3.868  15.432
   32BGLCN   H127636   8.093   3.901  15.413
   32BGLCN   C527637   8.076   3.691  15.568
   32BGLCN   H527638   8.179   3.723  15.541
   32BGLCN   O527639   7.987   3.727  15.461
   32BGLCN   C227640   7.935   3.937  15.556
   32BGLCN   H227641   7.840   3.885  15.580
   32BGLCN    N27642   7.900   4.076  15.531
   32BGLCN   HN27643   7.940   4.117  15.450
   32BGLCN    C27644   7.804   4.140  15.599
   32BGLCN    O27645   7.747   4.090  15.695
   32BGLCN   CT27646   7.770   4.279  15.550
   32BGLCN  HT127647   7.805   4.294  15.446
   32BGLCN  HT227648   7.816   4.354  15.617
   32BGLCN  HT327649   7.660   4.291  15.554
   32BGLCN   C327650   8.031   3.913  15.672
   32BGLCN   H327651   8.131   3.944  15.635
   32BGLCN   O327652   8.003   3.987  15.793
   32BGLCN   C427653   8.033   3.763  15.695
   32BGLCN   H427654   7.930   3.729  15.721
   32BGLCN   O427655   8.118   3.726  15.803
   32BGLCN  HO427656   8.064   3.688  15.873
   32BGLCN   C627657   8.076   3.539  15.583
   32BGLCN  H6127658   8.135   3.510  15.672
   32BGLCN  H6227659   7.972   3.504  15.597
   32BGLCN   O627660   8.133   3.471  15.470
   32BGLCN  HO627661   8.226   3.494  15.464
   33AGAL    C127662   8.119   4.045  15.851
   33AGAL    H127663   8.206   3.977  15.835
   33AGAL    C527664   8.053   4.274  15.820
   33AGAL    H527665   7.953   4.240  15.786
   33AGAL    O527666   8.150   4.172  15.790
   33AGAL    C227667   8.108   4.069  16.002
   33AGAL    H227668   8.206   4.112  16.031
   33AGAL    O227669   8.091   3.945  16.073
   33AGAL    C327670   8.003   4.171  16.037
   33AGAL    H327671   7.905   4.135  15.998
   33AGAL    O327672   7.990   4.189  16.177
   33AGAL   HO327673   8.061   4.247  16.204
   33AGAL    C427674   8.039   4.301  15.969
   33AGAL    H427675   7.957   4.374  15.985
   33AGAL    O427676   8.158   4.360  16.022
   33AGAL   HO427677   8.207   4.399  15.949
   33AGAL    C627678   8.088   4.401  15.743
   33AGAL   H6127679   8.062   4.387  15.636
   33AGAL   H6227680   8.027   4.485  15.783
   33AGAL    O627681   8.226   4.436  15.753
   33AGAL   HO627682   8.277   4.371  15.705
   34ARHM    C127683   8.174   3.937  16.187
   34ARHM    H127684   8.164   4.029  16.248
   34ARHM    C527685   8.332   3.806  16.067
   34ARHM    H527686   8.263   3.811  15.981
   34ARHM    O527687   8.312   3.921  16.149
   34ARHM    C227688   8.129   3.818  16.270
   34ARHM    H227689   8.019   3.828  16.282
   34ARHM    O227690   8.185   3.813  16.402
   34ARHM    C327691   8.152   3.691  16.191
   34ARHM    H327692   8.087   3.693  16.100
   34ARHM    O327693   8.115   3.577  16.269
   34ARHM   HO327694   8.054   3.523  16.220
   34ARHM    C427695   8.297   3.681  16.146
   34ARHM    H427696   8.364   3.675  16.235
   34ARHM    O427697   8.318   3.566  16.063
   34ARHM   HO427698   8.366   3.497  16.111
   34ARHM    C627699   8.474   3.814  16.007
   34ARHM   H6127700   8.552   3.837  16.082
   34ARHM   H6227701   8.500   3.719  15.955
   34ARHM   H6327702   8.477   3.895  15.931
   35ARHM    C127703   8.158   3.923  16.487
   35ARHM    H127704   8.063   3.973  16.457
   35ARHM    C527705   8.391   3.958  16.521
   35ARHM    H527706   8.414   3.872  16.454
   35ARHM    O527707   8.266   4.017  16.482
   35ARHM    C227708   8.144   3.868  16.629
   35ARHM    H227709   8.064   3.791  16.627
   35ARHM    O227710   8.113   3.966  16.731
   35ARHM    C327711   8.273   3.801  16.667
   35ARHM    H327712   8.300   3.726  16.589
   35ARHM    O327713   8.262   3.726  16.787
   35ARHM   HO327714   8.260   3.787  16.861
   35ARHM    C427715   8.383   3.906  16.665
   35ARHM    H427716   8.353   3.992  16.729
   35ARHM    O427717   8.508   3.860  16.715
   35ARHM   HO427718   8.558   3.814  16.647
   35ARHM    C627719   8.498   4.064  16.497
   35ARHM   H6127720   8.502   4.092  16.389
   35ARHM   H6227721   8.474   4.156  16.555
   35ARHM   H6327722   8.599   4.028  16.527
   36BMANN   C127723   7.982   4.016  16.733
   36BMANN   H127724   7.910   3.935  16.709
   36BMANN   C527725   7.831   4.176  16.640
   36BMANN   H527726   7.765   4.092  16.614
   36BMANN   O527727   7.966   4.126  16.642
   36BMANN   C227728   7.954   4.068  16.875
   36BMANN   H227729   7.960   3.979  16.941
   36BMANN    N27730   8.049   4.168  16.923
   36BMANN   HN27731   8.071   4.243  16.860
   36BMANN    C27732   8.095   4.176  17.048
   36BMANN    O27733   8.078   4.087  17.131
   36BMANN   CT27734   8.176   4.298  17.084
   36BMANN  HT127735   8.125   4.389  17.046
   36BMANN  HT227736   8.277   4.291  17.040
   36BMANN  HT327737   8.184   4.306  17.195
   36BMANN   C327738   7.810   4.117  16.879
   36BMANN   H327739   7.742   4.034  16.850
   36BMANN   O327740   7.772   4.160  17.010
   36BMANN  HO327741   7.758   4.084  17.067
   36BMANN   C427742   7.792   4.228  16.778
   36BMANN   H427743   7.859   4.313  16.806
   36BMANN   O427744   7.657   4.275  16.777
   36BMANN  HO427745   7.631   4.279  16.869
   36BMANN   C627746   7.817   4.279  16.528
   36BMANN  H6127747   7.879   4.249  16.441
   36BMANN  H6227748   7.711   4.281  16.494
   36BMANN   O627749   7.852   4.412  16.568
   36BMANN  HO627750   7.800   4.436  16.645
    1ECLIP HB6S27751   0.307   5.185   6.683
    1ECLIP  OB627752   0.469   5.248   6.799
    1ECLIP  CB627753   0.364   5.278   6.705
    1ECLIP HB6R27754   0.294   5.352   6.748
    1ECLIP  CB527755   0.416   5.334   6.576
    1ECLIP  OB527756   0.517   5.246   6.526
    1ECLIP  HB527757   0.461   5.433   6.597
    1ECLIP  CB127758   0.580   5.302   6.412
    1ECLIP  HB127759   0.621   5.401   6.438
    1ECLIP  OA627760   0.687   5.222   6.372
    1ECLIP  CA627761   0.659   5.082   6.372
    1ECLIP HA6R27762   0.550   5.060   6.370
    1ECLIP HA6S27763   0.701   5.037   6.464
    1ECLIP  CB427764   0.309   5.348   6.469
    1ECLIP  HB427765   0.273   5.246   6.441
    1ECLIP  OB427766   0.207   5.430   6.528
    1ECLIP   PB27767   0.053   5.374   6.539
    1ECLIP OPB427768  -0.012   5.453   6.653
    1ECLIP OPB327769   0.055   5.224   6.563
    1ECLIP OPB227770  -0.016   5.424   6.415
    1ECLIP  CB327771   0.371   5.411   6.347
    1ECLIP  OB327772   0.271   5.427   6.247
    1ECLIP  HB327773   0.415   5.508   6.380
    1ECLIP  C7127774   0.283   5.533   6.169
    1ECLIP  O7127775   0.370   5.618   6.177
    1ECLIP  C7227776   0.200   5.521   6.042
    1ECLIP H72R27777   0.272   5.501   5.960
    1ECLIP H72S27778   0.152   5.619   6.026
    1ECLIP  CB227779   0.482   5.319   6.297
    1ECLIP  HB227780   0.435   5.220   6.278
    1ECLIP  NB227781   0.546   5.364   6.174
    1ECLIP HNB227782   0.612   5.438   6.181
    1ECLIP  CA427783   0.832   5.114   6.193
    1ECLIP  HA427784   0.785   5.212   6.167
    1ECLIP  OA427785   0.933   5.135   6.292
    1ECLIP HOA427786   0.894   5.194   6.356
    1ECLIP  CA527787   0.726   5.022   6.249
    1ECLIP  HA527788   0.770   4.924   6.276
    1ECLIP  OA527789   0.625   5.004   6.149
    1ECLIP  CA127790   0.673   4.941   6.030
    1ECLIP  HA127791   0.585   4.938   5.960
    1ECLIP  OA127792   0.726   4.813   6.061
    1ECLIP OPA227793   0.735   4.554   6.023
    1ECLIP OPA327794   0.516   4.653   6.031
    1ECLIP OPA427795   0.660   4.684   5.844
    1ECLIP   PA27796   0.659   4.682   5.995
    1ECLIP  CA327797   0.888   5.057   6.065
    1ECLIP  HA327798   0.937   4.960   6.089
    1ECLIP  OA327799   0.988   5.145   6.017
    1ECLIP  C3127800   0.948   5.264   5.966
    1ECLIP  O3127801   0.948   5.284   5.845
    1ECLIP  C3227802   1.015   5.368   6.057
    1ECLIP H32R27803   1.114   5.382   6.009
    1ECLIP H32S27804   1.030   5.328   6.160
    1ECLIP  CA227805   0.777   5.032   5.965
    1ECLIP  HA227806   0.726   5.128   5.943
    1ECLIP  NA227807   0.833   4.982   5.840
    1ECLIP HNA227808   0.932   4.973   5.840
    1ECLIP  C7327809   0.094   5.410   6.045
    1ECLIP H73R27810   0.034   5.419   6.139
    1ECLIP  O7327811   0.162   5.284   6.042
    1ECLIP  C8127812   0.092   5.179   6.084
    1ECLIP  O8127813  -0.029   5.180   6.102
    1ECLIP  C8227814   0.167   5.052   6.043
    1ECLIP H82R27815   0.107   4.966   6.078
    1ECLIP H82S27816   0.265   5.051   6.095
    1ECLIP  C8327817   0.188   5.046   5.891
    1ECLIP H83R27818   0.261   5.124   5.862
    1ECLIP H83S27819   0.092   5.068   5.839
    1ECLIP  C8427820   0.241   4.911   5.839
    1ECLIP H84R27821   0.163   4.832   5.854
    1ECLIP H84S27822   0.331   4.882   5.898
    1ECLIP  C8527823   0.279   4.923   5.691
    1ECLIP H85R27824   0.364   4.993   5.686
    1ECLIP H85S27825   0.193   4.969   5.637
    1ECLIP  C8627826   0.320   4.792   5.623
    1ECLIP H86R27827   0.231   4.727   5.613
    1ECLIP H86S27828   0.394   4.741   5.688
    1ECLIP  C8727829   0.384   4.816   5.485
    1ECLIP H87R27830   0.400   4.718   5.434
    1ECLIP H87S27831   0.484   4.861   5.502
    1ECLIP  C8827832   0.303   4.911   5.395
    1ECLIP H88R27833   0.299   5.009   5.446
    1ECLIP H88S27834   0.199   4.874   5.384
    1ECLIP  C8927835   0.365   4.936   5.256
    1ECLIP H89R27836   0.475   4.951   5.266
    1ECLIP H89S27837   0.322   5.032   5.219
    1ECLIP C81027838   0.335   4.827   5.155
    1ECLIPH810R27839   0.228   4.799   5.162
    1ECLIPH810S27840   0.395   4.737   5.181
    1ECLIP C81127841   0.366   4.868   5.009
    1ECLIPH811R27842   0.365   4.778   4.944
    1ECLIPH811S27843   0.469   4.910   5.007
    1ECLIP C81227844   0.269   4.972   4.950
    1ECLIPH812R27845   0.310   5.006   4.851
    1ECLIPH812S27846   0.265   5.061   5.016
    1ECLIP C81327847   0.126   4.921   4.929
    1ECLIPH813R27848   0.128   4.835   4.858
    1ECLIPH813S27849   0.086   4.883   5.024
    1ECLIP C81427850   0.032   5.029   4.877
    1ECLIPH814R27851   0.069   5.071   4.780
    1ECLIPH814S27852   0.025   5.112   4.950
    1ECLIPH814T27853  -0.071   4.989   4.860
    1ECLIP  C7427854  -0.001   5.421   5.924
    1ECLIP H74R27855  -0.051   5.520   5.925
    1ECLIP H74S27856  -0.081   5.346   5.936
    1ECLIP  C7527857   0.061   5.399   5.783
    1ECLIP H75R27858  -0.023   5.368   5.717
    1ECLIP H75S27859   0.133   5.315   5.786
    1ECLIP  C7627860   0.126   5.522   5.717
    1ECLIP H76R27861   0.225   5.544   5.762
    1ECLIP H76S27862   0.063   5.613   5.733
    1ECLIP  C7727863   0.143   5.503   5.566
    1ECLIP H77R27864   0.053   5.452   5.524
    1ECLIP H77S27865   0.228   5.435   5.549
    1ECLIP  C7827866   0.165   5.635   5.490
    1ECLIP H78R27867   0.071   5.694   5.493
    1ECLIP H78S27868   0.243   5.694   5.542
    1ECLIP  C7927869   0.208   5.616   5.344
    1ECLIP H79R27870   0.314   5.582   5.344
    1ECLIP H79S27871   0.204   5.714   5.292
    1ECLIP C71027872   0.126   5.512   5.266
    1ECLIPH710R27873   0.152   5.411   5.302
    1ECLIPH710S27874   0.018   5.527   5.285
    1ECLIP C71127875   0.152   5.519   5.115
    1ECLIPH711R27876   0.131   5.622   5.078
    1ECLIPH711S27877   0.259   5.497   5.095
    1ECLIP C71227878   0.066   5.418   5.036
    1ECLIPH712R27879  -0.040   5.451   5.043
    1ECLIPH712S27880   0.073   5.319   5.087
    1ECLIP C71327881   0.106   5.401   4.889
    1ECLIPH713R27882   0.207   5.356   4.885
    1ECLIPH713S27883   0.035   5.329   4.842
    1ECLIP C71427884   0.105   5.531   4.808
    1ECLIPH714R27885   0.010   5.586   4.825
    1ECLIPH714S27886   0.189   5.596   4.839
    1ECLIPH714T27887   0.115   5.508   4.700
    1ECLIP  C5127888   0.515   5.320   6.049
    1ECLIP  O5127889   0.445   5.223   6.028
    1ECLIP  C5227890   0.574   5.401   5.936
    1ECLIP H52R27891   0.520   5.498   5.929
    1ECLIP H52S27892   0.679   5.422   5.964
    1ECLIP  C5327893   0.573   5.330   5.800
    1ECLIP H53R27894   0.598   5.222   5.811
    1ECLIP  O5327895   0.672   5.401   5.726
    1ECLIP  C6127896   0.753   5.330   5.649
    1ECLIP  O6127897   0.733   5.217   5.608
    1ECLIP  C6227898   0.844   5.429   5.577
    1ECLIP H62R27899   0.915   5.471   5.653
    1ECLIP H62S27900   0.779   5.511   5.540
    1ECLIP  C6327901   0.923   5.367   5.462
    1ECLIP H63R27902   0.872   5.277   5.420
    1ECLIP H63S27903   1.021   5.331   5.502
    1ECLIP  C6427904   0.940   5.466   5.347
    1ECLIP H64R27905   1.029   5.437   5.286
    1ECLIP H64S27906   0.958   5.568   5.385
    1ECLIP  C6527907   0.818   5.462   5.256
    1ECLIP H65R27908   0.731   5.500   5.313
    1ECLIP H65S27909   0.797   5.356   5.230
    1ECLIP  C6627910   0.837   5.541   5.127
    1ECLIP H66R27911   0.860   5.647   5.151
    1ECLIP H66S27912   0.741   5.539   5.071
    1ECLIP  C6727913   0.946   5.485   5.036
    1ECLIP H67R27914   1.043   5.496   5.089
    1ECLIP H67S27915   0.949   5.548   4.944
    1ECLIP  C6827916   0.926   5.337   4.997
    1ECLIP H68R27917   0.819   5.321   4.973
    1ECLIP H68S27918   0.953   5.270   5.082
    1ECLIP  C6927919   1.009   5.301   4.872
    1ECLIP H69R27920   1.117   5.292   4.898
    1ECLIP H69S27921   0.998   5.388   4.802
    1ECLIP C61027922   0.966   5.173   4.801
    1ECLIPH610R27923   0.855   5.171   4.792
    1ECLIPH610S27924   0.996   5.086   4.863
    1ECLIP C61127925   1.029   5.158   4.662
    1ECLIPH611R27926   1.139   5.148   4.675
    1ECLIPH611S27927   0.991   5.065   4.616
    1ECLIP C61227928   1.005   5.276   4.568
    1ECLIPH612R27929   0.897   5.305   4.566
    1ECLIPH612S27930   1.062   5.365   4.602
    1ECLIPH612T27931   1.036   5.250   4.465
    1ECLIP  C5427932   0.437   5.343   5.729
    1ECLIP H54R27933   0.417   5.450   5.709
    1ECLIP H54S27934   0.361   5.307   5.800
    1ECLIP  C5527935   0.422   5.262   5.598
    1ECLIP H55R27936   0.315   5.234   5.589
    1ECLIP H55S27937   0.480   5.167   5.608
    1ECLIP  C5627938   0.465   5.338   5.472
    1ECLIP H56R27939   0.575   5.355   5.472
    1ECLIP H56S27940   0.418   5.438   5.470
    1ECLIP  C5727941   0.430   5.262   5.344
    1ECLIP H57R27942   0.321   5.244   5.339
    1ECLIP H57S27943   0.482   5.163   5.348
    1ECLIP  C5827944   0.477   5.338   5.221
    1ECLIP H58R27945   0.428   5.438   5.219
    1ECLIP H58S27946   0.586   5.356   5.233
    1ECLIP  C5927947   0.456   5.266   5.089
    1ECLIP H59R27948   0.348   5.247   5.072
    1ECLIP H59S27949   0.508   5.168   5.091
    1ECLIP C51027950   0.512   5.351   4.973
    1ECLIPH510R27951   0.612   5.387   5.004
    1ECLIPH510S27952   0.447   5.440   4.960
    1ECLIP C51127953   0.526   5.277   4.839
    1ECLIPH511R27954   0.605   5.200   4.848
    1ECLIPH511S27955   0.430   5.227   4.816
    1ECLIP C51227956   0.561   5.376   4.726
    1ECLIPH512R27957   0.558   5.323   4.628
    1ECLIPH512S27958   0.481   5.453   4.726
    1ECLIP C51327959   0.696   5.446   4.743
    1ECLIPH513R27960   0.775   5.367   4.745
    1ECLIPH513S27961   0.699   5.498   4.841
    1ECLIP C51427962   0.730   5.547   4.634
    1ECLIPH514R27963   0.659   5.632   4.638
    1ECLIPH514S27964   0.833   5.586   4.648
    1ECLIPH514T27965   0.722   5.500   4.533
    1ECLIP  C3327966   0.950   5.506   6.061
    1ECLIP H33R27967   1.019   5.576   6.113
    1ECLIP  O3327968   0.830   5.497   6.137
    1ECLIP HO3327969   0.841   5.531   6.226
    1ECLIP  C3427970   0.924   5.561   5.920
    1ECLIP H34R27971   0.840   5.506   5.874
    1ECLIP H34S27972   1.015   5.542   5.859
    1ECLIP  C3527973   0.895   5.711   5.911
    1ECLIP H35R27974   0.991   5.765   5.921
    1ECLIP H35S27975   0.830   5.743   5.997
    1ECLIP  C3627976   0.826   5.743   5.778
    1ECLIP H36R27977   0.854   5.666   5.703
    1ECLIP H36S27978   0.863   5.840   5.737
    1ECLIP  C3727979   0.673   5.747   5.794
    1ECLIP H37R27980   0.645   5.845   5.839
    1ECLIP H37S27981   0.645   5.669   5.868
    1ECLIP  C3827982   0.590   5.723   5.667
    1ECLIP H38R27983   0.586   5.613   5.648
    1ECLIP H38S27984   0.486   5.756   5.688
    1ECLIP  C3927985   0.641   5.790   5.538
    1ECLIP H39R27986   0.738   5.744   5.510
    1ECLIP H39S27987   0.658   5.898   5.556
    1ECLIP C31027988   0.539   5.769   5.425
    1ECLIPH310R27989   0.456   5.843   5.438
    1ECLIPH310S27990   0.495   5.668   5.438
    1ECLIP C31127991   0.597   5.777   5.283
    1ECLIPH311R27992   0.652   5.873   5.269
    1ECLIPH311S27993   0.672   5.696   5.273
    1ECLIP C31227994   0.488   5.762   5.176
    1ECLIPH312R27995   0.431   5.669   5.196
    1ECLIPH312S27996   0.418   5.847   5.186
    1ECLIP C31327997   0.541   5.753   5.032
    1ECLIPH313R27998   0.619   5.831   5.017
    1ECLIPH313S27999   0.589   5.654   5.019
    1ECLIP C31428000   0.431   5.766   4.927
    1ECLIPH314R28001   0.384   5.867   4.931
    1ECLIPH314S28002   0.473   5.751   4.825
    1ECLIPH314T28003   0.353   5.690   4.945
    1ECLIP  C1128004   0.762   4.937   5.735
    1ECLIP  O1128005   0.644   4.966   5.716
    1ECLIP  C1228006   0.834   4.839   5.644
    1ECLIP H12R28007   0.790   4.739   5.665
    1ECLIP H12S28008   0.942   4.834   5.670
    1ECLIP  C1328009   0.813   4.870   5.497
    1ECLIP H13R28010   0.709   4.905   5.479
    1ECLIP  O1328011   0.832   4.750   5.424
    1ECLIP HO1328012   0.820   4.763   5.328
    1ECLIP  C1428013   0.913   4.974   5.443
    1ECLIP H14R28014   1.014   4.947   5.483
    1ECLIP H14S28015   0.886   5.073   5.487
    1ECLIP  C1528016   0.922   4.984   5.289
    1ECLIP H15R28017   0.963   4.888   5.252
    1ECLIP H15S28018   0.997   5.063   5.263
    1ECLIP  C1628019   0.789   5.017   5.219
    1ECLIP H16R28020   0.770   5.126   5.231
    1ECLIP H16S28021   0.704   4.964   5.266
    1ECLIP  C1728022   0.791   4.981   5.069
    1ECLIP H17R28023   0.888   5.015   5.028
    1ECLIP H17S28024   0.710   5.036   5.017
    1ECLIP  C1828025   0.774   4.830   5.043
    1ECLIP H18R28026   0.852   4.776   5.101
    1ECLIP H18S28027   0.675   4.796   5.082
    1ECLIP  C1928028   0.789   4.788   4.895
    1ECLIP H19R28029   0.813   4.680   4.893
    1ECLIP H19S28030   0.875   4.843   4.851
    1ECLIP C11028031   0.662   4.809   4.811
    1ECLIPH110R28032   0.578   4.756   4.859
    1ECLIPH110S28033   0.638   4.917   4.808
    1ECLIP C11128034   0.678   4.756   4.667
    1ECLIPH111R28035   0.763   4.810   4.620
    1ECLIPH111S28036   0.705   4.648   4.670
    1ECLIP C11228037   0.552   4.775   4.582
    1ECLIPH112R28038   0.474   4.701   4.611
    1ECLIPH112S28039   0.510   4.876   4.601
    1ECLIP C11328040   0.581   4.763   4.431
    1ECLIPH113R28041   0.668   4.827   4.406
    1ECLIPH113S28042   0.610   4.658   4.407
    1ECLIP C11428043   0.464   4.806   4.341
    1ECLIPH114R28044   0.375   4.741   4.358
    1ECLIPH114S28045   0.435   4.910   4.363
    1ECLIPH114T28046   0.493   4.799   4.233
    2AKDO    C128047   0.523   5.482   6.851
    2AKDO   O1128048   0.452   5.580   6.884
    2AKDO   O1228049   0.638   5.487   6.799
    2AKDO    C228050   0.479   5.342   6.905
    2AKDO    C628051   0.301   5.231   7.020
    2AKDO    H628052   0.300   5.161   6.933
    2AKDO    O628053   0.354   5.357   6.976
    2AKDO    C328054   0.577   5.278   7.002
    2AKDO   H3128055   0.592   5.349   7.087
    2AKDO   H3228056   0.674   5.265   6.950
    2AKDO    C428057   0.528   5.146   7.054
    2AKDO    H428058   0.516   5.076   6.969
    2AKDO    O428059   0.616   5.088   7.150
    2AKDO    C528060   0.394   5.164   7.122
    2AKDO    H528061   0.355   5.060   7.134
    2AKDO    O528062   0.409   5.226   7.253
    2AKDO    C728063   0.154   5.256   7.049
    2AKDO    H728064   0.143   5.329   7.132
    2AKDO    O728065   0.089   5.133   7.082
    2AKDO   HO728066   0.055   5.099   6.998
    2AKDO    C828067   0.093   5.316   6.921
    2AKDO   H8128068   0.141   5.414   6.901
    2AKDO   H8228069   0.117   5.251   6.834
    2AKDO    O828070  -0.048   5.340   6.924
    2AKDO   HO828071  -0.061   5.388   6.842
    3AKDO    C128072   0.734   4.924   6.999
    3AKDO   O1128073   0.835   4.913   6.924
    3AKDO   O1228074   0.650   4.833   7.023
    3AKDO    C228075   0.741   5.035   7.111
    3AKDO    C628076   0.856   5.238   7.179
    3AKDO    H628077   0.759   5.287   7.201
    3AKDO    O628078   0.839   5.136   7.076
    3AKDO    C328079   0.782   4.969   7.243
    3AKDO   H3128080   0.875   4.910   7.228
    3AKDO   H3228081   0.703   4.897   7.273
    3AKDO    C428082   0.799   5.071   7.352
    3AKDO    H428083   0.706   5.128   7.367
    3AKDO    O428084   0.832   5.006   7.474
    3AKDO   HO428085   0.750   4.980   7.516
    3AKDO    C528086   0.905   5.168   7.304
    3AKDO    H528087   0.926   5.242   7.385
    3AKDO    O528088   1.025   5.101   7.270
    3AKDO   HO528089   1.009   5.074   7.179
    3AKDO    C728090   0.952   5.346   7.130
    3AKDO    H728091   1.048   5.297   7.102
    3AKDO    O728092   0.976   5.441   7.235
    3AKDO   HO728093   1.024   5.510   7.188
    3AKDO    C828094   0.901   5.422   7.009
    3AKDO   H8128095   0.884   5.351   6.924
    3AKDO   H8228096   0.803   5.471   7.031
    3AKDO    O828097   0.996   5.522   6.967
    3AKDO   HO828098   1.083   5.482   6.965
    4AHEP    C128099   0.312   5.185   7.347
    4AHEP    H128100   0.215   5.225   7.311
    4AHEP    C528101   0.408   4.973   7.408
    4AHEP    H528102   0.500   5.005   7.355
    4AHEP    O528103   0.295   5.042   7.351
    4AHEP    C228104   0.330   5.238   7.491
    4AHEP    H228105   0.357   5.345   7.481
    4AHEP    O228106   0.210   5.234   7.571
    4AHEP   HO228107   0.154   5.301   7.532
    4AHEP    C328108   0.444   5.170   7.564
    4AHEP    H328109   0.541   5.196   7.517
    4AHEP    O328110   0.438   5.208   7.704
    4AHEP    C428111   0.415   5.020   7.554
    4AHEP    H428112   0.306   5.006   7.573
    4AHEP    O428113   0.497   4.936   7.637
    4AHEP    P428114   0.422   4.872   7.771
    4AHEP  OP4228115   0.505   4.759   7.827
    4AHEP  OP4328116   0.284   4.834   7.720
    4AHEP  OP4428117   0.392   4.990   7.860
    4AHEP    C628118   0.397   4.821   7.389
    4AHEP    H628119   0.492   4.775   7.424
    4AHEP    O628120   0.289   4.763   7.466
    4AHEP   HO628121   0.303   4.787   7.558
    4AHEP    C728122   0.377   4.785   7.242
    4AHEP   H7128123   0.382   4.675   7.228
    4AHEP   H7228124   0.459   4.830   7.182
    4AHEP    O728125   0.252   4.832   7.190
    4AHEP   HO728126   0.241   4.921   7.226
    5AHEP    C128127   0.553   5.272   7.759
    5AHEP    H128128   0.643   5.237   7.705
    5AHEP    C528129   0.444   5.480   7.827
    5AHEP    H528130   0.345   5.442   7.793
    5AHEP    O528131   0.547   5.416   7.748
    5AHEP    C228132   0.573   5.240   7.908
    5AHEP    H228133   0.572   5.130   7.919
    5AHEP    O228134   0.701   5.283   7.954
    5AHEP   HO228135   0.691   5.374   7.981
    5AHEP    C328136   0.460   5.299   7.992
    5AHEP    H328137   0.365   5.258   7.952
    5AHEP    O328138   0.472   5.268   8.131
    5AHEP    C428139   0.460   5.450   7.976
    5AHEP    H428140   0.557   5.492   8.010
    5AHEP    O428141   0.350   5.511   8.046
    5AHEP    P428142   0.372   5.593   8.189
    5AHEP  OP4228143   0.247   5.675   8.216
    5AHEP  OP4328144   0.494   5.683   8.174
    5AHEP  OP4428145   0.391   5.489   8.297
    5AHEP    C628146   0.450   5.630   7.796
    5AHEP    H628147   0.375   5.683   7.859
    5AHEP    O628148   0.581   5.683   7.823
    5AHEP   HO628149   0.615   5.688   7.734
    5AHEP    C728150   0.417   5.654   7.649
    5AHEP   H7128151   0.354   5.746   7.644
    5AHEP   H7228152   0.354   5.573   7.605
    5AHEP    O728153   0.534   5.681   7.570
    6AHEP    C128154   0.573   5.572   7.490
    6AHEP    H128155   0.524   5.478   7.521
    6AHEP    C528156   0.599   5.715   7.299
    6AHEP    H528157   0.566   5.800   7.362
    6AHEP    O528158   0.538   5.595   7.352
    6AHEP    C228159   0.723   5.557   7.506
    6AHEP    H228160   0.744   5.549   7.615
    6AHEP    O228161   0.773   5.436   7.448
    6AHEP   HO228162   0.838   5.458   7.382
    6AHEP    C328163   0.790   5.681   7.454
    6AHEP    H328164   0.752   5.768   7.512
    6AHEP    O328165   0.932   5.679   7.472
    6AHEP   HO328166   0.972   5.730   7.403
    6AHEP    C428167   0.751   5.703   7.309
    6AHEP    H428168   0.783   5.614   7.250
    6AHEP    O428169   0.814   5.817   7.252
    6AHEP   HO428170   0.823   5.801   7.158
    6AHEP    C628171   0.553   5.749   7.157
    6AHEP    H628172   0.583   5.854   7.136
    6AHEP    O628173   0.626   5.668   7.065
    6AHEP   HO628174   0.564   5.633   7.000
    6AHEP    C728175   0.402   5.741   7.134
    6AHEP   H7128176   0.381   5.780   7.031
    6AHEP   H7228177   0.353   5.809   7.205
    6AHEP    O728178   0.343   5.611   7.146
    6AHEP   HO728179   0.371   5.563   7.068
    7AGLC    C128180   0.397   5.158   8.177
    7AGLC    H128181   0.301   5.149   8.123
    7AGLC    C528182   0.602   5.045   8.226
    7AGLC    H528183   0.657   5.132   8.186
    7AGLC    O528184   0.473   5.038   8.162
    7AGLC    C228185   0.372   5.171   8.326
    7AGLC    H228186   0.328   5.074   8.358
    7AGLC    O228187   0.274   5.269   8.356
    7AGLC   HO228188   0.313   5.353   8.334
    7AGLC    C328189   0.501   5.189   8.405
    7AGLC    H328190   0.554   5.278   8.365
    7AGLC    O328191   0.476   5.205   8.547
    7AGLC    C428192   0.584   5.064   8.377
    7AGLC    H428193   0.527   4.976   8.415
    7AGLC    O428194   0.709   5.067   8.443
    7AGLC   HO428195   0.742   4.977   8.452
    7AGLC    C628196   0.673   4.919   8.179
    7AGLC   H6128197   0.638   4.892   8.076
    7AGLC   H6228198   0.782   4.941   8.169
    7AGLC    O628199   0.658   4.805   8.266
    7AGLC   HO628200   0.740   4.801   8.314
    8AGLC    C128201   0.527   5.327   8.601
    8AGLC    H128202   0.626   5.348   8.556
    8AGLC    C528203   0.311   5.433   8.628
    8AGLC    H528204   0.263   5.337   8.601
    8AGLC    O528205   0.443   5.439   8.570
    8AGLC    C228206   0.540   5.325   8.752
    8AGLC    H228207   0.591   5.419   8.782
    8AGLC    O228208   0.617   5.213   8.797
    8AGLC    C328209   0.408   5.319   8.825
    8AGLC    H328210   0.356   5.227   8.788
    8AGLC    O328211   0.434   5.300   8.966
    8AGLC    C428212   0.324   5.437   8.781
    8AGLC    H428213   0.374   5.533   8.807
    8AGLC    O428214   0.195   5.435   8.840
    8AGLC   HO428215   0.144   5.493   8.783
    8AGLC    C628216   0.233   5.543   8.557
    8AGLC   H6128217   0.302   5.619   8.516
    8AGLC   H6228218   0.183   5.498   8.469
    8AGLC    O628219   0.133   5.612   8.635
    8AGLC   HO628220   0.080   5.654   8.568
    9AGAL    C128221   0.753   5.209   8.761
    9AGAL    H128222   0.765   5.210   8.651
    9AGAL    C528223   0.810   5.323   8.962
    9AGAL    H528224   0.701   5.322   8.984
    9AGAL    O528225   0.824   5.320   8.818
    9AGAL    C228226   0.804   5.078   8.816
    9AGAL    H228227   0.910   5.063   8.785
    9AGAL    O228228   0.720   4.981   8.747
    9AGAL    C328229   0.794   5.079   8.969
    9AGAL    H328230   0.687   5.093   8.995
    9AGAL    O328231   0.835   4.956   9.028
    9AGAL   HO328232   0.772   4.891   8.997
    9AGAL    C428233   0.870   5.198   9.024
    9AGAL    H428234   0.855   5.202   9.134
    9AGAL    O428235   1.011   5.190   9.000
    9AGAL   HO428236   1.046   5.279   8.993
    9AGAL    C628237   0.858   5.456   9.017
    9AGAL   H6128238   0.791   5.537   8.981
    9AGAL   H6228239   0.855   5.454   9.128
    9AGAL    O628240   0.990   5.487   8.976
    9AGAL   HO628241   0.987   5.492   8.879
   10AGAL    C128242   0.705   4.847   8.786
   10AGAL    H128243   0.805   4.799   8.793
   10AGAL    C528244   0.504   4.898   8.906
   10AGAL    H528245   0.516   5.005   8.877
   10AGAL    O528246   0.634   4.835   8.911
   10AGAL    C228247   0.621   4.778   8.679
   10AGAL    H228248   0.607   4.672   8.712
   10AGAL    O228249   0.690   4.773   8.556
   10AGAL   HO228250   0.668   4.695   8.504
   10AGAL    C328251   0.485   4.845   8.667
   10AGAL    H328252   0.502   4.953   8.643
   10AGAL    O328253   0.405   4.790   8.561
   10AGAL   HO328254   0.453   4.798   8.478
   10AGAL    C428255   0.414   4.835   8.799
   10AGAL    H428256   0.320   4.893   8.793
   10AGAL    O428257   0.380   4.700   8.828
   10AGAL   HO428258   0.351   4.662   8.745
   10AGAL    C628259   0.444   4.897   9.045
   10AGAL   H6128260   0.507   4.958   9.113
   10AGAL   H6228261   0.342   4.942   9.043
   10AGAL    O628262   0.435   4.764   9.099
   10AGAL   HO628263   0.399   4.710   9.028
   11BGLC    C128264   0.425   5.408   9.058
   11BGLC    H128265   0.318   5.435   9.072
   11BGLC    C528266   0.494   5.630   9.110
   11BGLC    H528267   0.387   5.654   9.128
   11BGLC    O528268   0.501   5.522   9.016
   11BGLC    C228269   0.486   5.356   9.188
   11BGLC    H228270   0.592   5.329   9.168
   11BGLC    O228271   0.421   5.238   9.235
   11BGLC   HO228272   0.390   5.190   9.158
   11BGLC    C328273   0.485   5.464   9.295
   11BGLC    H328274   0.381   5.489   9.325
   11BGLC    O328275   0.562   5.419   9.410
   11BGLC    C428276   0.557   5.585   9.242
   11BGLC    H428277   0.663   5.559   9.222
   11BGLC    O428278   0.555   5.691   9.337
   11BGLC   HO428279   0.628   5.681   9.398
   11BGLC    C628280   0.563   5.750   9.047
   11BGLC   H6128281   0.659   5.772   9.098
   11BGLC   H6228282   0.587   5.728   8.941
   11BGLC    O628283   0.481   5.868   9.049
   11BGLC   HO628284   0.487   5.911   8.964
   12BGLCN   C128285   0.495   5.401   9.531
   12BGLCN   H128286   0.424   5.316   9.523
   12BGLCN   C528287   0.363   5.512   9.697
   12BGLCN   H528288   0.287   5.431   9.696
   12BGLCN   O528289   0.426   5.521   9.569
   12BGLCN   C228290   0.605   5.372   9.634
   12BGLCN   H228291   0.668   5.464   9.636
   12BGLCN    N28292   0.690   5.262   9.589
   12BGLCN   HN28293   0.647   5.195   9.528
   12BGLCN    C28294   0.822   5.255   9.608
   12BGLCN    O28295   0.885   5.335   9.676
   12BGLCN   CT28296   0.892   5.139   9.542
   12BGLCN  HT128297   0.969   5.098   9.611
   12BGLCN  HT228298   0.941   5.173   9.450
   12BGLCN  HT328299   0.820   5.058   9.517
   12BGLCN   C328300   0.545   5.354   9.773
   12BGLCN   H328301   0.475   5.268   9.769
   12BGLCN   O328302   0.646   5.331   9.873
   12BGLCN   C428303   0.468   5.482   9.804
   12BGLCN   H428304   0.541   5.566   9.802
   12BGLCN   O428305   0.408   5.481   9.932
   12BGLCN  HO428306   0.326   5.431   9.931
   12BGLCN   C628307   0.295   5.646   9.717
   12BGLCN  H6128308   0.260   5.656   9.822
   12BGLCN  H6228309   0.368   5.727   9.698
   12BGLCN   O628310   0.182   5.662   9.630
   12BGLCN  HO628311   0.212   5.647   9.540
   13AGAL    C128312   0.610   5.251   9.984
   13AGAL    H128313   0.505   5.271  10.016
   13AGAL    C528314   0.756   5.072   9.920
   13AGAL    H528315   0.787   5.135   9.834
   13AGAL    O528316   0.621   5.110   9.954
   13AGAL    C228317   0.701   5.278  10.103
   13AGAL    H228318   0.674   5.201  10.179
   13AGAL    O228319   0.679   5.407  10.164
   13AGAL    C328320   0.846   5.249  10.068
   13AGAL    H328321   0.871   5.309   9.977
   13AGAL    O328322   0.937   5.288  10.170
   13AGAL   HO328323   1.026   5.300  10.137
   13AGAL    C428324   0.856   5.101  10.033
   13AGAL    H428325   0.958   5.079   9.997
   13AGAL    O428326   0.832   5.016  10.146
   13AGAL   HO428327   0.782   4.941  10.113
   13AGAL    C628328   0.755   4.928   9.870
   13AGAL   H6128329   0.677   4.917   9.792
   13AGAL   H6228330   0.853   4.907   9.821
   13AGAL    O628331   0.733   4.829   9.971
   13AGAL   HO628332   0.778   4.748   9.946
   14ARHM    C128333   0.621   5.405  10.293
   14ARHM    H128334   0.554   5.316  10.300
   14ARHM    C528335   0.604   5.641  10.315
   14ARHM    H528336   0.652   5.656  10.216
   14ARHM    O528337   0.533   5.516  10.315
   14ARHM    C228338   0.727   5.396  10.403
   14ARHM    H228339   0.795   5.312  10.377
   14ARHM    O228340   0.678   5.374  10.536
   14ARHM    C328341   0.806   5.525  10.403
   14ARHM    H328342   0.855   5.537  10.304
   14ARHM    O328343   0.909   5.522  10.502
   14ARHM   HO328344   0.879   5.468  10.575
   14ARHM    C428345   0.711   5.641  10.424
   14ARHM    H428346   0.660   5.628  10.523
   14ARHM    O428347   0.778   5.767  10.427
   14ARHM   HO428348   0.747   5.819  10.502
   14ARHM    C628349   0.496   5.749  10.334
   14ARHM   H6128350   0.420   5.741  10.253
   14ARHM   H6228351   0.444   5.735  10.431
   14ARHM   H6328352   0.541   5.850  10.330
   15ARHM    C128353   0.593   5.263  10.554
   15ARHM    H128354   0.624   5.179  10.490
   15ARHM    C528355   0.408   5.406  10.608
   15ARHM    H528356   0.472   5.495  10.592
   15ARHM    O528357   0.456   5.298  10.528
   15ARHM    C228358   0.602   5.220  10.700
   15ARHM    H228359   0.708   5.196  10.722
   15ARHM    O228360   0.523   5.100  10.712
   15ARHM    C328361   0.556   5.332  10.789
   15ARHM    H328362   0.619   5.421  10.766
   15ARHM    O328363   0.576   5.298  10.926
   15ARHM    C428364   0.413   5.366  10.755
   15ARHM    H428365   0.350   5.276  10.769
   15ARHM    O428366   0.361   5.470  10.839
   15ARHM   HO428367   0.279   5.500  10.801
   15ARHM    C628368   0.267   5.441  10.558
   15ARHM   H6128369   0.226   5.530  10.611
   15ARHM   H6228370   0.270   5.464  10.450
   15ARHM   H6328371   0.199   5.354  10.573
   16BMANN   C128372   0.523   5.031  10.834
   16BMANN   H128373   0.472   5.090  10.912
   16BMANN   C528374   0.654   4.922  11.002
   16BMANN   H528375   0.599   4.982  11.078
   16BMANN   O528376   0.656   4.995  10.877
   16BMANN   C228377   0.444   4.905  10.806
   16BMANN   H228378   0.340   4.938  10.783
   16BMANN    N28379   0.494   4.833  10.690
   16BMANN   HN28380   0.591   4.844  10.669
   16BMANN    C28381   0.418   4.762  10.608
   16BMANN    O28382   0.297   4.750  10.622
   16BMANN   CT28383   0.489   4.695  10.492
   16BMANN  HT128384   0.432   4.605  10.464
   16BMANN  HT228385   0.592   4.667  10.523
   16BMANN  HT328386   0.493   4.765  10.406
   16BMANN   C328387   0.438   4.822  10.933
   16BMANN   H328388   0.388   4.884  11.012
   16BMANN   O328389   0.360   4.704  10.918
   16BMANN  HO328390   0.351   4.664  11.005
   16BMANN   C428391   0.578   4.791  10.981
   16BMANN   H428392   0.631   4.734  10.902
   16BMANN   O428393   0.578   4.712  11.099
   16BMANN  HO428394   0.605   4.623  11.075
   16BMANN   C628395   0.795   4.902  11.051
   16BMANN  H6128396   0.797   4.830  11.137
   16BMANN  H6228397   0.858   4.859  10.970
   16BMANN   O628398   0.853   5.025  11.097
   16BMANN  HO628399   0.948   5.019  11.085
   17BGLCN   C128400   0.630   5.404  11.002
   17BGLCN   H128401   0.571   5.497  10.984
   17BGLCN   C528402   0.825   5.533  11.043
   17BGLCN   H528403   0.768   5.626  11.022
   17BGLCN   O528404   0.767   5.425  10.968
   17BGLCN   C228405   0.621   5.363  11.145
   17BGLCN   H228406   0.690   5.277  11.158
   17BGLCN    N28407   0.487   5.317  11.177
   17BGLCN   HN28408   0.416   5.349  11.116
   17BGLCN    C28409   0.459   5.230  11.274
   17BGLCN    O28410   0.543   5.177  11.345
   17BGLCN   CT28411   0.312   5.199  11.293
   17BGLCN  HT128412   0.288   5.104  11.239
   17BGLCN  HT228413   0.250   5.280  11.250
   17BGLCN  HT328414   0.290   5.187  11.401
   17BGLCN   C328415   0.673   5.479  11.231
   17BGLCN   H328416   0.617   5.569  11.196
   17BGLCN   O328417   0.647   5.459  11.371
   17BGLCN   C428418   0.819   5.502  11.193
   17BGLCN   H428419   0.874   5.408  11.211
   17BGLCN   O428420   0.881   5.606  11.267
   17BGLCN  HO428421   0.975   5.590  11.273
   17BGLCN   C628422   0.967   5.554  10.995
   17BGLCN  H6128423   1.009   5.649  11.036
   17BGLCN  H6228424   1.026   5.470  11.038
   17BGLCN   O628425   0.984   5.551  10.853
   17BGLCN  HO628426   0.966   5.636  10.813
   18AGAL    C128427   0.630   5.578  11.446
   18AGAL    H128428   0.726   5.634  11.453
   18AGAL    C528429   0.401   5.603  11.380
   18AGAL    H528430   0.411   5.505  11.331
   18AGAL    O528431   0.531   5.665  11.387
   18AGAL    C228432   0.585   5.552  11.589
   18AGAL    H228433   0.572   5.653  11.634
   18AGAL    O228434   0.686   5.484  11.665
   18AGAL    C328435   0.449   5.482  11.589
   18AGAL    H328436   0.460   5.388  11.530
   18AGAL    O328437   0.405   5.445  11.720
   18AGAL   HO328438   0.335   5.380  11.717
   18AGAL    C428439   0.348   5.573  11.520
   18AGAL    H428440   0.252   5.519  11.510
   18AGAL    O428441   0.324   5.691  11.596
   18AGAL   HO428442   0.305   5.666  11.686
   18AGAL    C628443   0.312   5.685  11.290
   18AGAL   H6128444   0.352   5.680  11.186
   18AGAL   H6228445   0.209   5.644  11.288
   18AGAL    O628446   0.307   5.822  11.328
   18AGAL   HO628447   0.378   5.836  11.391
   19ARHM    C128448   0.692   5.528  11.800
   19ARHM    H128449   0.594   5.570  11.831
   19ARHM    C528450   0.924   5.586  11.793
   19ARHM    H528451   0.930   5.556  11.686
   19ARHM    O528452   0.790   5.630  11.821
   19ARHM    C228453   0.722   5.407  11.885
   19ARHM    H228454   0.655   5.325  11.853
   19ARHM    O228455   0.696   5.435  12.026
   19ARHM    C328456   0.862   5.356  11.857
   19ARHM    H328457   0.868   5.325  11.750
   19ARHM    O328458   0.893   5.242  11.936
   19ARHM   HO328459   0.988   5.234  11.934
   19ARHM    C428460   0.961   5.468  11.880
   19ARHM    H428461   0.954   5.499  11.986
   19ARHM    O428462   1.096   5.426  11.856
   19ARHM   HO428463   1.116   5.436  11.762
   19ARHM    C628464   1.017   5.707  11.814
   19ARHM   H6128465   0.992   5.788  11.743
   19ARHM   H6228466   1.006   5.746  11.918
   19ARHM   H6328467   1.123   5.679  11.798
   20ARHM    C128468   0.558   5.440  12.054
   20ARHM    H128469   0.500   5.396  11.971
   20ARHM    C528470   0.559   5.639  12.186
   20ARHM    H528471   0.670   5.642  12.179
   20ARHM    O528472   0.506   5.573  12.071
   20ARHM    C228473   0.530   5.357  12.177
   20ARHM    H228474   0.588   5.262  12.169
   20ARHM    O228475   0.390   5.324  12.187
   20ARHM    C328476   0.582   5.424  12.301
   20ARHM    H328477   0.692   5.434  12.293
   20ARHM    O328478   0.548   5.343  12.415
   20ARHM    C428479   0.519   5.561  12.311
   20ARHM    H428480   0.408   5.550  12.311
   20ARHM    O428481   0.556   5.631  12.430
   20ARHM   HO428482   0.503   5.710  12.436
   20ARHM    C628483   0.508   5.784  12.186
   20ARHM   H6128484   0.397   5.786  12.193
   20ARHM   H6228485   0.549   5.842  12.272
   20ARHM   H6328486   0.540   5.835  12.092
   21BMANN   C128487   0.355   5.211  12.111
   21BMANN   H128488   0.440   5.179  12.047
   21BMANN   C528489   0.217   5.126  11.937
   21BMANN   H528490   0.311   5.098  11.885
   21BMANN   O528491   0.245   5.239  12.023
   21BMANN   C228492   0.321   5.098  12.207
   21BMANN   H228493   0.417   5.074  12.259
   21BMANN    N28494   0.227   5.138  12.312
   21BMANN   HN28495   0.175   5.221  12.297
   21BMANN    C28496   0.224   5.084  12.436
   21BMANN    O28497   0.282   4.980  12.464
   21BMANN   CT28498   0.142   5.155  12.540
   21BMANN  HT128499   0.034   5.142  12.519
   21BMANN  HT228500   0.167   5.263  12.540
   21BMANN  HT328501   0.166   5.112  12.640
   21BMANN   C328502   0.287   4.976  12.123
   21BMANN   H328503   0.377   4.951  12.062
   21BMANN   O328504   0.259   4.861  12.203
   21BMANN  HO328505   0.195   4.885  12.269
   21BMANN   C428506   0.175   5.009  12.026
   21BMANN   H428507   0.086   5.040  12.083
   21BMANN   O428508   0.138   4.898  11.943
   21BMANN  HO428509   0.050   4.868  11.971
   21BMANN   C628510   0.118   5.161  11.828
   21BMANN  H6128511   0.111   5.077  11.755
   21BMANN  H6228512   0.017   5.175  11.870
   21BMANN   O628513   0.156   5.279  11.755
   21BMANN  HO628514   0.084   5.341  11.759
   22BGLCN   C128515   0.646   5.337  12.513
   22BGLCN   H128516   0.710   5.429  12.513
   22BGLCN   C528517   0.823   5.204  12.600
   22BGLCN   H528518   0.888   5.294  12.604
   22BGLCN   O528519   0.725   5.219  12.496
   22BGLCN   C228520   0.568   5.327  12.642
   22BGLCN   H228521   0.508   5.234  12.637
   22BGLCN    N28522   0.476   5.439  12.652
   22BGLCN   HN28523   0.502   5.519  12.599
   22BGLCN    C28524   0.356   5.438  12.713
   22BGLCN    O28525   0.309   5.340  12.769
   22BGLCN   CT28526   0.277   5.566  12.706
   22BGLCN  HT128527   0.207   5.561  12.618
   22BGLCN  HT228528   0.345   5.653  12.693
   22BGLCN  HT328529   0.219   5.578  12.798
   22BGLCN   C328530   0.666   5.314  12.759
   22BGLCN   H328531   0.733   5.403  12.755
   22BGLCN   O328532   0.591   5.316  12.880
   22BGLCN   C428533   0.750   5.190  12.734
   22BGLCN   H428534   0.682   5.103  12.727
   22BGLCN   O428535   0.844   5.162  12.838
   22BGLCN  HO428536   0.842   5.068  12.853
   22BGLCN   C628537   0.907   5.084  12.564
   22BGLCN  H6128538   0.985   5.066  12.641
   22BGLCN  H6228539   0.843   4.994  12.557
   22BGLCN   O628540   0.972   5.105  12.437
   22BGLCN  HO628541   0.906   5.134  12.374
   23AGAL    C128542   0.659   5.351  12.998
   23AGAL    H128543   0.729   5.270  13.027
   23AGAL    C528544   0.649   5.587  12.956
   23AGAL    H528545   0.590   5.564  12.863
   23AGAL    O528546   0.733   5.474  12.985
   23AGAL    C228547   0.558   5.367  13.111
   23AGAL    H228548   0.614   5.387  13.206
   23AGAL    O228549   0.479   5.247  13.128
   23AGAL    C328550   0.467   5.485  13.086
   23AGAL    H328551   0.409   5.464  12.993
   23AGAL    O328552   0.373   5.503  13.193
   23AGAL   HO328553   0.420   5.550  13.262
   23AGAL    C428554   0.549   5.611  13.068
   23AGAL    H428555   0.482   5.694  13.037
   23AGAL    O428556   0.615   5.651  13.189
   23AGAL   HO428557   0.693   5.700  13.159
   23AGAL    C628558   0.736   5.707  12.920
   23AGAL   H6128559   0.796   5.684  12.829
   23AGAL   H6228560   0.670   5.794  12.895
   23AGAL    O628561   0.824   5.746  13.026
   23AGAL   HO628562   0.899   5.685  13.024
   24ARHM    C128563   0.531   5.150  13.215
   24ARHM    H128564   0.641   5.163  13.222
   24ARHM    C528565   0.372   4.983  13.158
   24ARHM    H528566   0.323   5.048  13.082
   24ARHM    O528567   0.510   5.017  13.166
   24ARHM    C228568   0.467   5.169  13.352
   24ARHM    H228569   0.479   5.276  13.381
   24ARHM    O228570   0.526   5.082  13.450
   24ARHM    C328571   0.320   5.140  13.343
   24ARHM    H328572   0.273   5.210  13.272
   24ARHM    O328573   0.259   5.159  13.471
   24ARHM   HO328574   0.303   5.100  13.533
   24ARHM    C428575   0.303   4.998  13.293
   24ARHM    H428576   0.351   4.928  13.363
   24ARHM    O428577   0.165   4.964  13.283
   24ARHM   HO428578   0.155   4.869  13.280
   24ARHM    C628579   0.374   4.838  13.107
   24ARHM   H6128580   0.271   4.797  13.095
   24ARHM   H6228581   0.425   4.832  13.009
   24ARHM   H6328582   0.430   4.773  13.179
   25ARHM    C128583   0.643   5.135  13.506
   25ARHM    H128584   0.686   5.211  13.437
   25ARHM    C528585   0.714   4.937  13.617
   25ARHM    H528586   0.623   4.883  13.583
   25ARHM    O528587   0.748   5.038  13.523
   25ARHM    C228588   0.607   5.201  13.635
   25ARHM    H228589   0.516   5.263  13.620
   25ARHM    O228590   0.711   5.285  13.686
   25ARHM    C328591   0.570   5.098  13.738
   25ARHM    H328592   0.480   5.043  13.703
   25ARHM    O328593   0.541   5.168  13.859
   25ARHM    C428594   0.685   5.001  13.755
   25ARHM    H428595   0.776   5.057  13.786
   25ARHM    O428596   0.656   4.902  13.853
   25ARHM   HO428597   0.738   4.867  13.888
   25ARHM    C628598   0.832   4.838  13.617
   25ARHM   H6128599   0.845   4.796  13.516
   25ARHM   H6228600   0.925   4.890  13.648
   25ARHM   H6328601   0.813   4.754  13.687
   26BMANN   C128602   0.718   5.410  13.623
   26BMANN   H128603   0.619   5.442  13.583
   26BMANN   C528604   0.832   5.536  13.456
   26BMANN   H528605   0.731   5.571  13.425
   26BMANN   O528606   0.815   5.407  13.517
   26BMANN   C228607   0.762   5.504  13.734
   26BMANN   H228608   0.674   5.512  13.801
   26BMANN    N28609   0.874   5.454  13.811
   26BMANN   HN28610   0.945   5.407  13.759
   26BMANN    C28611   0.887   5.467  13.944
   26BMANN    O28612   0.799   5.514  14.016
   26BMANN   CT28613   1.017   5.419  14.003
   26BMANN  HT128614   1.051   5.327  13.950
   26BMANN  HT228615   1.002   5.396  14.111
   26BMANN  HT328616   1.093   5.498  13.993
   26BMANN   C328617   0.783   5.640  13.673
   26BMANN   H328618   0.687   5.672  13.627
   26BMANN   O328619   0.812   5.738  13.773
   26BMANN  HO328620   0.899   5.725  13.811
   26BMANN   C428621   0.885   5.633  13.561
   26BMANN   H428622   0.981   5.593  13.602
   26BMANN   O428623   0.913   5.761  13.506
   26BMANN  HO428624   0.943   5.815  13.581
   26BMANN   C628625   0.912   5.523  13.328
   26BMANN  H6128626   0.876   5.434  13.270
   26BMANN  H6228627   0.895   5.612  13.263
   26BMANN   O628628   1.053   5.509  13.349
   26BMANN  HO628629   1.089   5.595  13.373
   27BGLCN   C128630   0.437   5.114  13.934
   27BGLCN   H128631   0.436   5.003  13.927
   27BGLCN   C528632   0.202   5.120  13.971
   27BGLCN   H528633   0.198   5.009  13.963
   27BGLCN   O528634   0.312   5.169  13.892
   27BGLCN   C228635   0.466   5.158  14.076
   27BGLCN   H228636   0.461   5.269  14.078
   27BGLCN    N28637   0.602   5.119  14.116
   27BGLCN   HN28638   0.642   5.043  14.065
   27BGLCN    C28639   0.678   5.187  14.203
   27BGLCN    O28640   0.638   5.288  14.260
   27BGLCN   CT28641   0.817   5.135  14.227
   27BGLCN  HT128642   0.832   5.038  14.175
   27BGLCN  HT228643   0.833   5.122  14.335
   27BGLCN  HT328644   0.890   5.209  14.189
   27BGLCN   C328645   0.358   5.106  14.168
   27BGLCN   H328646   0.358   4.995  14.161
   27BGLCN   O328647   0.392   5.147  14.302
   27BGLCN   C428648   0.225   5.158  14.117
   27BGLCN   H428649   0.226   5.269  14.124
   27BGLCN   O428650   0.116   5.109  14.196
   27BGLCN  HO428651   0.111   5.013  14.184
   27BGLCN   C628652   0.074   5.179  13.915
   27BGLCN  H6128653  -0.009   5.163  13.986
   27BGLCN  H6228654   0.087   5.288  13.901
   27BGLCN   O628655   0.034   5.121  13.790
   27BGLCN  HO628656  -0.061   5.134  13.783
   28AGAL    C128657   0.325   5.087  14.410
   28AGAL    H128658   0.221   5.127  14.416
   28AGAL    C528659   0.450   4.883  14.393
   28AGAL    H528660   0.513   4.933  14.316
   28AGAL    O528661   0.319   4.944  14.394
   28AGAL    C228662   0.391   5.117  14.545
   28AGAL    H228663   0.328   5.061  14.616
   28AGAL    O228664   0.390   5.257  14.585
   28AGAL    C328665   0.531   5.056  14.548
   28AGAL    H328666   0.590   5.101  14.466
   28AGAL    O328667   0.601   5.085  14.669
   28AGAL   HO328668   0.675   5.142  14.649
   28AGAL    C428669   0.520   4.906  14.527
   28AGAL    H428670   0.622   4.863  14.521
   28AGAL    O428671   0.451   4.842  14.633
   28AGAL   HO428672   0.506   4.850  14.711
   28AGAL    C628673   0.443   4.737  14.350
   28AGAL   H6128674   0.436   4.733  14.239
   28AGAL   H6228675   0.536   4.684  14.379
   28AGAL    O628676   0.331   4.666  14.404
   28AGAL   HO628677   0.282   4.628  14.330
   29ARHM    C128678   0.364   5.274  14.724
   29ARHM    H128679   0.375   5.176  14.775
   29ARHM    C528680   0.213   5.457  14.699
   29ARHM    H528681   0.224   5.457  14.589
   29ARHM    O528682   0.231   5.323  14.748
   29ARHM    C228683   0.463   5.367  14.793
   29ARHM    H228684   0.566   5.328  14.775
   29ARHM    O228685   0.435   5.368  14.935
   29ARHM    C328686   0.454   5.506  14.737
   29ARHM    H328687   0.475   5.503  14.628
   29ARHM    O328688   0.550   5.592  14.797
   29ARHM   HO328689   0.551   5.675  14.748
   29ARHM    C428690   0.313   5.555  14.761
   29ARHM    H428691   0.294   5.560  14.870
   29ARHM    O428692   0.292   5.686  14.706
   29ARHM   HO428693   0.283   5.679  14.611
   29ARHM    C628694   0.069   5.494  14.738
   29ARHM   H6128695  -0.005   5.426  14.690
   29ARHM   H6228696   0.056   5.487  14.848
   29ARHM   H6328697   0.045   5.598  14.707
   30ARHM    C128698   0.525   5.293  15.013
   30ARHM    H128699   0.628   5.322  14.985
   30ARHM    C528700   0.378   5.104  15.029
   30ARHM    H528701   0.300   5.157  14.970
   30ARHM    O528702   0.508   5.152  14.992
   30ARHM    C228703   0.503   5.322  15.161
   30ARHM    H228704   0.509   5.432  15.177
   30ARHM    O228705   0.603   5.255  15.239
   30ARHM    C328706   0.365   5.275  15.205
   30ARHM    H328707   0.291   5.329  15.143
   30ARHM    O328708   0.337   5.311  15.343
   30ARHM    C428709   0.351   5.127  15.176
   30ARHM    H428710   0.423   5.068  15.236
   30ARHM    O428711   0.219   5.082  15.206
   30ARHM   HO428712   0.157   5.133  15.153
   30ARHM    C628713   0.378   4.956  14.989
   30ARHM   H6128714   0.280   4.908  15.011
   30ARHM   H6228715   0.398   4.946  14.880
   30ARHM   H6328716   0.458   4.902  15.044
   31BMANN   C128717   0.726   5.320  15.252
   31BMANN   H128718   0.713   5.428  15.276
   31BMANN   C528719   0.937   5.363  15.148
   31BMANN   H528720   0.924   5.470  15.175
   31BMANN   O528721   0.807   5.304  15.135
   31BMANN   C228722   0.793   5.246  15.366
   31BMANN   H228723   0.733   5.269  15.457
   31BMANN    N28724   0.790   5.102  15.347
   31BMANN   HN28725   0.783   5.071  15.252
   31BMANN    C28726   0.797   5.013  15.447
   31BMANN    O28727   0.802   5.049  15.564
   31BMANN   CT28728   0.797   4.868  15.410
   31BMANN  HT128729   0.878   4.847  15.336
   31BMANN  HT228730   0.699   4.839  15.366
   31BMANN  HT328731   0.815   4.807  15.501
   31BMANN   C328732   0.931   5.304  15.388
   31BMANN   H328733   0.922   5.411  15.415
   31BMANN   O328734   0.998   5.239  15.496
   31BMANN  HO328735   0.936   5.186  15.545
   31BMANN   C428736   1.010   5.292  15.260
   31BMANN   H428737   1.022   5.185  15.233
   31BMANN   O428738   1.140   5.347  15.276
   31BMANN  HO428739   1.158   5.336  15.369
   31BMANN   C628740   1.017   5.358  15.018
   31BMANN  H6128741   1.106   5.423  15.027
   31BMANN  H6228742   1.053   5.254  15.004
   31BMANN   O628743   0.942   5.396  14.902
   31BMANN  HO628744   0.921   5.490  14.904
   32BGLCN   C128745   0.389   5.230  15.447
   32BGLCN   H128746   0.488   5.188  15.420
   32BGLCN   C528747   0.359   5.036  15.586
   32BGLCN   H528748   0.456   4.995  15.551
   32BGLCN   O528749   0.302   5.121  15.483
   32BGLCN   C228750   0.404   5.318  15.570
   32BGLCN   H228751   0.301   5.338  15.606
   32BGLCN    N28752   0.464   5.447  15.539
   32BGLCN   HN28753   0.524   5.451  15.460
   32BGLCN    C28754   0.428   5.561  15.601
   32BGLCN    O28755   0.353   5.563  15.697
   32BGLCN   CT28756   0.488   5.688  15.546
   32BGLCN  HT128757   0.545   5.668  15.453
   32BGLCN  HT228758   0.555   5.733  15.621
   32BGLCN  HT328759   0.406   5.759  15.523
   32BGLCN   C328760   0.475   5.236  15.678
   32BGLCN   H328761   0.569   5.197  15.633
   32BGLCN   O328762   0.509   5.311  15.796
   32BGLCN   C428763   0.385   5.120  15.711
   32BGLCN   H428764   0.287   5.159  15.748
   32BGLCN   O428765   0.440   5.040  15.815
   32BGLCN  HO428766   0.443   5.093  15.895
   32BGLCN   C628767   0.264   4.920  15.610
   32BGLCN  H6128768   0.296   4.865  15.701
   32BGLCN  H6228769   0.161   4.957  15.628
   32BGLCN   O628770   0.262   4.826  15.502
   32BGLCN  HO628771   0.287   4.740  15.537
   33AGAL    C128772   0.638   5.281  15.846
   33AGAL    H128773   0.661   5.173  15.834
   33AGAL    C528774   0.727   5.499  15.798
   33AGAL    H528775   0.625   5.529  15.765
   33AGAL    O528776   0.739   5.356  15.777
   33AGAL    C228777   0.647   5.313  15.995
   33AGAL    H228778   0.750   5.286  16.027
   33AGAL    O228779   0.555   5.229  16.068
   33AGAL    C328780   0.627   5.462  16.019
   33AGAL    H328781   0.528   5.489  15.975
   33AGAL    O328782   0.621   5.499  16.156
   33AGAL   HO328783   0.710   5.509  16.190
   33AGAL    C428784   0.736   5.537  15.945
   33AGAL    H428785   0.716   5.646  15.954
   33AGAL    O428786   0.865   5.513  16.000
   33AGAL   HO428787   0.879   5.568  16.077
   33AGAL    C628788   0.826   5.572  15.709
   33AGAL   H6128789   0.799   5.555  15.602
   33AGAL   H6228790   0.821   5.681  15.729
   33AGAL    O628791   0.960   5.528  15.729
   33AGAL   HO628792   0.969   5.509  15.823
   34ARHM    C128793   0.604   5.184  16.193
   34ARHM    H128794   0.650   5.269  16.249
   34ARHM    C528795   0.651   4.962  16.115
   34ARHM    H528796   0.622   4.987  16.011
   34ARHM    O528797   0.701   5.080  16.179
   34ARHM    C228798   0.484   5.133  16.270
   34ARHM    H228799   0.409   5.215  16.272
   34ARHM    O228800   0.512   5.092  16.405
   34ARHM    C328801   0.424   5.015  16.198
   34ARHM    H328802   0.396   5.044  16.095
   34ARHM    O328803   0.305   4.970  16.262
   34ARHM   HO328804   0.290   4.879  16.233
   34ARHM    C428805   0.530   4.907  16.190
   34ARHM    H428806   0.562   4.880  16.293
   34ARHM    O428807   0.481   4.789  16.127
   34ARHM   HO428808   0.516   4.712  16.173
   34ARHM    C628809   0.770   4.866  16.111
   34ARHM   H6128810   0.804   4.842  16.214
   34ARHM   H6228811   0.743   4.771  16.060
   34ARHM   H6328812   0.855   4.912  16.057
   35ARHM    C128813   0.556   5.190  16.495
   35ARHM    H128814   0.501   5.285  16.478
   35ARHM    C528815   0.773   5.091  16.502
   35ARHM    H528816   0.744   5.017  16.425
   35ARHM    O528817   0.697   5.212  16.485
   35ARHM    C228818   0.526   5.135  16.634
   35ARHM    H228819   0.418   5.113  16.640
   35ARHM    O228820   0.562   5.224  16.741
   35ARHM    C328821   0.601   5.004  16.654
   35ARHM    H328822   0.572   4.934  16.573
   35ARHM    O328823   0.566   4.939  16.776
   35ARHM   HO328824   0.551   5.005  16.844
   35ARHM    C428825   0.749   5.031  16.640
   35ARHM    H428826   0.782   5.105  16.717
   35ARHM    O428827   0.826   4.912  16.658
   35ARHM   HO428828   0.768   4.843  16.690
   35ARHM    C628829   0.919   5.130  16.476
   35ARHM   H6128830   0.930   5.171  16.373
   35ARHM   H6228831   0.952   5.206  16.549
   35ARHM   H6328832   0.985   5.041  16.485
   36BMANN   C128833   0.492   5.346  16.742
   36BMANN   H128834   0.387   5.329  16.710
   36BMANN   C528835   0.483   5.569  16.656
   36BMANN   H528836   0.380   5.546  16.620
   36BMANN   O528837   0.555   5.444  16.659
   36BMANN   C228838   0.493   5.399  16.885
   36BMANN   H228839   0.442   5.323  16.948
   36BMANN    N28840   0.629   5.413  16.936
   36BMANN   HN28841   0.702   5.404  16.869
   36BMANN    C28842   0.662   5.432  17.065
   36BMANN    O28843   0.580   5.436  17.156
   36BMANN   CT28844   0.808   5.452  17.094
   36BMANN  HT128845   0.847   5.538  17.035
   36BMANN  HT228846   0.864   5.360  17.067
   36BMANN  HT328847   0.822   5.473  17.202
   36BMANN   C328848   0.410   5.526  16.886
   36BMANN   H328849   0.310   5.502  16.846
   36BMANN   O328850   0.389   5.576  17.018
   36BMANN  HO328851   0.450   5.532  17.078
   36BMANN   C428852   0.474   5.629  16.795
   36BMANN   H428853   0.575   5.654  16.832
   36BMANN   O428854   0.396   5.749  16.792
   36BMANN  HO428855   0.358   5.757  16.880
   36BMANN   C628856   0.545   5.660  16.551
   36BMANN  H6128857   0.574   5.600  16.463
   36BMANN  H6228858   0.470   5.734  16.518
   36BMANN   O628859   0.660   5.732  16.599
   36BMANN  HO628860   0.630   5.814  16.639
    1ECLIP HB6S28861   2.763   0.340   6.667
    1ECLIP  OB628862   2.920   0.411   6.785
    1ECLIP  CB628863   2.813   0.437   6.690
    1ECLIP HB6R28864   2.738   0.505   6.735
    1ECLIP  CB528865   2.854   0.501   6.561
    1ECLIP  OB528866   2.966   0.431   6.505
    1ECLIP  HB528867   2.885   0.605   6.583
    1ECLIP  CB128868   3.022   0.499   6.392
    1ECLIP  HB128869   3.055   0.600   6.424
    1ECLIP  OA628870   3.130   0.432   6.334
    1ECLIP  CA628871   3.152   0.299   6.382
    1ECLIP HA6R28872   3.056   0.247   6.400
    1ECLIP HA6S28873   3.209   0.304   6.478
    1ECLIP  CB428874   2.743   0.506   6.453
    1ECLIP  HB428875   2.725   0.401   6.419
    1ECLIP  OB428876   2.626   0.561   6.514
    1ECLIP   PB28877   2.476   0.496   6.499
    1ECLIP OPB428878   2.392   0.513   6.624
    1ECLIP OPB328879   2.480   0.348   6.466
    1ECLIP OPB228880   2.404   0.555   6.379
    1ECLIP  CB328881   2.799   0.586   6.335
    1ECLIP  OB328882   2.699   0.602   6.233
    1ECLIP  HB328883   2.831   0.684   6.377
    1ECLIP  C7128884   2.714   0.711   6.156
    1ECLIP  O7128885   2.801   0.795   6.170
    1ECLIP  C7228886   2.622   0.709   6.036
    1ECLIP H72R28887   2.686   0.703   5.945
    1ECLIP H72S28888   2.567   0.805   6.035
    1ECLIP  CB228889   2.921   0.511   6.280
    1ECLIP  HB228890   2.887   0.407   6.257
    1ECLIP  NB228891   2.984   0.566   6.160
    1ECLIP HNB228892   3.046   0.643   6.174
    1ECLIP  CA428893   3.327   0.307   6.197
    1ECLIP  HA428894   3.274   0.394   6.153
    1ECLIP  OA428895   3.433   0.352   6.281
    1ECLIP HOA428896   3.507   0.292   6.267
    1ECLIP  CA528897   3.231   0.222   6.278
    1ECLIP  HA528898   3.286   0.140   6.330
    1ECLIP  OA528899   3.130   0.165   6.193
    1ECLIP  CA128900   3.184   0.079   6.092
    1ECLIP  HA128901   3.100   0.037   6.032
    1ECLIP  OA128902   3.259  -0.026   6.150
    1ECLIP OPA228903   3.331  -0.157   6.352
    1ECLIP OPA328904   3.082  -0.154   6.302
    1ECLIP OPA428905   3.262  -0.269   6.153
    1ECLIP   PA28906   3.222  -0.154   6.245
    1ECLIP  CA328907   3.384   0.225   6.084
    1ECLIP  HA328908   3.431   0.136   6.131
    1ECLIP  OA328909   3.494   0.300   6.033
    1ECLIP  C3128910   3.501   0.377   5.931
    1ECLIP  O3128911   3.426   0.381   5.834
    1ECLIP  C3228912   3.607   0.483   5.964
    1ECLIP H32R28913   3.667   0.501   5.873
    1ECLIP H32S28914   3.675   0.441   6.042
    1ECLIP  CA228915   3.271   0.167   5.998
    1ECLIP  HA228916   3.209   0.253   5.964
    1ECLIP  NA228917   3.318   0.097   5.880
    1ECLIP HNA228918   3.414   0.068   5.882
    1ECLIP  C7328919   2.523   0.592   6.039
    1ECLIP H73R28920   2.467   0.599   6.135
    1ECLIP  O7328921   2.597   0.472   6.026
    1ECLIP  C8128922   2.557   0.369   6.098
    1ECLIP  O8128923   2.449   0.363   6.158
    1ECLIP  C8228924   2.626   0.243   6.047
    1ECLIP H82R28925   2.571   0.156   6.089
    1ECLIP H82S28926   2.730   0.242   6.087
    1ECLIP  C8328927   2.629   0.237   5.893
    1ECLIP H83R28928   2.698   0.315   5.858
    1ECLIP H83S28929   2.528   0.258   5.851
    1ECLIP  C8428930   2.677   0.102   5.841
    1ECLIP H84R28931   2.599   0.024   5.858
    1ECLIP H84S28932   2.768   0.072   5.898
    1ECLIP  C8528933   2.712   0.111   5.693
    1ECLIP H85R28934   2.795   0.184   5.682
    1ECLIP H85S28935   2.625   0.150   5.636
    1ECLIP  C8628936   2.757  -0.022   5.631
    1ECLIP H86R28937   2.670  -0.090   5.623
    1ECLIP H86S28938   2.831  -0.070   5.700
    1ECLIP  C8728939   2.824  -0.004   5.495
    1ECLIP H87R28940   2.844  -0.105   5.450
    1ECLIP H87S28941   2.922   0.046   5.509
    1ECLIP  C8828942   2.741   0.080   5.398
    1ECLIP H88R28943   2.733   0.183   5.439
    1ECLIP H88S28944   2.638   0.039   5.391
    1ECLIP  C8928945   2.802   0.092   5.257
    1ECLIP H89R28946   2.911   0.111   5.266
    1ECLIP H89S28947   2.756   0.182   5.210
    1ECLIP C81028948   2.776  -0.030   5.168
    1ECLIPH810R28949   2.668  -0.055   5.170
    1ECLIPH810S28950   2.831  -0.117   5.212
    1ECLIP C81128951   2.821  -0.010   5.023
    1ECLIPH811R28952   2.813  -0.106   4.969
    1ECLIPH811S28953   2.928   0.020   5.023
    1ECLIP C81228954   2.743   0.098   4.945
    1ECLIPH812R28955   2.794   0.118   4.849
    1ECLIPH812S28956   2.744   0.193   5.003
    1ECLIP C81328957   2.597   0.062   4.915
    1ECLIPH813R28958   2.594  -0.026   4.847
    1ECLIPH813S28959   2.545   0.034   5.009
    1ECLIP C81428960   2.522   0.179   4.851
    1ECLIPH814R28961   2.578   0.219   4.764
    1ECLIPH814S28962   2.509   0.261   4.925
    1ECLIPH814T28963   2.421   0.148   4.816
    1ECLIP  C7428964   2.420   0.597   5.924
    1ECLIP H74R28965   2.366   0.694   5.924
    1ECLIP H74S28966   2.347   0.517   5.945
    1ECLIP  C7528967   2.472   0.567   5.780
    1ECLIP H75R28968   2.388   0.521   5.724
    1ECLIP H75S28969   2.553   0.491   5.785
    1ECLIP  C7628970   2.518   0.689   5.700
    1ECLIP H76R28971   2.613   0.728   5.743
    1ECLIP H76S28972   2.442   0.769   5.707
    1ECLIP  C7728973   2.542   0.654   5.552
    1ECLIP H77R28974   2.448   0.614   5.509
    1ECLIP H77S28975   2.619   0.574   5.545
    1ECLIP  C7828976   2.589   0.776   5.471
    1ECLIP H78R28977   2.507   0.852   5.469
    1ECLIP H78S28978   2.674   0.820   5.528
    1ECLIP  C7928979   2.635   0.746   5.328
    1ECLIP H79R28980   2.726   0.682   5.332
    1ECLIP H79S28981   2.665   0.841   5.280
    1ECLIP C71028982   2.531   0.675   5.241
    1ECLIPH710R28983   2.505   0.577   5.287
    1ECLIPH710S28984   2.438   0.737   5.237
    1ECLIP C71128985   2.582   0.651   5.098
    1ECLIPH711R28986   2.605   0.749   5.051
    1ECLIPH711S28987   2.678   0.594   5.104
    1ECLIP C71228988   2.482   0.572   5.012
    1ECLIPH712R28989   2.390   0.632   5.002
    1ECLIPH712S28990   2.455   0.479   5.068
    1ECLIP C71328991   2.537   0.534   4.874
    1ECLIPH713R28992   2.628   0.472   4.888
    1ECLIPH713S28993   2.461   0.472   4.822
    1ECLIP C71428994   2.572   0.654   4.785
    1ECLIPH714R28995   2.483   0.719   4.771
    1ECLIPH714S28996   2.653   0.715   4.830
    1ECLIPH714T28997   2.606   0.619   4.686
    1ECLIP  C5128998   2.975   0.515   6.035
    1ECLIP  O5128999   2.897   0.424   6.009
    1ECLIP  C5229000   3.069   0.574   5.931
    1ECLIP H52R29001   3.046   0.682   5.919
    1ECLIP H52S29002   3.172   0.563   5.969
    1ECLIP  C5329003   3.060   0.505   5.792
    1ECLIP H53R29004   3.067   0.394   5.806
    1ECLIP  O5329005   3.172   0.556   5.719
    1ECLIP  C6129006   3.238   0.473   5.637
    1ECLIP  O6129007   3.195   0.367   5.596
    1ECLIP  C6229008   3.336   0.561   5.556
    1ECLIP H62R29009   3.392   0.627   5.627
    1ECLIP H62S29010   3.271   0.624   5.491
    1ECLIP  C6329011   3.435   0.482   5.467
    1ECLIP H63R29012   3.376   0.408   5.408
    1ECLIP H63S29013   3.506   0.426   5.531
    1ECLIP  C6429014   3.514   0.567   5.365
    1ECLIP H64R29015   3.577   0.498   5.304
    1ECLIP H64S29016   3.582   0.636   5.419
    1ECLIP  C6529017   3.423   0.649   5.273
    1ECLIP H65R29018   3.375   0.726   5.337
    1ECLIP H65S29019   3.342   0.583   5.233
    1ECLIP  C6629020   3.492   0.724   5.157
    1ECLIP H66R29021   3.572   0.789   5.200
    1ECLIP H66S29022   3.416   0.791   5.112
    1ECLIP  C6729023   3.550   0.637   5.045
    1ECLIP H67R29024   3.638   0.580   5.083
    1ECLIP H67S29025   3.587   0.705   4.965
    1ECLIP  C6829026   3.450   0.538   4.983
    1ECLIP H68R29027   3.352   0.589   4.969
    1ECLIP H68S29028   3.434   0.454   5.054
    1ECLIP  C6929029   3.498   0.483   4.848
    1ECLIP H69R29030   3.603   0.449   4.858
    1ECLIP H69S29031   3.497   0.567   4.774
    1ECLIP C61029032   3.412   0.367   4.797
    1ECLIPH610R29033   3.306   0.399   4.792
    1ECLIPH610S29034   3.417   0.284   4.872
    1ECLIP C61129035   3.455   0.312   4.661
    1ECLIPH611R29036   3.561   0.278   4.669
    1ECLIPH611S29037   3.394   0.223   4.637
    1ECLIP C61229038   3.442   0.413   4.546
    1ECLIPH612R29039   3.337   0.448   4.537
    1ECLIPH612S29040   3.507   0.501   4.563
    1ECLIPH612T29041   3.472   0.366   4.450
    1ECLIP  C5429042   2.929   0.541   5.719
    1ECLIP H54R29043   2.930   0.649   5.691
    1ECLIP H54S29044   2.845   0.526   5.790
    1ECLIP  C5529045   2.896   0.455   5.595
    1ECLIP H55R29046   2.786   0.441   5.589
    1ECLIP H55S29047   2.941   0.354   5.609
    1ECLIP  C5629048   2.943   0.515   5.462
    1ECLIP H56R29049   3.052   0.538   5.467
    1ECLIP H56S29050   2.891   0.611   5.443
    1ECLIP  C5729051   2.921   0.418   5.344
    1ECLIP H57R29052   2.811   0.403   5.332
    1ECLIP H57S29053   2.966   0.320   5.372
    1ECLIP  C5829054   2.983   0.467   5.214
    1ECLIP H58R29055   2.944   0.570   5.193
    1ECLIP H58S29056   3.093   0.475   5.226
    1ECLIP  C5929057   2.949   0.377   5.094
    1ECLIP H59R29058   2.838   0.377   5.084
    1ECLIP H59S29059   2.982   0.273   5.115
    1ECLIP C51029060   3.010   0.427   4.962
    1ECLIPH510R29061   3.119   0.405   4.957
    1ECLIPH510S29062   3.000   0.537   4.964
    1ECLIP C51129063   2.938   0.378   4.837
    1ECLIPH511R29064   2.990   0.289   4.795
    1ECLIPH511S29065   2.835   0.345   4.865
    1ECLIP C51229066   2.919   0.487   4.730
    1ECLIPH512R29067   2.861   0.442   4.646
    1ECLIPH512S29068   2.858   0.569   4.771
    1ECLIP C51329069   3.049   0.545   4.674
    1ECLIPH513R29070   3.123   0.463   4.660
    1ECLIPH513S29071   3.096   0.615   4.747
    1ECLIP C51429072   3.026   0.616   4.540
    1ECLIPH514R29073   2.965   0.708   4.556
    1ECLIPH514S29074   3.123   0.645   4.495
    1ECLIPH514T29075   2.973   0.549   4.469
    1ECLIP  C3329076   3.546   0.615   6.016
    1ECLIP H33R29077   3.627   0.682   6.050
    1ECLIP  O3329078   3.457   0.592   6.123
    1ECLIP HO3329079   3.474   0.515   6.179
    1ECLIP  C3429080   3.469   0.687   5.903
    1ECLIP H34R29081   3.393   0.616   5.866
    1ECLIP H34S29082   3.539   0.708   5.819
    1ECLIP  C3529083   3.393   0.817   5.938
    1ECLIP H35R29084   3.462   0.899   5.966
    1ECLIP H35S29085   3.322   0.797   6.020
    1ECLIP  C3629086   3.314   0.853   5.811
    1ECLIP H36R29087   3.264   0.759   5.780
    1ECLIP H36S29088   3.385   0.882   5.730
    1ECLIP  C3729089   3.202   0.957   5.821
    1ECLIP H37R29090   3.247   1.058   5.829
    1ECLIP H37S29091   3.142   0.940   5.913
    1ECLIP  C3829092   3.106   0.951   5.700
    1ECLIP H38R29093   3.017   0.891   5.727
    1ECLIP H38S29094   3.070   1.054   5.676
    1ECLIP  C3929095   3.166   0.887   5.572
    1ECLIP H39R29096   3.181   0.779   5.592
    1ECLIP H39S29097   3.265   0.933   5.549
    1ECLIP C31029098   3.076   0.896   5.448
    1ECLIPH310R29099   3.055   1.003   5.429
    1ECLIPH310S29100   2.981   0.844   5.471
    1ECLIP C31129101   3.135   0.833   5.320
    1ECLIPH311R29102   3.232   0.880   5.297
    1ECLIPH311S29103   3.150   0.724   5.337
    1ECLIP C31229104   3.040   0.852   5.201
    1ECLIPH312R29105   2.941   0.812   5.230
    1ECLIPH312S29106   3.031   0.962   5.186
    1ECLIP C31329107   3.082   0.791   5.068
    1ECLIPH313R29108   3.164   0.851   5.024
    1ECLIPH313S29109   3.122   0.689   5.087
    1ECLIP C31429110   2.964   0.781   4.969
    1ECLIPH314R29111   2.915   0.879   4.947
    1ECLIPH314S29112   2.998   0.741   4.872
    1ECLIPH314T29113   2.885   0.715   5.010
    1ECLIP  C1129114   3.240   0.071   5.773
    1ECLIP  O1129115   3.125   0.113   5.764
    1ECLIP  C1229116   3.295  -0.024   5.668
    1ECLIP H12R29117   3.238  -0.119   5.681
    1ECLIP H12S29118   3.403  -0.045   5.688
    1ECLIP  C1329119   3.277   0.026   5.523
    1ECLIP H13R29120   3.177   0.072   5.511
    1ECLIP  O1329121   3.284  -0.088   5.438
    1ECLIP HO1329122   3.269  -0.066   5.346
    1ECLIP  C1429123   3.387   0.123   5.476
    1ECLIP H14R29124   3.485   0.084   5.511
    1ECLIP H14S29125   3.370   0.220   5.528
    1ECLIP  C1529126   3.398   0.145   5.323
    1ECLIP H15R29127   3.434   0.050   5.278
    1ECLIP H15S29128   3.478   0.220   5.304
    1ECLIP  C1629129   3.270   0.191   5.250
    1ECLIP H16R29130   3.259   0.301   5.263
    1ECLIP H16S29131   3.180   0.145   5.294
    1ECLIP  C1729132   3.275   0.158   5.099
    1ECLIP H17R29133   3.376   0.184   5.061
    1ECLIP H17S29134   3.201   0.220   5.044
    1ECLIP  C1829135   3.244   0.010   5.070
    1ECLIP H18R29136   3.299  -0.051   5.146
    1ECLIP H18S29137   3.136  -0.011   5.085
    1ECLIP  C1929138   3.292  -0.039   4.933
    1ECLIP H19R29139   3.311  -0.148   4.941
    1ECLIP H19S29140   3.390   0.010   4.910
    1ECLIP C11029141   3.194  -0.019   4.816
    1ECLIPH110R29142   3.099  -0.071   4.840
    1ECLIPH110S29143   3.171   0.089   4.802
    1ECLIP C11129144   3.255  -0.078   4.688
    1ECLIPH111R29145   3.338  -0.012   4.655
    1ECLIPH111S29146   3.297  -0.177   4.714
    1ECLIP C11229147   3.158  -0.102   4.571
    1ECLIPH112R29148   3.109  -0.200   4.587
    1ECLIPH112S29149   3.079  -0.024   4.571
    1ECLIP C11329150   3.231  -0.102   4.436
    1ECLIPH113R29151   3.274  -0.001   4.420
    1ECLIPH113S29152   3.315  -0.173   4.443
    1ECLIP C11429153   3.143  -0.139   4.318
    1ECLIPH114R29154   3.060  -0.065   4.306
    1ECLIPH114S29155   3.202  -0.140   4.223
    1ECLIPH114T29156   3.097  -0.239   4.332
    2AKDO    C129157   2.968   0.639   6.846
    2AKDO   O1129158   2.875   0.717   6.813
    2AKDO   O1229159   3.088   0.671   6.872
    2AKDO    C229160   2.924   0.498   6.896
    2AKDO    C629161   2.747   0.378   7.005
    2AKDO    H629162   2.754   0.311   6.917
    2AKDO    O629163   2.796   0.506   6.964
    2AKDO    C329164   3.021   0.433   6.997
    2AKDO   H3129165   3.032   0.500   7.085
    2AKDO   H3229166   3.119   0.422   6.948
    2AKDO    C429167   2.972   0.299   7.044
    2AKDO    H429168   2.958   0.238   6.952
    2AKDO    O429169   3.064   0.234   7.132
    2AKDO    C529170   2.836   0.310   7.111
    2AKDO    H529171   2.799   0.206   7.122
    2AKDO    O529172   2.841   0.371   7.245
    2AKDO    C729173   2.597   0.391   7.024
    2AKDO    H729174   2.574   0.455   7.112
    2AKDO    O729175   2.537   0.262   7.038
    2AKDO   HO729176   2.452   0.274   6.995
    2AKDO    C829177   2.539   0.457   6.898
    2AKDO   H8129178   2.583   0.558   6.884
    2AKDO   H8229179   2.568   0.396   6.809
    2AKDO    O829180   2.397   0.471   6.896
    2AKDO   HO829181   2.381   0.504   6.807
    3AKDO    C129182   3.147   0.061   6.969
    3AKDO   O1129183   3.248   0.001   6.921
    3AKDO   O1229184   3.028   0.018   6.959
    3AKDO    C229185   3.179   0.167   7.082
    3AKDO    C629186   3.320   0.357   7.148
    3AKDO    H629187   3.227   0.412   7.174
    3AKDO    O629188   3.286   0.260   7.043
    3AKDO    C329189   3.226   0.097   7.210
    3AKDO   H3129190   3.316   0.036   7.186
    3AKDO   H3229191   3.148   0.026   7.245
    3AKDO    C429192   3.260   0.192   7.321
    3AKDO    H429193   3.172   0.255   7.346
    3AKDO    O429194   3.295   0.120   7.439
    3AKDO   HO429195   3.221   0.118   7.500
    3AKDO    C529196   3.369   0.285   7.273
    3AKDO    H529197   3.389   0.361   7.352
    3AKDO    O529198   3.491   0.217   7.245
    3AKDO   HO529199   3.478   0.172   7.161
    3AKDO    C729200   3.422   0.462   7.102
    3AKDO    H729201   3.523   0.416   7.095
    3AKDO    O729202   3.426   0.569   7.198
    3AKDO   HO729203   3.414   0.644   7.141
    3AKDO    C829204   3.390   0.522   6.967
    3AKDO   H8129205   3.388   0.443   6.889
    3AKDO   H8229206   3.290   0.570   6.969
    3AKDO    O829207   3.489   0.622   6.932
    3AKDO   HO829208   3.537   0.589   6.856
    4AHEP    C129209   2.747   0.318   7.335
    4AHEP    H129210   2.647   0.333   7.288
    4AHEP    C529211   2.874   0.137   7.431
    4AHEP    H529212   2.960   0.189   7.384
    4AHEP    O529213   2.758   0.176   7.353
    4AHEP    C229214   2.738   0.383   7.474
    4AHEP    H229215   2.753   0.491   7.455
    4AHEP    O229216   2.607   0.375   7.532
    4AHEP   HO229217   2.552   0.436   7.483
    4AHEP    C329218   2.854   0.342   7.566
    4AHEP    H329219   2.948   0.385   7.525
    4AHEP    O329220   2.827   0.389   7.701
    4AHEP    C429221   2.864   0.191   7.576
    4AHEP    H429222   2.773   0.150   7.625
    4AHEP    O429223   2.983   0.160   7.649
    4AHEP    P429224   3.000   0.043   7.766
    4AHEP  OP4229225   3.129   0.070   7.841
    4AHEP  OP4329226   3.003  -0.090   7.694
    4AHEP  OP4429227   2.881   0.048   7.860
    4AHEP    C629228   2.903  -0.012   7.412
    4AHEP    H629229   3.011  -0.028   7.436
    4AHEP    O629230   2.827  -0.092   7.503
    4AHEP   HO629231   2.881  -0.087   7.582
    4AHEP    C729232   2.878  -0.060   7.269
    4AHEP   H7129233   2.914  -0.164   7.256
    4AHEP   H7229234   2.936   0.005   7.200
    4AHEP    O729235   2.739  -0.053   7.231
    4AHEP   HO729236   2.708   0.019   7.288
    5AHEP    C129237   2.937   0.439   7.773
    5AHEP    H129238   3.031   0.403   7.726
    5AHEP    C529239   2.822   0.641   7.833
    5AHEP    H529240   2.733   0.595   7.786
    5AHEP    O529241   2.938   0.582   7.770
    5AHEP    C229242   2.939   0.401   7.919
    5AHEP    H229243   2.922   0.291   7.922
    5AHEP    O229244   3.071   0.421   7.972
    5AHEP   HO229245   3.116   0.343   7.941
    5AHEP    C329246   2.820   0.462   7.995
    5AHEP    H329247   2.726   0.418   7.957
    5AHEP    O329248   2.830   0.444   8.138
    5AHEP    C429249   2.816   0.612   7.983
    5AHEP    H429250   2.898   0.663   8.036
    5AHEP    O429251   2.685   0.658   8.023
    5AHEP    P429252   2.639   0.742   8.157
    5AHEP  OP4229253   2.486   0.742   8.157
    5AHEP  OP4329254   2.690   0.884   8.142
    5AHEP  OP4429255   2.695   0.672   8.280
    5AHEP    C629256   2.827   0.787   7.793
    5AHEP    H629257   2.743   0.840   7.844
    5AHEP    O629258   2.950   0.849   7.833
    5AHEP   HO629259   2.939   0.944   7.821
    5AHEP    C729260   2.806   0.791   7.641
    5AHEP   H7129261   2.730   0.870   7.625
    5AHEP   H7229262   2.760   0.698   7.603
    5AHEP    O729263   2.921   0.825   7.562
    6AHEP    C129264   3.000   0.714   7.523
    6AHEP    H129265   2.952   0.617   7.549
    6AHEP    C529266   3.075   0.828   7.326
    6AHEP    H529267   3.012   0.913   7.359
    6AHEP    O529268   3.018   0.708   7.381
    6AHEP    C229269   3.136   0.728   7.587
    6AHEP    H229270   3.120   0.735   7.696
    6AHEP    O229271   3.223   0.616   7.565
    6AHEP   HO229272   3.215   0.589   7.473
    6AHEP    C329273   3.196   0.857   7.536
    6AHEP    H329274   3.123   0.938   7.558
    6AHEP    O329275   3.317   0.896   7.601
    6AHEP   HO329276   3.365   0.934   7.528
    6AHEP    C429277   3.213   0.849   7.386
    6AHEP    H429278   3.277   0.762   7.359
    6AHEP    O429279   3.276   0.966   7.333
    6AHEP   HO429280   3.292   0.950   7.240
    6AHEP    C629281   3.071   0.828   7.174
    6AHEP    H629282   3.111   0.924   7.136
    6AHEP    O629283   3.156   0.725   7.124
    6AHEP   HO629284   3.124   0.706   7.035
    6AHEP    C729285   2.928   0.817   7.123
    6AHEP   H7129286   2.925   0.834   7.014
    6AHEP   H7229287   2.873   0.903   7.168
    6AHEP    O729288   2.855   0.699   7.158
    6AHEP   HO729289   2.854   0.645   7.079
    7AGLC    C129290   2.782   0.324   8.189
    7AGLC    H129291   2.685   0.298   8.142
    7AGLC    C529292   3.006   0.247   8.224
    7AGLC    H529293   3.040   0.347   8.190
    7AGLC    O529294   2.876   0.218   8.169
    7AGLC    C229295   2.766   0.340   8.340
    7AGLC    H229296   2.731   0.242   8.379
    7AGLC    O229297   2.662   0.433   8.372
    7AGLC   HO229298   2.682   0.517   8.332
    7AGLC    C329299   2.899   0.372   8.408
    7AGLC    H329300   2.935   0.468   8.365
    7AGLC    O329301   2.891   0.382   8.552
    7AGLC    C429302   2.995   0.260   8.374
    7AGLC    H429303   2.951   0.165   8.411
    7AGLC    O429304   3.124   0.276   8.432
    7AGLC   HO429305   3.158   0.187   8.443
    7AGLC    C629306   3.105   0.146   8.172
    7AGLC   H6129307   3.078   0.123   8.066
    7AGLC   H6229308   3.207   0.188   8.171
    7AGLC    O629309   3.107   0.023   8.245
    7AGLC   HO629310   3.130  -0.044   8.181
    8AGLC    C129311   2.935   0.505   8.606
    8AGLC    H129312   3.027   0.540   8.554
    8AGLC    C529313   2.708   0.569   8.650
    8AGLC    H529314   2.676   0.471   8.608
    8AGLC    O529315   2.835   0.606   8.592
    8AGLC    C229316   2.958   0.492   8.756
    8AGLC    H229317   2.982   0.595   8.792
    8AGLC    O229318   3.065   0.408   8.800
    8AGLC    C329319   2.830   0.444   8.825
    8AGLC    H329320   2.799   0.351   8.773
    8AGLC    O329321   2.853   0.407   8.962
    8AGLC    C429322   2.723   0.549   8.801
    8AGLC    H429323   2.753   0.646   8.845
    8AGLC    O429324   2.598   0.508   8.858
    8AGLC   HO429325   2.531   0.563   8.818
    8AGLC    C629326   2.606   0.672   8.605
    8AGLC   H6129327   2.644   0.725   8.516
    8AGLC   H6229328   2.514   0.619   8.571
    8AGLC    O629329   2.570   0.766   8.707
    8AGLC   HO629330   2.491   0.812   8.679
    9AGAL    C129331   3.191   0.414   8.737
    9AGAL    H129332   3.182   0.416   8.627
    9AGAL    C529333   3.290   0.530   8.922
    9AGAL    H529334   3.191   0.535   8.970
    9AGAL    O529335   3.270   0.527   8.780
    9AGAL    C229336   3.258   0.285   8.780
    9AGAL    H229337   3.356   0.277   8.727
    9AGAL    O229338   3.170   0.186   8.726
    9AGAL    C329339   3.279   0.283   8.929
    9AGAL    H329340   3.180   0.288   8.978
    9AGAL    O329341   3.345   0.165   8.974
    9AGAL   HO329342   3.434   0.173   8.941
    9AGAL    C429343   3.361   0.404   8.970
    9AGAL    H429344   3.366   0.409   9.082
    9AGAL    O429345   3.496   0.394   8.924
    9AGAL   HO429346   3.525   0.483   8.905
    9AGAL    C629347   3.362   0.660   8.955
    9AGAL   H6129348   3.303   0.746   8.918
    9AGAL   H6229349   3.371   0.669   9.066
    9AGAL    O629350   3.493   0.667   8.899
    9AGAL   HO629351   3.486   0.682   8.804
   10AGAL    C129352   3.174   0.051   8.759
   10AGAL    H129353   3.279   0.015   8.759
   10AGAL    C529354   2.973   0.078   8.887
   10AGAL    H529355   2.973   0.185   8.858
   10AGAL    O529356   3.109   0.026   8.886
   10AGAL    C229357   3.096  -0.019   8.648
   10AGAL    H229358   3.094  -0.128   8.667
   10AGAL    O229359   3.163   0.001   8.523
   10AGAL   HO229360   3.117  -0.041   8.450
   10AGAL    C329361   2.951   0.028   8.645
   10AGAL    H329362   2.946   0.136   8.624
   10AGAL    O329363   2.876  -0.043   8.547
   10AGAL   HO329364   2.863   0.005   8.465
   10AGAL    C429365   2.892   0.003   8.783
   10AGAL    H429366   2.787   0.041   8.783
   10AGAL    O429367   2.891  -0.135   8.815
   10AGAL   HO429368   2.834  -0.175   8.748
   10AGAL    C629369   2.915   0.075   9.028
   10AGAL   H6129370   2.956   0.163   9.083
   10AGAL   H6229371   2.805   0.089   9.023
   10AGAL    O629372   2.947  -0.044   9.101
   10AGAL   HO629373   2.924  -0.034   9.194
   11BGLC    C129374   2.846   0.510   9.057
   11BGLC    H129375   2.742   0.546   9.068
   11BGLC    C529376   2.929   0.728   9.109
   11BGLC    H529377   2.826   0.769   9.115
   11BGLC    O529378   2.933   0.616   9.019
   11BGLC    C229379   2.895   0.457   9.193
   11BGLC    H229380   3.001   0.426   9.177
   11BGLC    O229381   2.825   0.341   9.238
   11BGLC   HO229382   2.735   0.342   9.205
   11BGLC    C329383   2.893   0.568   9.294
   11BGLC    H329384   2.788   0.600   9.316
   11BGLC    O329385   2.961   0.524   9.412
   11BGLC    C429386   2.977   0.682   9.245
   11BGLC    H429387   3.082   0.648   9.235
   11BGLC    O429388   2.974   0.790   9.337
   11BGLC   HO429389   2.935   0.759   9.419
   11BGLC    C629390   3.022   0.830   9.047
   11BGLC   H6129391   3.020   0.924   9.106
   11BGLC   H6229392   3.126   0.791   9.049
   11BGLC    O629393   2.987   0.857   8.911
   11BGLC   HO629394   2.959   0.776   8.868
   12BGLCN   C129395   2.895   0.528   9.535
   12BGLCN   H129396   2.821   0.444   9.540
   12BGLCN   C529397   2.775   0.662   9.693
   12BGLCN   H529398   2.697   0.583   9.704
   12BGLCN   O529399   2.832   0.654   9.561
   12BGLCN   C229400   3.009   0.509   9.634
   12BGLCN   H229401   3.067   0.603   9.627
   12BGLCN    N29402   3.099   0.401   9.594
   12BGLCN   HN29403   3.058   0.318   9.556
   12BGLCN    C29404   3.233   0.415   9.594
   12BGLCN    O29405   3.289   0.515   9.634
   12BGLCN   CT29406   3.314   0.298   9.542
   12BGLCN  HT129407   3.385   0.266   9.622
   12BGLCN  HT229408   3.372   0.331   9.454
   12BGLCN  HT329409   3.248   0.214   9.514
   12BGLCN   C329410   2.954   0.503   9.774
   12BGLCN   H329411   2.878   0.422   9.780
   12BGLCN   O329412   3.056   0.478   9.873
   12BGLCN   C429413   2.885   0.637   9.797
   12BGLCN   H429414   2.961   0.717   9.785
   12BGLCN   O429415   2.836   0.651   9.931
   12BGLCN  HO429416   2.742   0.630   9.936
   12BGLCN   C629417   2.708   0.798   9.703
   12BGLCN  H6129418   2.701   0.828   9.809
   12BGLCN  H6229419   2.769   0.875   9.651
   12BGLCN   O629420   2.575   0.800   9.650
   12BGLCN  HO629421   2.574   0.804   9.554
   13AGAL    C129422   3.024   0.384   9.976
   13AGAL    H129423   2.918   0.398  10.007
   13AGAL    C529424   3.179   0.223   9.891
   13AGAL    H529425   3.206   0.297   9.812
   13AGAL    O529426   3.044   0.249   9.931
   13AGAL    C229427   3.116   0.402  10.094
   13AGAL    H229428   3.096   0.316  10.162
   13AGAL    O229429   3.088   0.523  10.167
   13AGAL    C329430   3.262   0.387  10.054
   13AGAL    H329431   3.282   0.458   9.971
   13AGAL    O329432   3.352   0.420  10.160
   13AGAL   HO329433   3.422   0.476  10.127
   13AGAL    C429434   3.281   0.244  10.002
   13AGAL    H429435   3.382   0.240   9.957
   13AGAL    O429436   3.279   0.143  10.103
   13AGAL   HO429437   3.189   0.117  10.125
   13AGAL    C629438   3.185   0.086   9.823
   13AGAL   H6129439   3.123   0.089   9.731
   13AGAL   H6229440   3.289   0.063   9.792
   13AGAL    O629441   3.136  -0.021   9.905
   13AGAL   HO629442   3.192  -0.028   9.983
   14ARHM    C129443   3.024   0.507  10.292
   14ARHM    H129444   2.970   0.410  10.296
   14ARHM    C529445   2.983   0.737  10.306
   14ARHM    H529446   3.023   0.759  10.205
   14ARHM    O529447   2.925   0.607  10.311
   14ARHM    C229448   3.130   0.514  10.400
   14ARHM    H229449   3.203   0.432  10.385
   14ARHM    O229450   3.079   0.509  10.535
   14ARHM    C329451   3.199   0.647  10.391
   14ARHM    H329452   3.245   0.659  10.290
   14ARHM    O329453   3.304   0.659  10.487
   14ARHM   HO329454   3.267   0.641  10.575
   14ARHM    C429455   3.094   0.755  10.410
   14ARHM    H429456   3.050   0.746  10.511
   14ARHM    O429457   3.153   0.883  10.401
   14ARHM   HO429458   3.243   0.878  10.434
   14ARHM    C629459   2.860   0.824  10.333
   14ARHM   H6129460   2.792   0.822  10.247
   14ARHM   H6229461   2.806   0.790  10.424
   14ARHM   H6329462   2.892   0.929  10.352
   15ARHM    C129463   2.988   0.408  10.568
   15ARHM    H129464   3.008   0.316  10.509
   15ARHM    C529465   2.815   0.563  10.632
   15ARHM    H529466   2.876   0.650  10.599
   15ARHM    O529467   2.851   0.448  10.554
   15ARHM    C229468   3.014   0.380  10.714
   15ARHM    H229469   3.121   0.353  10.726
   15ARHM    O229470   2.931   0.268  10.748
   15ARHM    C329471   2.984   0.501  10.799
   15ARHM    H329472   3.048   0.585  10.764
   15ARHM    O329473   3.018   0.468  10.932
   15ARHM    C429474   2.839   0.537  10.780
   15ARHM    H429475   2.775   0.452  10.812
   15ARHM    O429476   2.803   0.650  10.860
   15ARHM   HO429477   2.731   0.698  10.818
   15ARHM    C629478   2.667   0.592  10.598
   15ARHM   H6129479   2.633   0.686  10.648
   15ARHM   H6229480   2.655   0.604  10.488
   15ARHM   H6329481   2.603   0.508  10.631
   16BMANN   C129482   2.955   0.201  10.870
   16BMANN   H129483   2.902   0.253  10.951
   16BMANN   C529484   3.115   0.113  11.022
   16BMANN   H529485   3.058   0.162  11.103
   16BMANN   O529486   3.094   0.187  10.901
   16BMANN   C229487   2.894   0.065  10.844
   16BMANN   H229488   2.785   0.079  10.832
   16BMANN    N29489   2.949   0.008  10.721
   16BMANN   HN29490   3.048  -0.006  10.717
   16BMANN    C29491   2.879  -0.004  10.608
   16BMANN    O29492   2.757   0.006  10.601
   16BMANN   CT29493   2.959  -0.029  10.483
   16BMANN  HT129494   2.926  -0.123  10.434
   16BMANN  HT229495   3.067  -0.037  10.507
   16BMANN  HT329496   2.944   0.056  10.412
   16BMANN   C329497   2.914  -0.021  10.968
   16BMANN   H329498   2.861   0.028  11.054
   16BMANN   O329499   2.857  -0.150  10.950
   16BMANN  HO329500   2.782  -0.162  11.009
   16BMANN   C429501   3.062  -0.028  11.002
   16BMANN   H429502   3.116  -0.076  10.918
   16BMANN   O429503   3.087  -0.105  11.120
   16BMANN  HO429504   3.033  -0.184  11.120
   16BMANN   C629505   3.262   0.117  11.061
   16BMANN  H6129506   3.278   0.060  11.155
   16BMANN  H6229507   3.324   0.069  10.981
   16BMANN   O629508   3.308   0.251  11.082
   16BMANN  HO629509   3.314   0.296  10.998
   17BGLCN   C129510   3.079   0.572  11.005
   17BGLCN   H129511   3.026   0.668  10.986
   17BGLCN   C529512   3.284   0.683  11.057
   17BGLCN   H529513   3.233   0.781  11.041
   17BGLCN   O529514   3.218   0.583  10.975
   17BGLCN   C229515   3.063   0.527  11.148
   17BGLCN   H229516   3.128   0.438  11.158
   17BGLCN    N29517   2.927   0.483  11.176
   17BGLCN   HN29518   2.856   0.521  11.120
   17BGLCN    C29519   2.898   0.388  11.266
   17BGLCN    O29520   2.984   0.330  11.332
   17BGLCN   CT29521   2.752   0.354  11.283
   17BGLCN  HT129522   2.730   0.260  11.228
   17BGLCN  HT229523   2.688   0.436  11.245
   17BGLCN  HT329524   2.731   0.339  11.391
   17BGLCN   C329525   3.121   0.636  11.236
   17BGLCN   H329526   3.077   0.732  11.201
   17BGLCN   O329527   3.084   0.619  11.374
   17BGLCN   C429528   3.270   0.643  11.203
   17BGLCN   H429529   3.314   0.542  11.215
   17BGLCN   O429530   3.342   0.731  11.290
   17BGLCN  HO429531   3.394   0.680  11.352
   17BGLCN   C629532   3.427   0.698  11.006
   17BGLCN  H6129533   3.481   0.770  11.072
   17BGLCN  H6229534   3.479   0.600  11.010
   17BGLCN   O629535   3.431   0.748  10.873
   17BGLCN  HO629536   3.505   0.807  10.859
   18AGAL    C129537   3.060   0.739  11.446
   18AGAL    H129538   3.156   0.794  11.460
   18AGAL    C529539   2.835   0.768  11.366
   18AGAL    H529540   2.849   0.671  11.315
   18AGAL    O529541   2.966   0.827  11.380
   18AGAL    C229542   3.003   0.711  11.583
   18AGAL    H229543   2.985   0.811  11.628
   18AGAL    O229544   3.097   0.642  11.668
   18AGAL    C329545   2.869   0.639  11.572
   18AGAL    H329546   2.885   0.548  11.509
   18AGAL    O329547   2.819   0.592  11.699
   18AGAL   HO329548   2.744   0.533  11.684
   18AGAL    C429549   2.772   0.732  11.502
   18AGAL    H429550   2.678   0.676  11.481
   18AGAL    O429551   2.739   0.847  11.579
   18AGAL   HO429552   2.644   0.858  11.578
   18AGAL    C629553   2.751   0.849  11.269
   18AGAL   H6129554   2.807   0.860  11.175
   18AGAL   H6229555   2.657   0.795  11.248
   18AGAL    O629556   2.718   0.979  11.318
   18AGAL   HO629557   2.799   1.023  11.345
   19ARHM    C129558   3.090   0.688  11.800
   19ARHM    H129559   2.987   0.720  11.826
   19ARHM    C529560   3.314   0.769  11.797
   19ARHM    H529561   3.325   0.732  11.693
   19ARHM    O529562   3.177   0.801  11.824
   19ARHM    C229563   3.129   0.573  11.890
   19ARHM    H229564   3.072   0.484  11.856
   19ARHM    O229565   3.096   0.601  12.027
   19ARHM    C329566   3.274   0.536  11.868
   19ARHM    H329567   3.289   0.504  11.763
   19ARHM    O329568   3.312   0.428  11.953
   19ARHM   HO329569   3.407   0.434  11.967
   19ARHM    C429570   3.358   0.660  11.894
   19ARHM    H429571   3.336   0.695  11.996
   19ARHM    O429572   3.498   0.636  11.887
   19ARHM   HO429573   3.523   0.603  11.800
   19ARHM    C629574   3.392   0.902  11.807
   19ARHM   H6129575   3.355   0.973  11.731
   19ARHM   H6229576   3.379   0.947  11.908
   19ARHM   H6329577   3.500   0.884  11.790
   20ARHM    C129578   2.961   0.576  12.059
   20ARHM    H129579   2.911   0.518  11.978
   20ARHM    C529580   2.930   0.776  12.186
   20ARHM    H529581   3.034   0.809  12.165
   20ARHM    O529582   2.883   0.695  12.078
   20ARHM    C229583   2.959   0.494  12.186
   20ARHM    H229584   3.026   0.406  12.173
   20ARHM    O229585   2.826   0.449  12.217
   20ARHM    C329586   3.011   0.574  12.304
   20ARHM    H329587   3.118   0.600  12.286
   20ARHM    O329588   2.999   0.489  12.418
   20ARHM    C429589   2.927   0.698  12.318
   20ARHM    H429590   2.822   0.669  12.339
   20ARHM    O429591   2.973   0.781  12.425
   20ARHM   HO429592   2.936   0.869  12.412
   20ARHM    C629593   2.837   0.899  12.187
   20ARHM   H6129594   2.733   0.868  12.211
   20ARHM   H6229595   2.869   0.974  12.263
   20ARHM   H6329596   2.837   0.947  12.088
   21BMANN   C129597   2.778   0.348  12.133
   21BMANN   H129598   2.860   0.306  12.069
   21BMANN   C529599   2.620   0.295  11.963
   21BMANN   H529600   2.703   0.256  11.901
   21BMANN   O529601   2.672   0.398  12.050
   21BMANN   C229602   2.723   0.242  12.224
   21BMANN   H229603   2.810   0.203  12.283
   21BMANN    N29604   2.629   0.298  12.321
   21BMANN   HN29605   2.595   0.389  12.300
   21BMANN    C29606   2.600   0.242  12.440
   21BMANN    O29607   2.641   0.131  12.471
   21BMANN   CT29608   2.514   0.323  12.533
   21BMANN  HT129609   2.407   0.298  12.516
   21BMANN  HT229610   2.531   0.431  12.517
   21BMANN  HT329611   2.541   0.298  12.638
   21BMANN   C329612   2.670   0.129  12.138
   21BMANN   H329613   2.753   0.092  12.075
   21BMANN   O329614   2.629   0.019  12.220
   21BMANN  HO329615   2.608   0.052  12.307
   21BMANN   C429616   2.562   0.181  12.047
   21BMANN   H429617   2.477   0.220  12.107
   21BMANN   O429618   2.512   0.080  11.960
   21BMANN  HO429619   2.416   0.086  11.953
   21BMANN   C629620   2.519   0.360  11.870
   21BMANN  H6129621   2.478   0.284  11.800
   21BMANN  H6229622   2.433   0.399  11.929
   21BMANN   O629623   2.577   0.465  11.793
   21BMANN  HO629624   2.607   0.534  11.853
   22BGLCN   C129625   3.095   0.499  12.519
   22BGLCN   H129626   3.149   0.596  12.516
   22BGLCN   C529627   3.273   0.378  12.627
   22BGLCN   H529628   3.328   0.474  12.640
   22BGLCN   O529629   3.186   0.388  12.512
   22BGLCN   C229630   3.010   0.487  12.644
   22BGLCN   H229631   2.955   0.391  12.638
   22BGLCN    N29632   2.911   0.595  12.648
   22BGLCN   HN29633   2.933   0.674  12.592
   22BGLCN    C29634   2.790   0.587  12.706
   22BGLCN    O29635   2.749   0.487  12.762
   22BGLCN   CT29636   2.704   0.709  12.694
   22BGLCN  HT129637   2.640   0.702  12.603
   22BGLCN  HT229638   2.766   0.801  12.687
   22BGLCN  HT329639   2.638   0.716  12.783
   22BGLCN   C329640   3.100   0.480  12.767
   22BGLCN   H329641   3.165   0.570  12.766
   22BGLCN   O329642   3.018   0.485  12.885
   22BGLCN   C429643   3.188   0.357  12.752
   22BGLCN   H429644   3.122   0.269  12.736
   22BGLCN   O429645   3.270   0.328  12.864
   22BGLCN  HO429646   3.279   0.233  12.871
   22BGLCN   C629647   3.376   0.269  12.599
   22BGLCN  H6129648   3.427   0.240  12.694
   22BGLCN  H6229649   3.326   0.178  12.559
   22BGLCN   O629650   3.478   0.313  12.509
   22BGLCN  HO629651   3.440   0.323  12.422
   23AGAL    C129652   3.081   0.528  13.003
   23AGAL    H129653   3.157   0.454  13.036
   23AGAL    C529654   3.052   0.761  12.958
   23AGAL    H529655   2.994   0.731  12.870
   23AGAL    O529656   3.146   0.656  12.988
   23AGAL    C229657   2.980   0.538  13.116
   23AGAL    H229658   3.036   0.560  13.210
   23AGAL    O229659   2.910   0.413  13.130
   23AGAL    C329660   2.880   0.648  13.092
   23AGAL    H329661   2.822   0.623  13.002
   23AGAL    O329662   2.788   0.659  13.201
   23AGAL   HO329663   2.830   0.719  13.263
   23AGAL    C429664   2.954   0.779  13.074
   23AGAL    H429665   2.880   0.857  13.045
   23AGAL    O429666   3.019   0.822  13.193
   23AGAL   HO429667   3.096   0.872  13.163
   23AGAL    C629668   3.128   0.886  12.918
   23AGAL   H6129669   3.193   0.863  12.832
   23AGAL   H6229670   3.056   0.965  12.887
   23AGAL    O629671   3.210   0.938  13.024
   23AGAL   HO629672   3.301   0.913  13.008
   24ARHM    C129673   2.966   0.319  13.217
   24ARHM    H129674   3.076   0.335  13.225
   24ARHM    C529675   2.811   0.152  13.151
   24ARHM    H529676   2.766   0.221  13.078
   24ARHM    O529677   2.949   0.185  13.168
   24ARHM    C229678   2.899   0.338  13.352
   24ARHM    H229679   2.906   0.445  13.380
   24ARHM    O229680   2.962   0.258  13.453
   24ARHM    C329681   2.752   0.306  13.336
   24ARHM    H329682   2.707   0.375  13.262
   24ARHM    O329683   2.681   0.324  13.460
   24ARHM   HO329684   2.602   0.271  13.451
   24ARHM    C429685   2.737   0.164  13.284
   24ARHM    H429686   2.784   0.095  13.356
   24ARHM    O429687   2.599   0.127  13.269
   24ARHM   HO429688   2.591   0.033  13.286
   24ARHM    C629689   2.809   0.010  13.090
   24ARHM   H6129690   2.705  -0.022  13.068
   24ARHM   H6229691   2.868   0.009  12.996
   24ARHM   H6329692   2.854  -0.063  13.161
   25ARHM    C129693   3.078   0.317  13.508
   25ARHM    H129694   3.119   0.393  13.436
   25ARHM    C529695   3.151   0.124  13.625
   25ARHM    H529696   3.064   0.066  13.589
   25ARHM    O529697   3.184   0.223  13.527
   25ARHM    C229698   3.039   0.387  13.634
   25ARHM    H229699   2.951   0.451  13.616
   25ARHM    O229700   3.147   0.467  13.686
   25ARHM    C329701   3.001   0.286  13.738
   25ARHM    H329702   2.912   0.230  13.703
   25ARHM    O329703   2.968   0.361  13.856
   25ARHM    C429704   3.117   0.190  13.759
   25ARHM    H429705   3.205   0.249  13.791
   25ARHM    O429706   3.091   0.091  13.859
   25ARHM   HO429707   3.175   0.050  13.881
   25ARHM    C629708   3.273   0.031  13.631
   25ARHM   H6129709   3.295  -0.009  13.530
   25ARHM   H6229710   3.363   0.087  13.666
   25ARHM   H6329711   3.255  -0.055  13.700
   26BMANN   C129712   3.155   0.598  13.637
   26BMANN   H129713   3.054   0.639  13.616
   26BMANN   C529714   3.254   0.737  13.470
   26BMANN   H529715   3.154   0.776  13.441
   26BMANN   O529716   3.238   0.603  13.522
   26BMANN   C229717   3.221   0.678  13.748
   26BMANN   H229718   3.152   0.674  13.835
   26BMANN    N29719   3.349   0.621  13.786
   26BMANN   HN29720   3.405   0.588  13.710
   26BMANN    C29721   3.395   0.614  13.912
   26BMANN    O29722   3.329   0.647  14.010
   26BMANN   CT29723   3.535   0.563  13.929
   26BMANN  HT129724   3.568   0.508  13.838
   26BMANN  HT229725   3.539   0.494  14.016
   26BMANN  HT329726   3.603   0.648  13.947
   26BMANN   C329727   3.229   0.822  13.703
   26BMANN   H329728   3.127   0.858  13.677
   26BMANN   O329729   3.280   0.904  13.807
   26BMANN  HO329730   3.241   0.991  13.807
   26BMANN   C429731   3.314   0.829  13.576
   26BMANN   H429732   3.418   0.795  13.599
   26BMANN   O429733   3.321   0.963  13.527
   26BMANN  HO429734   3.402   1.000  13.564
   26BMANN   C629735   3.338   0.727  13.343
   26BMANN  H6129736   3.291   0.654  13.274
   26BMANN  H6229737   3.341   0.826  13.293
   26BMANN   O629738   3.473   0.685  13.370
   26BMANN  HO629739   3.513   0.649  13.291
   27BGLCN   C129740   2.869   0.306  13.937
   27BGLCN   H129741   2.872   0.195  13.934
   27BGLCN   C529742   2.637   0.298  13.984
   27BGLCN   H529743   2.644   0.187  13.981
   27BGLCN   O529744   2.739   0.353  13.899
   27BGLCN   C229745   2.900   0.356  14.076
   27BGLCN   H229746   2.890   0.467  14.075
   27BGLCN    N29747   3.039   0.325  14.110
   27BGLCN   HN29748   3.081   0.252  14.058
   27BGLCN    C29749   3.115   0.397  14.193
   27BGLCN    O29750   3.075   0.494  14.255
   27BGLCN   CT29751   3.258   0.351  14.207
   27BGLCN  HT129752   3.279   0.268  14.135
   27BGLCN  HT229753   3.276   0.314  14.311
   27BGLCN  HT329754   3.326   0.436  14.186
   27BGLCN   C329755   2.799   0.299  14.172
   27BGLCN   H329756   2.805   0.188  14.161
   27BGLCN   O329757   2.837   0.335  14.307
   27BGLCN   C429758   2.659   0.342  14.130
   27BGLCN   H429759   2.653   0.453  14.135
   27BGLCN   O429760   2.557   0.288  14.213
   27BGLCN  HO429761   2.547   0.194  14.196
   27BGLCN   C629762   2.502   0.336  13.926
   27BGLCN  H6129763   2.421   0.294  13.991
   27BGLCN  H6229764   2.490   0.446  13.925
   27BGLCN   O629765   2.487   0.283  13.794
   27BGLCN  HO629766   2.547   0.328  13.735
   28AGAL    C129767   2.782   0.257  14.410
   28AGAL    H129768   2.676   0.287  14.424
   28AGAL    C529769   2.922   0.067  14.371
   28AGAL    H529770   2.980   0.133  14.301
   28AGAL    O529771   2.787   0.117  14.377
   28AGAL    C229772   2.850   0.280  14.544
   28AGAL    H229773   2.792   0.216  14.614
   28AGAL    O229774   2.846   0.416  14.593
   28AGAL    C329775   2.992   0.228  14.541
   28AGAL    H329776   3.047   0.283  14.461
   28AGAL    O329777   3.062   0.251  14.663
   28AGAL   HO329778   3.105   0.337  14.660
   28AGAL    C429779   2.990   0.081  14.506
   28AGAL    H429780   3.095   0.044  14.498
   28AGAL    O429781   2.922   0.002  14.603
   28AGAL   HO429782   2.974  -0.003  14.684
   28AGAL    C629783   2.933  -0.072  14.309
   28AGAL   H6129784   2.961  -0.062  14.203
   28AGAL   H6229785   3.016  -0.128  14.359
   28AGAL    O629786   2.814  -0.151  14.316
   28AGAL   HO629787   2.807  -0.189  14.404
   29ARHM    C129788   2.808   0.424  14.728
   29ARHM    H129789   2.831   0.328  14.779
   29ARHM    C529790   2.631   0.579  14.685
   29ARHM    H529791   2.657   0.582  14.577
   29ARHM    O529792   2.667   0.451  14.740
   29ARHM    C229793   2.887   0.532  14.801
   29ARHM    H229794   2.995   0.513  14.782
   29ARHM    O229795   2.861   0.527  14.943
   29ARHM    C329796   2.854   0.668  14.745
   29ARHM    H329797   2.882   0.670  14.637
   29ARHM    O329798   2.927   0.771  14.811
   29ARHM   HO329799   2.876   0.851  14.795
   29ARHM    C429800   2.706   0.690  14.757
   29ARHM    H429801   2.678   0.685  14.865
   29ARHM    O429802   2.667   0.820  14.712
   29ARHM   HO429803   2.665   0.825  14.617
   29ARHM    C629804   2.478   0.589  14.697
   29ARHM   H6129805   2.428   0.505  14.644
   29ARHM   H6229806   2.447   0.587  14.804
   29ARHM   H6329807   2.442   0.685  14.653
   30ARHM    C129808   2.962   0.463  15.018
   30ARHM    H129809   3.061   0.505  14.991
   30ARHM    C529810   2.841   0.257  15.033
   30ARHM    H529811   2.755   0.302  14.979
   30ARHM    O529812   2.964   0.322  14.995
   30ARHM    C229813   2.939   0.488  15.167
   30ARHM    H229814   2.929   0.597  15.183
   30ARHM    O229815   3.047   0.436  15.246
   30ARHM    C329816   2.811   0.421  15.212
   30ARHM    H329817   2.729   0.464  15.150
   30ARHM    O329818   2.777   0.451  15.348
   30ARHM    C429819   2.816   0.273  15.182
   30ARHM    H429820   2.901   0.225  15.235
   30ARHM    O429821   2.695   0.209  15.222
   30ARHM   HO429822   2.681   0.234  15.314
   30ARHM    C629823   2.855   0.112  14.988
   30ARHM   H6129824   2.762   0.055  15.012
   30ARHM   H6229825   2.873   0.107  14.879
   30ARHM   H6329826   2.941   0.064  15.040
   31BMANN   C129827   3.159   0.517  15.267
   31BMANN   H129828   3.129   0.623  15.283
   31BMANN   C529829   3.374   0.582  15.186
   31BMANN   H529830   3.345   0.688  15.204
   31BMANN   O529831   3.254   0.505  15.162
   31BMANN   C229832   3.223   0.459  15.392
   31BMANN   H229833   3.150   0.475  15.475
   31BMANN    N29834   3.245   0.315  15.381
   31BMANN   HN29835   3.251   0.279  15.288
   31BMANN    C29836   3.255   0.233  15.485
   31BMANN    O29837   3.247   0.275  15.600
   31BMANN   CT29838   3.276   0.087  15.457
   31BMANN  HT129839   3.373   0.073  15.404
   31BMANN  HT229840   3.194   0.048  15.393
   31BMANN  HT329841   3.279   0.031  15.553
   31BMANN   C329842   3.347   0.540  15.426
   31BMANN   H329843   3.317   0.646  15.437
   31BMANN   O329844   3.403   0.500  15.551
   31BMANN  HO329845   3.360   0.419  15.579
   31BMANN   C429846   3.445   0.532  15.311
   31BMANN   H429847   3.479   0.427  15.296
   31BMANN   O429848   3.559   0.613  15.337
   31BMANN  HO429849   3.586   0.604  15.429
   31BMANN   C629850   3.460   0.576  15.061
   31BMANN  H6129851   3.565   0.605  15.085
   31BMANN  H6229852   3.462   0.472  15.021
   31BMANN   O629853   3.412   0.665  14.959
   31BMANN  HO629854   3.439   0.754  14.980
   32BGLCN   C129855   2.837   0.375  15.451
   32BGLCN   H129856   2.940   0.344  15.425
   32BGLCN   C529857   2.819   0.183  15.592
   32BGLCN   H529858   2.922   0.153  15.564
   32BGLCN   O529859   2.759   0.259  15.485
   32BGLCN   C229860   2.839   0.466  15.571
   32BGLCN   H229861   2.734   0.481  15.601
   32BGLCN    N29862   2.892   0.597  15.536
   32BGLCN   HN29863   2.946   0.602  15.453
   32BGLCN    C29864   2.852   0.708  15.597
   32BGLCN    O29865   2.783   0.709  15.697
   32BGLCN   CT29866   2.900   0.836  15.534
   32BGLCN  HT129867   2.947   0.817  15.435
   32BGLCN  HT229868   2.974   0.884  15.601
   32BGLCN  HT329869   2.813   0.903  15.520
   32BGLCN   C329870   2.911   0.395  15.684
   32BGLCN   H329871   3.009   0.361  15.643
   32BGLCN   O329872   2.938   0.476  15.801
   32BGLCN   C429873   2.827   0.273  15.715
   32BGLCN   H429874   2.724   0.306  15.742
   32BGLCN   O429875   2.879   0.202  15.826
   32BGLCN  HO429876   2.882   0.261  15.902
   32BGLCN   C629877   2.738   0.056  15.613
   32BGLCN  H6129878   2.781  -0.002  15.698
   32BGLCN  H6229879   2.634   0.082  15.640
   32BGLCN   O629880   2.739  -0.027  15.497
   32BGLCN  HO629881   2.710   0.025  15.421
   33AGAL    C129882   3.069   0.458  15.852
   33AGAL    H129883   3.100   0.352  15.841
   33AGAL    C529884   3.145   0.682  15.804
   33AGAL    H529885   3.042   0.708  15.772
   33AGAL    O529886   3.165   0.541  15.783
   33AGAL    C229887   3.075   0.492  16.001
   33AGAL    H229888   3.178   0.468  16.034
   33AGAL    O229889   2.983   0.408  16.074
   33AGAL    C329890   3.050   0.639  16.025
   33AGAL    H329891   2.949   0.664  15.984
   33AGAL    O329892   3.047   0.673  16.163
   33AGAL   HO329893   3.137   0.692  16.189
   33AGAL    C429894   3.154   0.720  15.951
   33AGAL    H429895   3.131   0.828  15.962
   33AGAL    O429896   3.285   0.697  16.002
   33AGAL   HO429897   3.346   0.713  15.931
   33AGAL    C629898   3.240   0.761  15.716
   33AGAL   H6129899   3.214   0.745  15.609
   33AGAL   H6229900   3.227   0.870  15.737
   33AGAL    O629901   3.377   0.727  15.737
   33AGAL   HO629902   3.397   0.645  15.690
   34ARHM    C129903   3.034   0.359  16.197
   34ARHM    H129904   3.081   0.442  16.256
   34ARHM    C529905   3.079   0.147  16.099
   34ARHM    H529906   3.054   0.185  15.998
   34ARHM    O529907   3.131   0.255  16.178
   34ARHM    C229908   2.916   0.303  16.274
   34ARHM    H229909   2.841   0.383  16.287
   34ARHM    O229910   2.952   0.250  16.403
   34ARHM    C329911   2.853   0.193  16.192
   34ARHM    H329912   2.819   0.234  16.095
   34ARHM    O329913   2.737   0.142  16.258
   34ARHM   HO329914   2.764   0.099  16.339
   34ARHM    C429915   2.957   0.085  16.166
   34ARHM    H429916   2.987   0.038  16.262
   34ARHM    O429917   2.903  -0.014  16.079
   34ARHM   HO429918   2.929  -0.102  16.106
   34ARHM    C629919   3.196   0.048  16.083
   34ARHM   H6129920   3.227   0.009  16.182
   34ARHM   H6229921   3.166  -0.037  16.019
   34ARHM   H6329922   3.283   0.099  16.037
   35ARHM    C129923   2.986   0.347  16.499
   35ARHM    H129924   2.924   0.438  16.483
   35ARHM    C529925   3.211   0.267  16.511
   35ARHM    H529926   3.189   0.192  16.432
   35ARHM    O529927   3.126   0.381  16.495
   35ARHM    C229928   2.955   0.287  16.635
   35ARHM    H229929   2.849   0.255  16.635
   35ARHM    O229930   2.974   0.378  16.746
   35ARHM    C329931   3.042   0.165  16.659
   35ARHM    H329932   3.020   0.091  16.580
   35ARHM    O329933   3.011   0.103  16.784
   35ARHM   HO329934   3.041   0.159  16.855
   35ARHM    C429935   3.188   0.205  16.648
   35ARHM    H429936   3.210   0.283  16.724
   35ARHM    O429937   3.278   0.096  16.673
   35ARHM   HO429938   3.232   0.013  16.661
   35ARHM    C629939   3.356   0.316  16.488
   35ARHM   H6129940   3.364   0.365  16.388
   35ARHM   H6229941   3.385   0.389  16.566
   35ARHM   H6329942   3.427   0.230  16.490
   36BMANN   C129943   2.903   0.499  16.739
   36BMANN   H129944   2.799   0.482  16.703
   36BMANN   C529945   2.904   0.721  16.649
   36BMANN   H529946   2.803   0.705  16.606
   36BMANN   O529947   2.971   0.594  16.656
   36BMANN   C229948   2.902   0.557  16.879
   36BMANN   H229949   2.847   0.483  16.942
   36BMANN    N29950   3.036   0.570  16.934
   36BMANN   HN29951   3.109   0.586  16.869
   36BMANN    C29952   3.063   0.566  17.066
   36BMANN    O29953   2.978   0.539  17.149
   36BMANN   CT29954   3.205   0.596  17.105
   36BMANN  HT129955   3.239   0.690  17.057
   36BMANN  HT229956   3.272   0.513  17.076
   36BMANN  HT329957   3.210   0.609  17.216
   36BMANN   C329958   2.822   0.686  16.877
   36BMANN   H329959   2.722   0.665  16.836
   36BMANN   O329960   2.802   0.740  17.008
   36BMANN  HO329961   2.764   0.673  17.065
   36BMANN   C429962   2.893   0.785  16.786
   36BMANN   H429963   2.993   0.806  16.828
   36BMANN   O429964   2.822   0.908  16.778
   36BMANN  HO429965   2.783   0.921  16.865
   36BMANN   C629966   2.985   0.804  16.551
   36BMANN  H6129967   3.004   0.745  16.459
   36BMANN  H6229968   2.926   0.893  16.520
   36BMANN   O629969   3.111   0.847  16.605
   36BMANN  HO629970   3.098   0.927  16.657
    1ECLIP HB6S29971   7.683   6.014   6.681
    1ECLIP  OB629972   7.542   5.928   6.807
    1ECLIP  CB629973   7.649   5.913   6.712
    1ECLIP HB6R29974   7.735   5.861   6.759
    1ECLIP  CB529975   7.620   5.834   6.585
    1ECLIP  OB529976   7.499   5.887   6.532
    1ECLIP  HB529977   7.605   5.727   6.610
    1ECLIP  CB129978   7.460   5.827   6.408
    1ECLIP  HB129979   7.443   5.718   6.424
    1ECLIP  OA629980   7.340   5.883   6.362
    1ECLIP  CA629981   7.333   6.022   6.395
    1ECLIP HA6R29982   7.430   6.067   6.422
    1ECLIP HA6S29983   7.265   6.036   6.483
    1ECLIP  CB429984   7.732   5.851   6.481
    1ECLIP  HB429985   7.745   5.960   6.460
    1ECLIP  OB429986   7.848   5.797   6.543
    1ECLIP   PB29987   7.994   5.868   6.559
    1ECLIP OPB429988   8.053   5.781   6.668
    1ECLIP OPB329989   7.985   6.015   6.591
    1ECLIP OPB229990   8.068   5.825   6.434
    1ECLIP  CB329991   7.690   5.782   6.351
    1ECLIP  OB329992   7.783   5.789   6.245
    1ECLIP  HB329993   7.665   5.676   6.372
    1ECLIP  C7129994   7.888   5.712   6.245
    1ECLIP  O7129995   7.915   5.625   6.328
    1ECLIP  C7229996   7.940   5.707   6.101
    1ECLIP H72R29997   7.854   5.704   6.032
    1ECLIP H72S29998   8.000   5.613   6.092
    1ECLIP  CB229999   7.564   5.851   6.301
    1ECLIP  HB230000   7.586   5.960   6.297
    1ECLIP  NB230001   7.518   5.814   6.167
    1ECLIP HNB230002   7.441   5.750   6.167
    1ECLIP  CA430003   7.173   6.037   6.195
    1ECLIP  HA430004   7.213   5.944   6.150
    1ECLIP  OA430005   7.064   6.008   6.283
    1ECLIP HOA430006   7.104   5.991   6.370
    1ECLIP  CA530007   7.285   6.097   6.275
    1ECLIP  HA530008   7.252   6.195   6.316
    1ECLIP  OA530009   7.398   6.117   6.189
    1ECLIP  CA130010   7.373   6.214   6.087
    1ECLIP  HA130011   7.464   6.224   6.025
    1ECLIP  OA130012   7.345   6.338   6.151
    1ECLIP OPA230013   7.396   6.542   6.293
    1ECLIP OPA330014   7.475   6.323   6.378
    1ECLIP OPA430015   7.583   6.428   6.171
    1ECLIP   PA30016   7.458   6.408   6.254
    1ECLIP  CA330017   7.137   6.133   6.085
    1ECLIP  HA330018   7.112   6.229   6.134
    1ECLIP  OA330019   7.019   6.097   6.011
    1ECLIP  C3130020   7.008   5.983   5.938
    1ECLIP  O3130021   6.963   5.988   5.825
    1ECLIP  C3230022   6.937   5.876   6.025
    1ECLIP H32R30023   6.845   5.853   5.969
    1ECLIP H32S30024   6.904   5.921   6.122
    1ECLIP  CA230025   7.259   6.161   5.997
    1ECLIP  HA230026   7.294   6.064   5.955
    1ECLIP  NA230027   7.221   6.247   5.886
    1ECLIP HNA230028   7.142   6.303   5.908
    1ECLIP  C7330029   8.027   5.830   6.075
    1ECLIP H73R30030   8.108   5.833   6.150
    1ECLIP  O7330031   7.945   5.945   6.084
    1ECLIP  C8130032   8.005   6.061   6.109
    1ECLIP  O8130033   8.127   6.077   6.108
    1ECLIP  C8230034   7.907   6.174   6.076
    1ECLIP H82R30035   7.948   6.268   6.120
    1ECLIP H82S30036   7.810   6.152   6.125
    1ECLIP  C8330037   7.888   6.188   5.924
    1ECLIP H83R30038   7.829   6.100   5.891
    1ECLIP H83S30039   7.986   6.186   5.872
    1ECLIP  C8430040   7.811   6.313   5.881
    1ECLIP H84R30041   7.875   6.403   5.895
    1ECLIP H84S30042   7.722   6.326   5.946
    1ECLIP  C8530043   7.765   6.302   5.735
    1ECLIP H85R30044   7.686   6.224   5.731
    1ECLIP H85S30045   7.852   6.265   5.675
    1ECLIP  C8630046   7.712   6.432   5.675
    1ECLIP H86R30047   7.796   6.505   5.669
    1ECLIP H86S30048   7.636   6.474   5.745
    1ECLIP  C8730049   7.648   6.415   5.536
    1ECLIP H87R30050   7.638   6.515   5.490
    1ECLIP H87S30051   7.547   6.372   5.549
    1ECLIP  C8830052   7.728   6.322   5.444
    1ECLIP H88R30053   7.717   6.218   5.483
    1ECLIP H88S30054   7.836   6.347   5.450
    1ECLIP  C8930055   7.683   6.323   5.297
    1ECLIP H89R30056   7.579   6.360   5.289
    1ECLIP H89S30057   7.683   6.217   5.262
    1ECLIP C81030058   7.778   6.401   5.207
    1ECLIPH810R30059   7.883   6.375   5.234
    1ECLIPH810S30060   7.767   6.510   5.228
    1ECLIP C81130061   7.754   6.371   5.058
    1ECLIPH811R30062   7.786   6.458   4.997
    1ECLIPH811S30063   7.645   6.356   5.044
    1ECLIP C81230064   7.830   6.246   5.011
    1ECLIPH812R30065   7.789   6.211   4.914
    1ECLIPH812S30066   7.813   6.165   5.085
    1ECLIP C81330067   7.980   6.270   4.997
    1ECLIPH813R30068   7.999   6.326   4.903
    1ECLIPH813S30069   8.017   6.334   5.080
    1ECLIP C81430070   8.062   6.140   4.999
    1ECLIPH814R30071   8.033   6.074   4.914
    1ECLIPH814S30072   8.043   6.087   5.095
    1ECLIPH814T30073   8.171   6.161   4.995
    1ECLIP  C7430074   8.093   5.826   5.932
    1ECLIP H74R30075   8.149   5.732   5.920
    1ECLIP H74S30076   8.168   5.908   5.931
    1ECLIP  C7530077   8.000   5.849   5.811
    1ECLIP H75R30078   8.061   5.904   5.735
    1ECLIP H75S30079   7.915   5.915   5.839
    1ECLIP  C7630080   7.946   5.723   5.741
    1ECLIP H76R30081   7.848   5.695   5.785
    1ECLIP H76S30082   8.013   5.637   5.760
    1ECLIP  C7730083   7.934   5.741   5.589
    1ECLIP H77R30084   8.024   5.794   5.550
    1ECLIP H77S30085   7.846   5.805   5.568
    1ECLIP  C7830086   7.922   5.608   5.512
    1ECLIP H78R30087   8.021   5.557   5.513
    1ECLIP H78S30088   7.852   5.542   5.568
    1ECLIP  C7930089   7.873   5.618   5.367
    1ECLIP H79R30090   7.766   5.651   5.368
    1ECLIP H79S30091   7.877   5.517   5.322
    1ECLIP C71030092   7.944   5.717   5.274
    1ECLIPH710R30093   7.923   5.821   5.308
    1ECLIPH710S30094   8.054   5.702   5.280
    1ECLIP C71130095   7.896   5.700   5.129
    1ECLIPH711R30096   7.912   5.594   5.097
    1ECLIPH711S30097   7.786   5.719   5.127
    1ECLIP C71230098   7.965   5.794   5.031
    1ECLIPH712R30099   8.069   5.758   5.013
    1ECLIPH712S30100   7.972   5.893   5.080
    1ECLIP C71330101   7.891   5.812   4.898
    1ECLIPH713R30102   7.798   5.869   4.917
    1ECLIPH713S30103   7.955   5.875   4.832
    1ECLIP C71430104   7.855   5.682   4.825
    1ECLIPH714R30105   7.945   5.618   4.812
    1ECLIPH714S30106   7.780   5.625   4.884
    1ECLIPH714T30107   7.812   5.704   4.726
    1ECLIP  C5130108   7.556   5.870   6.049
    1ECLIP  O5130109   7.645   5.953   6.039
    1ECLIP  C5230110   7.481   5.820   5.926
    1ECLIP H52R30111   7.521   5.719   5.905
    1ECLIP H52S30112   7.374   5.814   5.955
    1ECLIP  C5330113   7.489   5.903   5.794
    1ECLIP H53R30114   7.453   6.006   5.813
    1ECLIP  O5330115   7.412   5.834   5.696
    1ECLIP  C6130116   7.289   5.874   5.671
    1ECLIP  O6130117   7.223   5.948   5.740
    1ECLIP  C6230118   7.229   5.773   5.570
    1ECLIP H62R30119   7.215   5.676   5.624
    1ECLIP H62S30120   7.304   5.758   5.490
    1ECLIP  C6330121   7.092   5.808   5.507
    1ECLIP H63R30122   7.105   5.898   5.443
    1ECLIP H63S30123   7.018   5.834   5.587
    1ECLIP  C6430124   7.037   5.695   5.419
    1ECLIP H64R30125   6.952   5.736   5.360
    1ECLIP H64S30126   6.996   5.614   5.484
    1ECLIP  C6530127   7.142   5.633   5.325
    1ECLIP H65R30128   7.216   5.577   5.387
    1ECLIP H65S30129   7.198   5.714   5.274
    1ECLIP  C6630130   7.086   5.535   5.220
    1ECLIP H66R30131   7.038   5.450   5.273
    1ECLIP H66S30132   7.172   5.494   5.162
    1ECLIP  C6730133   6.986   5.597   5.122
    1ECLIP H67R30134   6.894   5.627   5.177
    1ECLIP H67S30135   6.957   5.520   5.049
    1ECLIP  C6830136   7.042   5.719   5.049
    1ECLIP H68R30137   7.136   5.689   4.998
    1ECLIP H68S30138   7.066   5.801   5.120
    1ECLIP  C6930139   6.943   5.772   4.944
    1ECLIP H69R30140   6.858   5.822   4.995
    1ECLIP H69S30141   6.902   5.684   4.891
    1ECLIP C61030142   7.008   5.867   4.844
    1ECLIPH610R30143   7.114   5.837   4.828
    1ECLIPH610S30144   7.009   5.970   4.887
    1ECLIP C61130145   6.939   5.869   4.707
    1ECLIPH611R30146   6.830   5.888   4.723
    1ECLIPH611S30147   6.981   5.953   4.648
    1ECLIP C61230148   6.956   5.740   4.628
    1ECLIPH612R30149   7.064   5.722   4.609
    1ECLIPH612S30150   6.915   5.653   4.683
    1ECLIPH612T30151   6.904   5.746   4.530
    1ECLIP  C5430152   7.630   5.912   5.733
    1ECLIP H54R30153   7.670   5.809   5.722
    1ECLIP H54S30154   7.695   5.967   5.804
    1ECLIP  C5530155   7.638   5.984   5.595
    1ECLIP H55R30156   7.743   6.016   5.580
    1ECLIP H55S30157   7.574   6.075   5.599
    1ECLIP  C5630158   7.597   5.897   5.476
    1ECLIP H56R30159   7.490   5.866   5.486
    1ECLIP H56S30160   7.657   5.804   5.476
    1ECLIP  C5730161   7.607   5.964   5.337
    1ECLIP H57R30162   7.713   5.990   5.315
    1ECLIP H57S30163   7.546   6.057   5.339
    1ECLIP  C5830164   7.552   5.867   5.233
    1ECLIP H58R30165   7.610   5.773   5.237
    1ECLIP H58S30166   7.447   5.842   5.261
    1ECLIP  C5930167   7.550   5.917   5.087
    1ECLIP H59R30168   7.651   5.948   5.054
    1ECLIP H59S30169   7.483   6.006   5.082
    1ECLIP C51030170   7.496   5.803   4.998
    1ECLIPH510R30171   7.416   5.757   5.059
    1ECLIPH510S30172   7.575   5.727   4.981
    1ECLIP C51130173   7.426   5.843   4.868
    1ECLIPH511R30174   7.386   5.946   4.879
    1ECLIPH511S30175   7.339   5.774   4.856
    1ECLIP C51230176   7.510   5.831   4.740
    1ECLIPH512R30177   7.569   5.924   4.726
    1ECLIPH512S30178   7.580   5.746   4.749
    1ECLIP C51330179   7.419   5.806   4.620
    1ECLIPH513R30180   7.335   5.879   4.623
    1ECLIPH513S30181   7.374   5.705   4.629
    1ECLIP C51430182   7.490   5.816   4.484
    1ECLIPH514R30183   7.574   5.743   4.480
    1ECLIPH514S30184   7.421   5.794   4.400
    1ECLIPH514T30185   7.531   5.918   4.470
    1ECLIP  C3330186   7.010   5.740   6.046
    1ECLIP H33R30187   6.934   5.660   6.059
    1ECLIP  O3330188   7.084   5.747   6.167
    1ECLIP HO3330189   7.055   5.813   6.229
    1ECLIP  C3430190   7.108   5.702   5.933
    1ECLIP H34R30191   7.168   5.792   5.908
    1ECLIP H34S30192   7.049   5.673   5.844
    1ECLIP  C3530193   7.211   5.593   5.969
    1ECLIP H35R30194   7.157   5.506   6.014
    1ECLIP H35S30195   7.278   5.632   6.049
    1ECLIP  C3630196   7.296   5.555   5.846
    1ECLIP H36R30197   7.326   5.651   5.801
    1ECLIP H36S30198   7.232   5.502   5.771
    1ECLIP  C3730199   7.427   5.477   5.870
    1ECLIP H37R30200   7.403   5.371   5.891
    1ECLIP H37S30201   7.477   5.515   5.962
    1ECLIP  C3830202   7.528   5.484   5.753
    1ECLIP H38R30203   7.600   5.566   5.771
    1ECLIP H38S30204   7.586   5.389   5.752
    1ECLIP  C3930205   7.466   5.508   5.615
    1ECLIP H39R30206   7.426   5.612   5.611
    1ECLIP H39S30207   7.380   5.440   5.597
    1ECLIP C31030208   7.564   5.496   5.497
    1ECLIPH310R30209   7.619   5.400   5.504
    1ECLIPH310S30210   7.638   5.578   5.507
    1ECLIP C31130211   7.492   5.505   5.361
    1ECLIPH311R30212   7.403   5.438   5.365
    1ECLIPH311S30213   7.455   5.608   5.346
    1ECLIP C31230214   7.578   5.461   5.241
    1ECLIPH312R30215   7.663   5.531   5.230
    1ECLIPH312S30216   7.619   5.360   5.260
    1ECLIP C31330217   7.501   5.462   5.109
    1ECLIPH313R30218   7.413   5.394   5.117
    1ECLIPH313S30219   7.459   5.563   5.095
    1ECLIP C31430220   7.587   5.423   4.990
    1ECLIPH314R30221   7.611   5.315   4.992
    1ECLIPH314S30222   7.535   5.447   4.894
    1ECLIPH314T30223   7.683   5.480   4.992
    1ECLIP  C1130224   7.267   6.253   5.759
    1ECLIP  O1130225   7.368   6.198   5.717
    1ECLIP  C1230226   7.186   6.341   5.665
    1ECLIP H12R30227   7.226   6.445   5.677
    1ECLIP H12S30228   7.079   6.340   5.696
    1ECLIP  C1330229   7.196   6.300   5.516
    1ECLIP H13R30230   7.302   6.289   5.485
    1ECLIP  O1330231   7.135   6.404   5.441
    1ECLIP HO1330232   7.183   6.487   5.445
    1ECLIP  C1430233   7.120   6.170   5.483
    1ECLIP H14R30234   7.020   6.177   5.530
    1ECLIP H14S30235   7.173   6.085   5.531
    1ECLIP  C1530236   7.099   6.140   5.332
    1ECLIP H15R30237   7.063   6.232   5.281
    1ECLIP H15S30238   7.018   6.065   5.322
    1ECLIP  C1630239   7.223   6.086   5.257
    1ECLIP H16R30240   7.245   5.984   5.295
    1ECLIP H16S30241   7.311   6.149   5.280
    1ECLIP  C1730242   7.200   6.080   5.105
    1ECLIP H17R30243   7.092   6.061   5.087
    1ECLIP H17S30244   7.257   5.995   5.062
    1ECLIP  C1830245   7.243   6.210   5.036
    1ECLIP H18R30246   7.207   6.294   5.099
    1ECLIP H18S30247   7.354   6.217   5.035
    1ECLIP  C1930248   7.186   6.231   4.895
    1ECLIP H19R30249   7.208   6.336   4.868
    1ECLIP H19S30250   7.076   6.218   4.896
    1ECLIP C11030251   7.247   6.143   4.785
    1ECLIPH110R30252   7.358   6.149   4.793
    1ECLIPH110S30253   7.218   6.037   4.800
    1ECLIP C11130254   7.205   6.187   4.644
    1ECLIPH111R30255   7.116   6.129   4.612
    1ECLIPH111S30256   7.173   6.294   4.649
    1ECLIP C11230257   7.317   6.176   4.540
    1ECLIPH112R30258   7.406   6.233   4.573
    1ECLIPH112S30259   7.349   6.070   4.531
    1ECLIP C11330260   7.273   6.227   4.403
    1ECLIPH113R30261   7.188   6.164   4.372
    1ECLIPH113S30262   7.230   6.329   4.411
    1ECLIP C11430263   7.384   6.227   4.299
    1ECLIPH114R30264   7.456   6.309   4.316
    1ECLIPH114S30265   7.440   6.131   4.304
    1ECLIPH114T30266   7.342   6.239   4.196
    2AKDO    C130267   7.543   5.704   6.891
    2AKDO   O1130268   7.647   5.633   6.892
    2AKDO   O1230269   7.424   5.663   6.892
    2AKDO    C230270   7.561   5.855   6.927
    2AKDO    C630271   7.719   6.011   7.014
    2AKDO    H630272   7.692   6.071   6.924
    2AKDO    O630273   7.692   5.874   6.984
    2AKDO    C330274   7.460   5.906   7.031
    2AKDO   H3130275   7.467   5.840   7.120
    2AKDO   H3230276   7.359   5.897   6.986
    2AKDO    C430277   7.481   6.049   7.072
    2AKDO    H430278   7.466   6.116   6.985
    2AKDO    O430279   7.393   6.085   7.181
    2AKDO    C530280   7.624   6.062   7.125
    2AKDO    H530281   7.641   6.171   7.134
    2AKDO    O530282   7.638   5.999   7.256
    2AKDO    C730283   7.871   6.022   7.025
    2AKDO    H730284   7.909   5.974   7.117
    2AKDO    O730285   7.915   6.159   7.014
    2AKDO   HO730286   7.956   6.156   6.929
    2AKDO    C830287   7.932   5.947   6.906
    2AKDO   H8130288   7.900   5.841   6.906
    2AKDO   H8230289   7.893   5.993   6.813
    2AKDO    O830290   8.075   5.945   6.899
    2AKDO   HO830291   8.087   5.898   6.816
    3AKDO    C130292   7.241   6.263   7.078
    3AKDO   O1130293   7.122   6.306   7.072
    3AKDO   O1230294   7.345   6.334   7.066
    3AKDO    C230295   7.259   6.133   7.165
    3AKDO    C630296   7.168   5.911   7.203
    3AKDO    H630297   7.269   5.866   7.201
    3AKDO    O630298   7.165   6.031   7.123
    3AKDO    C330299   7.228   6.166   7.312
    3AKDO   H3130300   7.127   6.210   7.318
    3AKDO   H3230301   7.300   6.244   7.346
    3AKDO    C430302   7.236   6.045   7.401
    3AKDO    H430303   7.338   6.000   7.395
    3AKDO    O430304   7.215   6.086   7.536
    3AKDO   HO430305   7.282   6.152   7.556
    3AKDO    C530306   7.137   5.942   7.351
    3AKDO    H530307   7.156   5.849   7.408
    3AKDO    O530308   7.000   5.975   7.374
    3AKDO   HO530309   6.975   6.045   7.313
    3AKDO    C730310   7.072   5.812   7.136
    3AKDO    H730311   6.975   5.863   7.122
    3AKDO    O730312   7.054   5.695   7.219
    3AKDO   HO730313   7.108   5.629   7.174
    3AKDO    C830314   7.124   5.768   7.000
    3AKDO   H8130315   7.140   5.857   6.936
    3AKDO   H8230316   7.222   5.718   7.013
    3AKDO    O830317   7.034   5.678   6.933
    3AKDO   HO830318   7.093   5.624   6.880
    4AHEP    C130319   7.737   6.052   7.342
    4AHEP    H130320   7.835   6.018   7.301
    4AHEP    C530321   7.627   6.253   7.408
    4AHEP    H530322   7.536   6.208   7.362
    4AHEP    O530323   7.742   6.195   7.344
    4AHEP    C230324   7.734   6.000   7.486
    4AHEP    H230325   7.712   5.891   7.478
    4AHEP    O230326   7.861   6.008   7.554
    4AHEP   HO230327   7.898   5.920   7.556
    4AHEP    C330328   7.617   6.060   7.564
    4AHEP    H330329   7.523   6.026   7.517
    4AHEP    O330330   7.627   6.013   7.701
    4AHEP    C430331   7.625   6.213   7.558
    4AHEP    H430332   7.720   6.246   7.608
    4AHEP    O430333   7.511   6.271   7.624
    4AHEP    P430334   7.512   6.406   7.721
    4AHEP  OP4230335   7.376   6.410   7.790
    4AHEP  OP4330336   7.534   6.528   7.632
    4AHEP  OP4430337   7.627   6.394   7.820
    4AHEP    C630338   7.619   6.402   7.373
    4AHEP    H630339   7.518   6.438   7.400
    4AHEP    O630340   7.716   6.475   7.447
    4AHEP   HO630341   7.667   6.485   7.530
    4AHEP    C730342   7.639   6.433   7.224
    4AHEP   H7130343   7.622   6.541   7.205
    4AHEP   H7230344   7.563   6.377   7.167
    4AHEP    O730345   7.770   6.394   7.181
    4AHEP   HO730346   7.780   6.314   7.234
    5AHEP    C130347   7.520   5.935   7.752
    5AHEP    H130348   7.427   5.963   7.700
    5AHEP    C530349   7.652   5.742   7.818
    5AHEP    H530350   7.744   5.791   7.778
    5AHEP    O530351   7.539   5.793   7.741
    5AHEP    C230352   7.502   5.969   7.900
    5AHEP    H230353   7.500   6.080   7.907
    5AHEP    O230354   7.376   5.920   7.950
    5AHEP   HO230355   7.307   5.971   7.907
    5AHEP    C330356   7.623   5.921   7.981
    5AHEP    H330357   7.713   5.972   7.941
    5AHEP    O330358   7.611   5.947   8.122
    5AHEP    C430359   7.639   5.772   7.967
    5AHEP    H430360   7.551   5.719   8.009
    5AHEP    O430361   7.760   5.726   8.028
    5AHEP    P430362   7.778   5.674   8.184
    5AHEP  OP4230363   7.885   5.767   8.242
    5AHEP  OP4330364   7.824   5.529   8.177
    5AHEP  OP4430365   7.645   5.690   8.256
    5AHEP    C630366   7.665   5.591   7.788
    5AHEP    H630367   7.753   5.552   7.844
    5AHEP    O630368   7.549   5.519   7.832
    5AHEP   HO630369   7.521   5.482   7.748
    5AHEP    C730370   7.685   5.564   7.639
    5AHEP   H7130371   7.773   5.497   7.629
    5AHEP   H7230372   7.711   5.656   7.584
    5AHEP    O730373   7.573   5.496   7.578
    6AHEP    C130374   7.485   5.584   7.511
    6AHEP    H130375   7.510   5.690   7.531
    6AHEP    C530376   7.453   5.436   7.325
    6AHEP    H530377   7.521   5.361   7.370
    6AHEP    O530378   7.492   5.568   7.370
    6AHEP    C230379   7.344   5.559   7.561
    6AHEP    H230380   7.346   5.563   7.672
    6AHEP    O230381   7.252   5.659   7.521
    6AHEP   HO230382   7.167   5.617   7.502
    6AHEP    C330383   7.300   5.420   7.520
    6AHEP    H330384   7.368   5.345   7.565
    6AHEP    O330385   7.167   5.391   7.565
    6AHEP   HO330386   7.124   5.349   7.490
    6AHEP    C430387   7.310   5.407   7.370
    6AHEP    H430388   7.243   5.483   7.321
    6AHEP    O430389   7.267   5.278   7.328
    6AHEP   HO430390   7.285   5.266   7.234
    6AHEP    C630391   7.469   5.422   7.174
    6AHEP    H630392   7.438   5.320   7.142
    6AHEP    O630393   7.378   5.513   7.109
    6AHEP   HO630394   7.422   5.555   7.035
    6AHEP    C730395   7.613   5.438   7.124
    6AHEP   H7130396   7.618   5.416   7.016
    6AHEP   H7230397   7.676   5.362   7.176
    6AHEP    O730398   7.672   5.566   7.148
    6AHEP   HO730399   7.661   5.610   7.064
    7AGLC    C130400   7.656   6.070   8.168
    7AGLC    H130401   7.749   6.102   8.116
    7AGLC    C530402   7.429   6.130   8.214
    7AGLC    H530403   7.394   6.034   8.171
    7AGLC    O530404   7.554   6.169   8.153
    7AGLC    C230405   7.681   6.059   8.319
    7AGLC    H230406   7.698   6.163   8.353
    7AGLC    O230407   7.801   5.991   8.355
    7AGLC   HO230408   7.806   5.906   8.313
    7AGLC    C330409   7.557   6.009   8.392
    7AGLC    H330410   7.528   5.911   8.346
    7AGLC    O330411   7.578   5.991   8.535
    7AGLC    C430412   7.449   6.112   8.363
    7AGLC    H430413   7.487   6.210   8.400
    7AGLC    O430414   7.326   6.087   8.431
    7AGLC   HO430415   7.307   6.163   8.485
    7AGLC    C630416   7.330   6.238   8.175
    7AGLC   H6130417   7.325   6.246   8.064
    7AGLC   H6230418   7.228   6.210   8.210
    7AGLC    O630419   7.365   6.366   8.229
    7AGLC   HO630420   7.429   6.401   8.167
    8AGLC    C130421   7.545   5.862   8.583
    8AGLC    H130422   7.455   5.823   8.531
    8AGLC    C530423   7.776   5.801   8.627
    8AGLC    H530424   7.806   5.901   8.590
    8AGLC    O530425   7.651   5.766   8.564
    8AGLC    C230426   7.523   5.863   8.734
    8AGLC    H230427   7.496   5.760   8.763
    8AGLC    O230428   7.420   5.951   8.780
    8AGLC    C330429   7.648   5.906   8.808
    8AGLC    H330430   7.680   6.004   8.766
    8AGLC    O330431   7.621   5.928   8.950
    8AGLC    C430432   7.758   5.807   8.778
    8AGLC    H430433   7.726   5.706   8.813
    8AGLC    O430434   7.881   5.841   8.842
    8AGLC   HO430435   7.945   5.781   8.804
    8AGLC    C630436   7.881   5.702   8.582
    8AGLC   H6130437   7.866   5.680   8.473
    8AGLC   H6230438   7.982   5.748   8.589
    8AGLC    O630439   7.879   5.579   8.655
    8AGLC   HO630440   7.848   5.515   8.590
    9AGAL    C130441   7.290   5.939   8.730
    9AGAL    H130442   7.288   5.935   8.620
    9AGAL    C530443   7.223   5.818   8.925
    9AGAL    H530444   7.329   5.820   8.958
    9AGAL    O530445   7.221   5.825   8.782
    9AGAL    C230446   7.225   6.067   8.780
    9AGAL    H230447   7.120   6.072   8.745
    9AGAL    O230448   7.302   6.168   8.714
    9AGAL    C330449   7.226   6.065   8.933
    9AGAL    H330450   7.331   6.059   8.967
    9AGAL    O330451   7.173   6.184   8.991
    9AGAL   HO330452   7.234   6.254   8.969
    9AGAL    C430453   7.155   5.940   8.985
    9AGAL    H430454   7.171   5.937   9.095
    9AGAL    O430455   7.014   5.939   8.965
    9AGAL   HO430456   6.996   5.917   8.873
    9AGAL    C630457   7.167   5.684   8.966
    9AGAL   H6130458   7.240   5.605   8.936
    9AGAL   H6230459   7.153   5.679   9.076
    9AGAL    O630460   7.044   5.652   8.901
    9AGAL   HO630461   7.063   5.643   8.808
   10AGAL    C130462   7.311   6.301   8.756
   10AGAL    H130463   7.208   6.342   8.766
   10AGAL    C530464   7.516   6.264   8.875
   10AGAL    H530465   7.517   6.161   8.835
   10AGAL    O530466   7.380   6.311   8.884
   10AGAL    C230467   7.386   6.383   8.651
   10AGAL    H230468   7.385   6.490   8.679
   10AGAL    O230469   7.318   6.374   8.526
   10AGAL   HO230470   7.376   6.404   8.455
   10AGAL    C330471   7.531   6.338   8.642
   10AGAL    H330472   7.534   6.231   8.611
   10AGAL    O330473   7.601   6.415   8.543
   10AGAL   HO330474   7.677   6.367   8.509
   10AGAL    C430475   7.599   6.349   8.778
   10AGAL    H430476   7.699   6.303   8.769
   10AGAL    O430477   7.617   6.482   8.827
   10AGAL   HO430478   7.532   6.516   8.854
   10AGAL    C630479   7.573   6.255   9.016
   10AGAL   H6130480   7.524   6.169   9.068
   10AGAL   H6230481   7.682   6.235   9.012
   10AGAL    O630482   7.549   6.371   9.096
   10AGAL   HO630483   7.473   6.416   9.057
   11BGLC    C130484   7.626   5.818   9.038
   11BGLC    H130485   7.732   5.787   9.054
   11BGLC    C530486   7.549   5.595   9.078
   11BGLC    H530487   7.656   5.567   9.096
   11BGLC    O530488   7.548   5.708   8.990
   11BGLC    C230489   7.565   5.866   9.169
   11BGLC    H230490   7.461   5.899   9.148
   11BGLC    O230491   7.635   5.979   9.222
   11BGLC   HO230492   7.689   6.015   9.151
   11BGLC    C330493   7.560   5.754   9.270
   11BGLC    H330494   7.664   5.722   9.296
   11BGLC    O330495   7.487   5.793   9.389
   11BGLC    C430496   7.484   5.638   9.210
   11BGLC    H430497   7.382   5.673   9.186
   11BGLC    O430498   7.471   5.529   9.302
   11BGLC   HO430499   7.552   5.525   9.354
   11BGLC    C630500   7.478   5.482   9.005
   11BGLC   H6130501   7.376   5.469   9.046
   11BGLC   H6230502   7.468   5.508   8.898
   11BGLC    O630503   7.548   5.357   9.013
   11BGLC   HO630504   7.559   5.324   8.924
   12BGLCN   C130505   7.561   5.817   9.506
   12BGLCN   H130506   7.624   5.907   9.493
   12BGLCN   C530507   7.712   5.722   9.663
   12BGLCN   H530508   7.772   5.815   9.658
   12BGLCN   O530509   7.641   5.703   9.540
   12BGLCN   C230510   7.456   5.839   9.615
   12BGLCN   H230511   7.397   5.745   9.620
   12BGLCN    N30512   7.367   5.948   9.575
   12BGLCN   HN30513   7.411   6.026   9.530
   12BGLCN    C30514   7.233   5.944   9.580
   12BGLCN    O30515   7.171   5.852   9.631
   12BGLCN   CT30516   7.161   6.061   9.520
   12BGLCN  HT130517   7.097   6.109   9.597
   12BGLCN  HT230518   7.096   6.026   9.438
   12BGLCN  HT330519   7.233   6.136   9.479
   12BGLCN   C330520   7.522   5.858   9.752
   12BGLCN   H330521   7.584   5.951   9.748
   12BGLCN   O330522   7.422   5.869   9.855
   12BGLCN   C430523   7.611   5.737   9.778
   12BGLCN   H430524   7.546   5.647   9.778
   12BGLCN   O430525   7.677   5.743   9.903
   12BGLCN  HO430526   7.754   5.800   9.896
   12BGLCN   C630527   7.808   5.605   9.679
   12BGLCN  H6130528   7.845   5.597   9.783
   12BGLCN  H6230529   7.756   5.510   9.655
   12BGLCN   O630530   7.922   5.620   9.594
   12BGLCN  HO630531   7.969   5.536   9.587
   13AGAL    C130532   7.455   5.953   9.964
   13AGAL    H130533   7.563   5.946   9.990
   13AGAL    C530534   7.285   6.111   9.903
   13AGAL    H530535   7.260   6.040   9.820
   13AGAL    O530536   7.423   6.091   9.936
   13AGAL    C230537   7.372   5.916  10.089
   13AGAL    H230538   7.395   5.992  10.165
   13AGAL    O230539   7.406   5.786  10.142
   13AGAL    C330540   7.224   5.929  10.056
   13AGAL    H330541   7.202   5.866   9.967
   13AGAL    O330542   7.139   5.882  10.160
   13AGAL   HO330543   7.116   5.791  10.144
   13AGAL    C430544   7.194   6.074  10.019
   13AGAL    H430545   7.088   6.081   9.986
   13AGAL    O430546   7.212   6.164  10.129
   13AGAL   HO430547   7.303   6.159  10.158
   13AGAL    C630548   7.262   6.250   9.844
   13AGAL   H6130549   7.340   6.270   9.766
   13AGAL   H6230550   7.163   6.252   9.792
   13AGAL    O630551   7.265   6.354   9.940
   13AGAL   HO630552   7.233   6.317  10.023
   14ARHM    C130553   7.466   5.785  10.271
   14ARHM    H130554   7.528   5.876  10.283
   14ARHM    C530555   7.489   5.548  10.280
   14ARHM    H530556   7.444   5.538  10.177
   14ARHM    O530557   7.556   5.674  10.288
   14ARHM    C230558   7.358   5.783  10.379
   14ARHM    H230559   7.288   5.868  10.361
   14ARHM    O230560   7.405   5.793  10.516
   14ARHM    C330561   7.280   5.653  10.366
   14ARHM    H330562   7.236   5.646  10.266
   14ARHM    O330563   7.172   5.649  10.459
   14ARHM   HO330564   7.205   5.607  10.539
   14ARHM    C430565   7.378   5.538  10.384
   14ARHM    H430566   7.425   5.546  10.483
   14ARHM    O430567   7.314   5.410  10.378
   14ARHM   HO430568   7.321   5.373  10.290
   14ARHM    C630569   7.598   5.441  10.295
   14ARHM   H6130570   7.673   5.449  10.214
   14ARHM   H6230571   7.649   5.453  10.393
   14ARHM   H6330572   7.554   5.339  10.292
   15ARHM    C130573   7.479   5.908  10.545
   15ARHM    H130574   7.446   5.993  10.480
   15ARHM    C530575   7.671   5.782  10.611
   15ARHM    H530576   7.620   5.686  10.589
   15ARHM    O530577   7.619   5.886  10.528
   15ARHM    C230578   7.454   5.945  10.689
   15ARHM    H230579   7.345   5.962  10.704
   15ARHM    O230580   7.522   6.070  10.709
   15ARHM    C330581   7.500   5.835  10.781
   15ARHM    H330582   7.447   5.741  10.754
   15ARHM    O330583   7.468   5.869  10.916
   15ARHM    C430584   7.649   5.816  10.759
   15ARHM    H430585   7.701   5.912  10.778
   15ARHM    O430586   7.705   5.720  10.847
   15ARHM   HO430587   7.796   5.743  10.861
   15ARHM    C630588   7.819   5.767  10.573
   15ARHM   H6130589   7.866   5.684  10.631
   15ARHM   H6230590   7.829   5.744  10.465
   15ARHM   H6330591   7.874   5.862  10.594
   16BMANN   C130592   7.523   6.124  10.839
   16BMANN   H130593   7.583   6.061  10.908
   16BMANN   C530594   7.390   6.195  11.023
   16BMANN   H530595   7.444   6.124  11.090
   16BMANN   O530596   7.390   6.143  10.890
   16BMANN   C230597   7.593   6.256  10.826
   16BMANN   H230598   7.696   6.233  10.793
   16BMANN    N30599   7.528   6.336  10.723
   16BMANN   HN30600   7.429   6.327  10.719
   16BMANN    C30601   7.592   6.396  10.622
   16BMANN    O30602   7.714   6.414  10.618
   16BMANN   CT30603   7.504   6.437  10.507
   16BMANN  HT130604   7.558   6.509  10.441
   16BMANN  HT230605   7.411   6.483  10.545
   16BMANN  HT330606   7.478   6.347  10.447
   16BMANN   C330607   7.601   6.317  10.965
   16BMANN   H330608   7.659   6.248  11.030
   16BMANN   O330609   7.672   6.440  10.960
   16BMANN  HO330610   7.724   6.453  11.040
   16BMANN   C430611   7.460   6.329  11.023
   16BMANN   H430612   7.401   6.394  10.954
   16BMANN   O430613   7.460   6.385  11.155
   16BMANN  HO430614   7.373   6.378  11.194
   16BMANN   C630615   7.246   6.207  11.072
   16BMANN  H6130616   7.244   6.235  11.179
   16BMANN  H6230617   7.195   6.287  11.015
   16BMANN   O630618   7.170   6.087  11.057
   16BMANN  HO630619   7.151   6.080  10.963
   17BGLCN   C130620   7.410   5.770  10.996
   17BGLCN   H130621   7.463   5.674  10.982
   17BGLCN   C530622   7.204   5.665  11.057
   17BGLCN   H530623   7.248   5.564  11.043
   17BGLCN   O530624   7.270   5.759  10.971
   17BGLCN   C230625   7.428   5.822  11.137
   17BGLCN   H230626   7.361   5.911  11.145
   17BGLCN    N30627   7.562   5.873  11.165
   17BGLCN   HN30628   7.634   5.845  11.102
   17BGLCN    C30629   7.589   5.963  11.262
   17BGLCN    O30630   7.503   6.012  11.333
   17BGLCN   CT30631   7.733   6.002  11.280
   17BGLCN  HT130632   7.753   6.097  11.224
   17BGLCN  HT230633   7.801   5.923  11.239
   17BGLCN  HT330634   7.754   6.018  11.387
   17BGLCN   C330635   7.371   5.717  11.234
   17BGLCN   H330636   7.417   5.620  11.203
   17BGLCN   O330637   7.406   5.742  11.370
   17BGLCN   C430638   7.222   5.706  11.203
   17BGLCN   H430639   7.176   5.807  11.217
   17BGLCN   O430640   7.154   5.616  11.290
   17BGLCN  HO430641   7.125   5.663  11.370
   17BGLCN   C630642   7.059   5.661  11.015
   17BGLCN  H6130643   7.003   5.585  11.072
   17BGLCN  H6230644   7.012   5.760  11.034
   17BGLCN   O630645   7.046   5.631  10.875
   17BGLCN  HO630646   7.097   5.697  10.827
   18AGAL    C130647   7.434   5.626  11.447
   18AGAL    H130648   7.341   5.567  11.458
   18AGAL    C530649   7.662   5.606  11.377
   18AGAL    H530650   7.643   5.704  11.326
   18AGAL    O530651   7.534   5.541  11.387
   18AGAL    C230652   7.483   5.664  11.588
   18AGAL    H230653   7.499   5.566  11.637
   18AGAL    O230654   7.384   5.736  11.663
   18AGAL    C330655   7.618   5.736  11.581
   18AGAL    H330656   7.604   5.827  11.519
   18AGAL    O330657   7.663   5.776  11.710
   18AGAL   HO330658   7.733   5.842  11.704
   18AGAL    C430659   7.719   5.644  11.513
   18AGAL    H430660   7.813   5.699  11.498
   18AGAL    O430661   7.747   5.530  11.595
   18AGAL   HO430662   7.773   5.565  11.680
   18AGAL    C630663   7.754   5.536  11.277
   18AGAL   H6130664   7.698   5.514  11.184
   18AGAL   H6230665   7.836   5.607  11.250
   18AGAL    O630666   7.815   5.416  11.325
   18AGAL   HO630667   7.750   5.345  11.326
   19ARHM    C130668   7.384   5.697  11.800
   19ARHM    H130669   7.486   5.663  11.828
   19ARHM    C530670   7.160   5.619  11.801
   19ARHM    H530671   7.146   5.652  11.696
   19ARHM    O530672   7.297   5.587  11.825
   19ARHM    C230673   7.345   5.814  11.887
   19ARHM    H230674   7.405   5.901  11.856
   19ARHM    O230675   7.372   5.788  12.027
   19ARHM    C330676   7.200   5.852  11.870
   19ARHM    H330677   7.184   5.884  11.763
   19ARHM    O330678   7.167   5.963  11.953
   19ARHM   HO330679   7.194   5.941  12.043
   19ARHM    C430680   7.115   5.730  11.897
   19ARHM    H430681   7.135   5.696  12.000
   19ARHM    O430682   6.975   5.753  11.887
   19ARHM   HO430683   6.946   5.751  11.795
   19ARHM    C630684   7.083   5.487  11.821
   19ARHM   H6130685   7.121   5.412  11.748
   19ARHM   H6230686   7.098   5.449  11.923
   19ARHM   H6330687   6.975   5.502  11.801
   20ARHM    C130688   7.510   5.786  12.055
   20ARHM    H130689   7.566   5.843  11.978
   20ARHM    C530690   7.508   5.571  12.158
   20ARHM    H530691   7.398   5.567  12.144
   20ARHM    O530692   7.567   5.654  12.057
   20ARHM    C230693   7.532   5.852  12.190
   20ARHM    H230694   7.471   5.945  12.193
   20ARHM    O230695   7.669   5.890  12.210
   20ARHM    C330696   7.477   5.768  12.301
   20ARHM    H330697   7.367   5.762  12.290
   20ARHM    O330698   7.511   5.834  12.423
   20ARHM    C430699   7.538   5.630  12.295
   20ARHM    H430700   7.648   5.639  12.308
   20ARHM    O430701   7.487   5.546  12.399
   20ARHM   HO430702   7.535   5.463  12.395
   20ARHM    C630703   7.563   5.429  12.137
   20ARHM   H6130704   7.673   5.427  12.151
   20ARHM   H6230705   7.518   5.357  12.210
   20ARHM   H6330706   7.539   5.394  12.034
   21BMANN   C130707   7.702   6.005  12.134
   21BMANN   H130708   7.615   6.038  12.074
   21BMANN   C530709   7.831   6.087  11.953
   21BMANN   H530710   7.735   6.112  11.904
   21BMANN   O530711   7.807   5.976  12.041
   21BMANN   C230712   7.740   6.119  12.225
   21BMANN   H230713   7.647   6.143  12.280
   21BMANN    N30714   7.842   6.085  12.325
   21BMANN   HN30715   7.914   6.022  12.295
   21BMANN    C30716   7.838   6.127  12.453
   21BMANN    O30717   7.754   6.207  12.492
   21BMANN   CT30718   7.940   6.071  12.547
   21BMANN  HT130719   8.034   6.129  12.540
   21BMANN  HT230720   7.960   5.964  12.523
   21BMANN  HT330721   7.901   6.078  12.651
   21BMANN   C330722   7.770   6.240  12.137
   21BMANN   H330723   7.678   6.267  12.082
   21BMANN   O330724   7.805   6.351  12.220
   21BMANN  HO330725   7.877   6.324  12.276
   21BMANN   C430726   7.877   6.207  12.034
   21BMANN   H430727   7.972   6.180  12.086
   21BMANN   O430728   7.902   6.316  11.946
   21BMANN  HO430729   7.963   6.378  11.985
   21BMANN   C630730   7.926   6.048  11.842
   21BMANN  H6130731   7.918   6.122  11.759
   21BMANN  H6230732   8.031   6.050  11.878
   21BMANN   O630733   7.899   5.918  11.788
   21BMANN  HO630734   7.940   5.854  11.847
   22BGLCN   C130735   7.410   5.835  12.519
   22BGLCN   H130736   7.360   5.736  12.524
   22BGLCN   C530737   7.212   5.943  12.593
   22BGLCN   H530738   7.163   5.843  12.597
   22BGLCN   O530739   7.315   5.938  12.493
   22BGLCN   C230740   7.481   5.866  12.648
   22BGLCN   H230741   7.522   5.968  12.640
   22BGLCN    N30742   7.593   5.775  12.668
   22BGLCN   HN30743   7.588   5.688  12.620
   22BGLCN    C30744   7.706   5.807  12.731
   22BGLCN    O30745   7.726   5.917  12.781
   22BGLCN   CT30746   7.811   5.700  12.738
   22BGLCN  HT130747   7.899   5.731  12.679
   22BGLCN  HT230748   7.773   5.604  12.699
   22BGLCN  HT330749   7.843   5.686  12.845
   22BGLCN   C330750   7.378   5.865  12.760
   22BGLCN   H330751   7.328   5.766  12.762
   22BGLCN   O330752   7.450   5.882  12.884
   22BGLCN   C430753   7.274   5.971  12.729
   22BGLCN   H430754   7.323   6.071  12.727
   22BGLCN   O430755   7.171   5.973  12.828
   22BGLCN  HO430756   7.171   6.058  12.873
   22BGLCN   C630757   7.109   6.044  12.548
   22BGLCN  H6130758   7.035   6.061  12.630
   22BGLCN  H6230759   7.157   6.141  12.526
   22BGLCN   O630760   7.037   5.998  12.433
   22BGLCN  HO630761   6.957   6.049  12.422
   23AGAL    C130762   7.386   5.848  13.003
   23AGAL    H130763   7.304   5.921  13.024
   23AGAL    C530764   7.431   5.614  12.979
   23AGAL    H530765   7.486   5.639  12.887
   23AGAL    O530766   7.330   5.715  13.002
   23AGAL    C230767   7.485   5.857  13.117
   23AGAL    H230768   7.431   5.837  13.213
   23AGAL    O230769   7.546   5.987  13.121
   23AGAL    C330770   7.594   5.752  13.102
   23AGAL    H330771   7.651   5.773  13.009
   23AGAL    O330772   7.685   5.757  13.211
   23AGAL   HO330773   7.642   5.714  13.286
   23AGAL    C430774   7.532   5.614  13.095
   23AGAL    H430775   7.612   5.541  13.069
   23AGAL    O430776   7.472   5.573  13.217
   23AGAL   HO430777   7.396   5.522  13.190
   23AGAL    C630778   7.361   5.481  12.953
   23AGAL   H6130779   7.285   5.496  12.873
   23AGAL   H6230780   7.435   5.407  12.918
   23AGAL    O630781   7.295   5.428  13.069
   23AGAL   HO630782   7.231   5.361  13.043
   24ARHM    C130783   7.493   6.079  13.214
   24ARHM    H130784   7.384   6.062  13.222
   24ARHM    C530785   7.647   6.251  13.155
   24ARHM    H530786   7.695   6.183  13.082
   24ARHM    O530787   7.509   6.215  13.170
   24ARHM    C230788   7.560   6.055  13.347
   24ARHM    H230789   7.559   5.947  13.370
   24ARHM    O230790   7.492   6.126  13.453
   24ARHM    C330791   7.706   6.094  13.335
   24ARHM    H330792   7.754   6.031  13.258
   24ARHM    O330793   7.778   6.072  13.457
   24ARHM   HO330794   7.842   6.144  13.457
   24ARHM    C430795   7.716   6.239  13.290
   24ARHM    H430796   7.662   6.303  13.363
   24ARHM    O430797   7.852   6.282  13.286
   24ARHM   HO430798   7.856   6.375  13.260
   24ARHM    C630799   7.650   6.393  13.095
   24ARHM   H6130800   7.754   6.425  13.075
   24ARHM   H6230801   7.593   6.395  13.000
   24ARHM   H6330802   7.603   6.466  13.165
   25ARHM    C130803   7.382   6.056  13.505
   25ARHM    H130804   7.347   5.980  13.432
   25ARHM    C530805   7.295   6.238  13.630
   25ARHM    H530806   7.381   6.300  13.596
   25ARHM    O530807   7.268   6.139  13.529
   25ARHM    C230808   7.427   5.985  13.630
   25ARHM    H230809   7.520   5.928  13.610
   25ARHM    O230810   7.325   5.896  13.679
   25ARHM    C330811   7.455   6.085  13.738
   25ARHM    H330812   7.537   6.152  13.703
   25ARHM    O330813   7.499   6.015  13.856
   25ARHM    C430814   7.329   6.167  13.760
   25ARHM    H430815   7.246   6.098  13.786
   25ARHM    O430816   7.341   6.259  13.868
   25ARHM   HO430817   7.316   6.346  13.835
   25ARHM    C630818   7.171   6.329  13.635
   25ARHM   H6130819   7.150   6.369  13.534
   25ARHM   H6230820   7.081   6.271  13.668
   25ARHM   H6330821   7.187   6.415  13.704
   26BMANN   C130822   7.319   5.770  13.618
   26BMANN   H130823   7.420   5.737  13.585
   26BMANN   C530824   7.211   5.635  13.453
   26BMANN   H530825   7.312   5.605  13.418
   26BMANN   O530826   7.224   5.767  13.512
   26BMANN   C230827   7.269   5.679  13.729
   26BMANN   H230828   7.347   5.680  13.807
   26BMANN    N30829   7.145   5.729  13.787
   26BMANN   HN30830   7.083   5.774  13.724
   26BMANN    C30831   7.114   5.723  13.918
   26BMANN    O30832   7.192   5.680  14.002
   26BMANN   CT30833   6.978   5.773  13.957
   26BMANN  HT130834   6.927   5.820  13.870
   26BMANN  HT230835   6.989   5.849  14.037
   26BMANN  HT330836   6.918   5.689  13.996
   26BMANN   C330837   7.262   5.538  13.673
   26BMANN   H330838   7.362   5.510  13.637
   26BMANN   O330839   7.227   5.443  13.774
   26BMANN  HO330840   7.288   5.369  13.769
   26BMANN   C430841   7.165   5.535  13.557
   26BMANN   H430842   7.064   5.563  13.595
   26BMANN   O430843   7.157   5.404  13.500
   26BMANN  HO430844   7.173   5.340  13.569
   26BMANN   C630845   7.123   5.642  13.329
   26BMANN  H6130846   7.151   5.730  13.267
   26BMANN  H6230847   7.142   5.551  13.269
   26BMANN   O630848   6.983   5.646  13.357
   26BMANN  HO630849   6.935   5.623  13.277
   27BGLCN   C130850   7.594   6.081  13.933
   27BGLCN   H130851   7.585   6.192  13.922
   27BGLCN   C530852   7.825   6.099  13.985
   27BGLCN   H530853   7.822   6.209  13.971
   27BGLCN   O530854   7.726   6.037  13.901
   27BGLCN   C230855   7.562   6.040  14.075
   27BGLCN   H230856   7.578   5.930  14.082
   27BGLCN    N30857   7.422   6.066  14.102
   27BGLCN   HN30858   7.380   6.134  14.043
   27BGLCN    C30859   7.344   5.994  14.184
   27BGLCN    O30860   7.386   5.905  14.258
   27BGLCN   CT30861   7.198   6.026  14.182
   27BGLCN  HT130862   7.173   6.089  14.092
   27BGLCN  HT230863   7.170   6.079  14.274
   27BGLCN  HT330864   7.140   5.931  14.175
   27BGLCN   C330865   7.659   6.109  14.170
   27BGLCN   H330866   7.649   6.218  14.156
   27BGLCN   O330867   7.620   6.074  14.305
   27BGLCN   C430868   7.800   6.066  14.131
   27BGLCN   H430869   7.811   5.957  14.148
   27BGLCN   O430870   7.898   6.135  14.210
   27BGLCN  HO430871   7.883   6.230  14.201
   27BGLCN   C630872   7.957   6.044  13.934
   27BGLCN  H6130873   8.034   6.047  14.015
   27BGLCN  H6230874   7.946   5.937  13.906
   27BGLCN   O630875   8.005   6.118  13.821
   27BGLCN  HO630876   7.937   6.116  13.755
   28AGAL    C130877   7.681   6.142  14.414
   28AGAL    H130878   7.785   6.106  14.427
   28AGAL    C530879   7.547   6.339  14.387
   28AGAL    H530880   7.494   6.292  14.301
   28AGAL    O530881   7.681   6.285  14.395
   28AGAL    C230882   7.607   6.112  14.544
   28AGAL    H230883   7.657   6.178  14.617
   28AGAL    O230884   7.617   5.976  14.592
   28AGAL    C330885   7.463   6.158  14.532
   28AGAL    H330886   7.419   6.112  14.441
   28AGAL    O330887   7.382   6.115  14.641
   28AGAL   HO330888   7.343   6.030  14.618
   28AGAL    C430889   7.463   6.309  14.512
   28AGAL    H430890   7.359   6.341  14.494
   28AGAL    O430891   7.509   6.380  14.627
   28AGAL   HO430892   7.459   6.461  14.631
   28AGAL    C630893   7.559   6.487  14.353
   28AGAL   H6130894   7.600   6.497  14.250
   28AGAL   H6230895   7.458   6.534  14.352
   28AGAL    O630896   7.645   6.560  14.442
   28AGAL   HO630897   7.726   6.509  14.453
   29ARHM    C130898   7.649   5.972  14.730
   29ARHM    H130899   7.609   6.062  14.780
   29ARHM    C530900   7.847   5.847  14.686
   29ARHM    H530901   7.824   5.848  14.578
   29ARHM    O530902   7.791   5.964  14.749
   29ARHM    C230903   7.584   5.852  14.798
   29ARHM    H230904   7.475   5.857  14.777
   29ARHM    O230905   7.606   5.853  14.941
   29ARHM    C330906   7.638   5.725  14.735
   29ARHM    H330907   7.612   5.728  14.627
   29ARHM    O330908   7.576   5.610  14.792
   29ARHM   HO330909   7.545   5.555  14.720
   29ARHM    C430910   7.788   5.721  14.749
   29ARHM    H430911   7.815   5.719  14.857
   29ARHM    O430912   7.843   5.603  14.688
   29ARHM   HO430913   7.774   5.566  14.632
   29ARHM    C630914   8.000   5.857  14.702
   29ARHM   H6130915   8.037   5.952  14.656
   29ARHM   H6230916   8.029   5.855  14.809
   29ARHM   H6330917   8.050   5.773  14.650
   30ARHM    C130918   7.499   5.905  15.018
   30ARHM    H130919   7.405   5.855  14.988
   30ARHM    C530920   7.601   6.121  15.038
   30ARHM    H530921   7.689   6.088  14.979
   30ARHM    O530922   7.484   6.047  14.999
   30ARHM    C230923   7.526   5.878  15.165
   30ARHM    H230924   7.544   5.770  15.180
   30ARHM    O230925   7.416   5.921  15.247
   30ARHM    C330926   7.649   5.954  15.211
   30ARHM    H330927   7.733   5.918  15.147
   30ARHM    O330928   7.684   5.915  15.346
   30ARHM    C430929   7.632   6.102  15.185
   30ARHM    H430930   7.546   6.143  15.244
   30ARHM    O430931   7.749   6.178  15.218
   30ARHM   HO430932   7.823   6.129  15.181
   30ARHM    C630933   7.568   6.266  15.000
   30ARHM   H6130934   7.654   6.333  15.023
   30ARHM   H6230935   7.543   6.273  14.892
   30ARHM   H6330936   7.479   6.300  15.058
   31BMANN   C130937   7.303   5.838  15.258
   31BMANN   H130938   7.330   5.730  15.260
   31BMANN   C530939   7.083   5.797  15.170
   31BMANN   H530940   7.104   5.688  15.177
   31BMANN   O530941   7.208   5.867  15.154
   31BMANN   C230942   7.243   5.884  15.389
   31BMANN   H230943   7.314   5.855  15.469
   31BMANN    N30944   7.230   6.029  15.394
   31BMANN   HN30945   7.239   6.075  15.306
   31BMANN    C30946   7.213   6.101  15.505
   31BMANN    O30947   7.203   6.050  15.615
   31BMANN   CT30948   7.208   6.250  15.490
   31BMANN  HT130949   7.158   6.278  15.394
   31BMANN  HT230950   7.312   6.289  15.491
   31BMANN  HT330951   7.153   6.295  15.575
   31BMANN   C330952   7.114   5.808  15.413
   31BMANN   H330953   7.136   5.699  15.407
   31BMANN   O330954   7.063   5.829  15.545
   31BMANN  HO330955   7.091   5.916  15.576
   31BMANN   C430956   7.017   5.841  15.301
   31BMANN   H430957   7.002   5.951  15.296
   31BMANN   O430958   6.888   5.784  15.316
   31BMANN  HO430959   6.895   5.692  15.344
   31BMANN   C630960   6.994   5.818  15.048
   31BMANN  H6130961   6.898   5.763  15.062
   31BMANN  H6230962   6.969   5.926  15.039
   31BMANN   O630963   7.054   5.774  14.926
   31BMANN  HO630964   7.092   5.687  14.935
   32BGLCN   C130965   7.626   5.986  15.452
   32BGLCN   H130966   7.520   6.012  15.429
   32BGLCN   C530967   7.639   6.183  15.588
   32BGLCN   H530968   7.535   6.210  15.559
   32BGLCN   O530969   7.699   6.106  15.482
   32BGLCN   C230970   7.630   5.898  15.576
   32BGLCN   H230971   7.737   5.890  15.604
   32BGLCN    N30972   7.579   5.764  15.550
   32BGLCN   HN30973   7.494   5.757  15.497
   32BGLCN    C30974   7.641   5.651  15.586
   32BGLCN    O30975   7.746   5.649  15.651
   32BGLCN   CT30976   7.577   5.522  15.541
   32BGLCN  HT130977   7.529   5.536  15.442
   32BGLCN  HT230978   7.502   5.488  15.615
   32BGLCN  HT330979   7.656   5.444  15.531
   32BGLCN   C330980   7.557   5.973  15.687
   32BGLCN   H330981   7.458   6.000  15.646
   32BGLCN   O330982   7.537   5.897  15.807
   32BGLCN   C430983   7.635   6.100  15.714
   32BGLCN   H430984   7.739   6.073  15.743
   32BGLCN   O430985   7.579   6.174  15.821
   32BGLCN  HO430986   7.582   6.120  15.900
   32BGLCN   C630987   7.719   6.312  15.599
   32BGLCN  H6130988   7.670   6.381  15.671
   32BGLCN  H6230989   7.821   6.289  15.636
   32BGLCN   O630990   7.729   6.376  15.472
   32BGLCN  HO630991   7.737   6.306  15.407
   33AGAL    C130992   7.407   5.915  15.860
   33AGAL    H130993   7.372   6.019  15.845
   33AGAL    C530994   7.340   5.688  15.820
   33AGAL    H530995   7.442   5.665  15.783
   33AGAL    O530996   7.313   5.827  15.796
   33AGAL    C230997   7.406   5.888  16.010
   33AGAL    H230998   7.302   5.907  16.044
   33AGAL    O230999   7.493   5.982  16.078
   33AGAL    C331000   7.440   5.742  16.038
   33AGAL    H331001   7.541   5.721  15.998
   33AGAL    O331002   7.442   5.712  16.178
   33AGAL   HO331003   7.351   5.717  16.207
   33AGAL    C431004   7.338   5.655  15.968
   33AGAL    H431005   7.367   5.548  15.981
   33AGAL    O431006   7.208   5.670  16.024
   33AGAL   HO431007   7.145   5.670  15.952
   33AGAL    C631008   7.243   5.604  15.738
   33AGAL   H6131009   7.265   5.615  15.629
   33AGAL   H6231010   7.258   5.497  15.764
   33AGAL    O631011   7.105   5.637  15.759
   33AGAL   HO631012   7.083   5.712  15.703
   34ARHM    C131013   7.441   6.029  16.200
   34ARHM    H131014   7.398   5.944  16.258
   34ARHM    C531015   7.382   6.245  16.115
   34ARHM    H531016   7.415   6.219  16.012
   34ARHM    O531017   7.337   6.126  16.181
   34ARHM    C231018   7.555   6.090  16.280
   34ARHM    H231019   7.636   6.015  16.289
   34ARHM    O231020   7.516   6.132  16.412
   34ARHM    C331021   7.609   6.210  16.206
   34ARHM    H331022   7.642   6.179  16.105
   34ARHM    O331023   7.722   6.268  16.272
   34ARHM   HO331024   7.721   6.360  16.244
   34ARHM    C431025   7.496   6.311  16.191
   34ARHM    H431026   7.459   6.339  16.292
   34ARHM    O431027   7.541   6.429  16.125
   34ARHM   HO431028   7.476   6.499  16.135
   34ARHM    C631029   7.257   6.334  16.102
   34ARHM   H6131030   7.219   6.361  16.203
   34ARHM   H6231031   7.279   6.427  16.046
   34ARHM   H6331032   7.176   6.279  16.049
   35ARHM    C131033   7.478   6.029  16.501
   35ARHM    H131034   7.541   5.940  16.484
   35ARHM    C531035   7.251   6.107  16.501
   35ARHM    H531036   7.276   6.186  16.427
   35ARHM    O531037   7.339   5.995  16.485
   35ARHM    C231038   7.499   6.083  16.641
   35ARHM    H231039   7.604   6.118  16.648
   35ARHM    O231040   7.476   5.988  16.746
   35ARHM    C331041   7.410   6.203  16.664
   35ARHM    H331042   7.437   6.283  16.592
   35ARHM    O331043   7.430   6.256  16.795
   35ARHM   HO331044   7.419   6.184  16.858
   35ARHM    C431045   7.265   6.164  16.641
   35ARHM    H431046   7.236   6.086  16.714
   35ARHM    O431047   7.180   6.277  16.659
   35ARHM   HO431048   7.215   6.326  16.734
   35ARHM    C631049   7.109   6.055  16.469
   35ARHM   H6131050   7.106   6.014  16.366
   35ARHM   H6231051   7.081   5.975  16.540
   35ARHM   H6331052   7.035   6.138  16.477
   36BMANN   C131053   7.567   5.882  16.748
   36BMANN   H131054   7.668   5.918  16.719
   36BMANN   C531055   7.617   5.666  16.659
   36BMANN   H531056   7.715   5.706  16.628
   36BMANN   O531057   7.524   5.775  16.662
   36BMANN   C231058   7.573   5.828  16.889
   36BMANN   H231059   7.611   5.910  16.953
   36BMANN    N31060   7.440   5.793  16.940
   36BMANN   HN31061   7.367   5.795  16.872
   36BMANN    C31062   7.410   5.769  17.068
   36BMANN    O31063   7.494   5.768  17.157
   36BMANN   CT31064   7.265   5.742  17.099
   36BMANN  HT131065   7.238   5.639  17.066
   36BMANN  HT231066   7.200   5.816  17.048
   36BMANN  HT331067   7.249   5.750  17.209
   36BMANN   C331068   7.676   5.716  16.891
   36BMANN   H331069   7.771   5.757  16.852
   36BMANN   O331070   7.704   5.670  17.022
   36BMANN  HO331071   7.629   5.689  17.078
   36BMANN   C431072   7.632   5.605  16.797
   36BMANN   H431073   7.533   5.566  16.831
   36BMANN   O431074   7.724   5.497  16.794
   36BMANN  HO431075   7.708   5.440  16.870
   36BMANN   C631076   7.576   5.567  16.550
   36BMANN  H6131077   7.559   5.623  16.456
   36BMANN  H6231078   7.659   5.495  16.532
   36BMANN   O631079   7.457   5.493  16.581
   36BMANN  HO631080   7.474   5.434  16.654
    1ECLIP HB6S31081   6.898   0.889   6.662
    1ECLIP  OB631082   6.781   1.011   6.785
    1ECLIP  CB631083   6.791   0.900   6.691
    1ECLIP HB6R31084   6.760   0.805   6.738
    1ECLIP  CB531085   6.711   0.915   6.563
    1ECLIP  OB531086   6.740   1.047   6.516
    1ECLIP  HB531087   6.603   0.908   6.587
    1ECLIP  CB131088   6.664   1.079   6.399
    1ECLIP  HB131089   6.556   1.064   6.422
    1ECLIP  OA631090   6.679   1.211   6.358
    1ECLIP  CA631091   6.808   1.267   6.382
    1ECLIP HA6R31092   6.887   1.188   6.389
    1ECLIP HA6S31093   6.806   1.322   6.479
    1ECLIP  CB431094   6.749   0.811   6.455
    1ECLIP  HB431095   6.859   0.814   6.438
    1ECLIP  OB431096   6.708   0.685   6.509
    1ECLIP   PB31097   6.784   0.540   6.512
    1ECLIP OPB431098   6.680   0.444   6.568
    1ECLIP OPB331099   6.914   0.544   6.589
    1ECLIP OPB231100   6.788   0.500   6.366
    1ECLIP  CB331101   6.675   0.846   6.326
    1ECLIP  OB331102   6.721   0.773   6.212
    1ECLIP  HB331103   6.565   0.836   6.342
    1ECLIP  C7131104   6.653   0.671   6.168
    1ECLIP  O7131105   6.563   0.613   6.229
    1ECLIP  C7231106   6.695   0.629   6.030
    1ECLIP H72R31107   6.681   0.715   5.960
    1ECLIP H72S31108   6.630   0.546   5.997
    1ECLIP  CB231109   6.703   0.989   6.285
    1ECLIP  HB231110   6.813   1.000   6.269
    1ECLIP  NB231111   6.634   1.028   6.162
    1ECLIP HNB231112   6.538   1.053   6.174
    1ECLIP  CA431113   6.719   1.431   6.210
    1ECLIP  HA431114   6.647   1.354   6.175
    1ECLIP  OA431115   6.656   1.511   6.311
    1ECLIP HOA431116   6.568   1.532   6.280
    1ECLIP  CA531117   6.840   1.361   6.269
    1ECLIP  HA531118   6.914   1.436   6.304
    1ECLIP  OA531119   6.899   1.279   6.168
    1ECLIP  CA131120   6.947   1.353   6.056
    1ECLIP  HA131121   6.978   1.272   5.986
    1ECLIP  OA131122   7.053   1.439   6.095
    1ECLIP OPA231123   7.292   1.444   6.190
    1ECLIP OPA331124   7.205   1.242   6.059
    1ECLIP OPA431125   7.243   1.441   5.938
    1ECLIP   PA31126   7.208   1.393   6.077
    1ECLIP  CA331127   6.761   1.514   6.089
    1ECLIP  HA331128   6.834   1.590   6.123
    1ECLIP  OA331129   6.641   1.583   6.049
    1ECLIP  C3131130   6.554   1.535   5.962
    1ECLIP  O3131131   6.582   1.471   5.861
    1ECLIP  C3231132   6.412   1.569   6.003
    1ECLIP H32R31133   6.364   1.624   5.919
    1ECLIP H32S31134   6.416   1.638   6.090
    1ECLIP  CA231135   6.831   1.424   5.987
    1ECLIP  HA231136   6.760   1.343   5.957
    1ECLIP  NA231137   6.869   1.496   5.866
    1ECLIP HNA231138   6.827   1.587   5.860
    1ECLIP  C7331139   6.842   0.584   6.030
    1ECLIP H73R31140   6.861   0.523   6.122
    1ECLIP  O7331141   6.919   0.703   6.031
    1ECLIP  C8131142   7.042   0.696   6.077
    1ECLIP  O8131143   7.100   0.595   6.113
    1ECLIP  C8231144   7.113   0.825   6.037
    1ECLIP H82R31145   7.220   0.815   6.068
    1ECLIP H82S31146   7.067   0.908   6.094
    1ECLIP  C8331147   7.102   0.853   5.886
    1ECLIP H83R31148   6.996   0.876   5.862
    1ECLIP H83S31149   7.132   0.764   5.827
    1ECLIP  C8431150   7.189   0.972   5.844
    1ECLIP H84R31151   7.295   0.939   5.842
    1ECLIP H84S31152   7.179   1.047   5.924
    1ECLIP  C8531153   7.148   1.024   5.705
    1ECLIP H85R31154   7.055   1.084   5.710
    1ECLIP H85S31155   7.122   0.935   5.645
    1ECLIP  C8631156   7.260   1.095   5.627
    1ECLIP H86R31157   7.333   1.017   5.596
    1ECLIP H86S31158   7.319   1.169   5.686
    1ECLIP  C8731159   7.209   1.162   5.497
    1ECLIP H87R31160   7.295   1.201   5.439
    1ECLIP H87S31161   7.143   1.249   5.520
    1ECLIP  C8831162   7.130   1.065   5.407
    1ECLIP H88R31163   7.037   1.035   5.459
    1ECLIP H88S31164   7.189   0.972   5.391
    1ECLIP  C8931165   7.090   1.123   5.271
    1ECLIP H89R31166   7.052   1.227   5.283
    1ECLIP H89S31167   7.005   1.062   5.234
    1ECLIP C81031168   7.201   1.118   5.165
    1ECLIPH810R31169   7.273   1.038   5.189
    1ECLIPH810S31170   7.256   1.215   5.167
    1ECLIP C81131171   7.144   1.092   5.024
    1ECLIPH811R31172   7.221   1.118   4.948
    1ECLIPH811S31173   7.058   1.160   5.009
    1ECLIP C81231174   7.099   0.947   5.002
    1ECLIPH812R31175   7.032   0.945   4.913
    1ECLIPH812S31176   7.038   0.911   5.087
    1ECLIP C81331177   7.216   0.850   4.978
    1ECLIPH813R31178   7.287   0.896   4.906
    1ECLIPH813S31179   7.271   0.835   5.073
    1ECLIP C81431180   7.171   0.714   4.922
    1ECLIPH814R31181   7.116   0.727   4.827
    1ECLIPH814S31182   7.104   0.663   4.995
    1ECLIPH814T31183   7.259   0.649   4.903
    1ECLIP  C7431184   6.879   0.500   5.906
    1ECLIP H74R31185   6.816   0.408   5.903
    1ECLIP H74S31186   6.984   0.465   5.921
    1ECLIP  C7531187   6.872   0.570   5.768
    1ECLIP H75R31188   6.949   0.523   5.703
    1ECLIP H75S31189   6.898   0.678   5.780
    1ECLIP  C7631190   6.738   0.556   5.696
    1ECLIP H76R31191   6.658   0.610   5.752
    1ECLIP H76S31192   6.709   0.449   5.694
    1ECLIP  C7731193   6.742   0.607   5.551
    1ECLIP H77R31194   6.828   0.560   5.498
    1ECLIP H77S31195   6.756   0.717   5.550
    1ECLIP  C7831196   6.613   0.571   5.476
    1ECLIP H78R31197   6.607   0.460   5.471
    1ECLIP H78S31198   6.527   0.607   5.536
    1ECLIP  C7931199   6.599   0.626   5.334
    1ECLIP H79R31200   6.594   0.737   5.337
    1ECLIP H79S31201   6.503   0.590   5.292
    1ECLIP C71031202   6.711   0.584   5.238
    1ECLIPH710R31203   6.807   0.631   5.269
    1ECLIPH710S31204   6.724   0.473   5.243
    1ECLIP C71131205   6.679   0.623   5.094
    1ECLIPH711R31206   6.585   0.572   5.063
    1ECLIPH711S31207   6.661   0.732   5.089
    1ECLIP C71231208   6.791   0.585   4.995
    1ECLIPH712R31209   6.806   0.475   4.999
    1ECLIPH712S31210   6.885   0.633   5.030
    1ECLIP C71331211   6.763   0.628   4.851
    1ECLIPH713R31212   6.756   0.739   4.847
    1ECLIPH713S31213   6.851   0.599   4.788
    1ECLIP C71431214   6.636   0.568   4.789
    1ECLIPH714R31215   6.640   0.457   4.792
    1ECLIPH714S31216   6.546   0.602   4.845
    1ECLIPH714T31217   6.624   0.600   4.683
    1ECLIP  C5131218   6.688   1.040   6.039
    1ECLIP  O5131219   6.806   1.022   6.014
    1ECLIP  C5231220   6.589   1.081   5.931
    1ECLIP H52R31221   6.513   1.001   5.920
    1ECLIP H52S31222   6.539   1.174   5.965
    1ECLIP  C5331223   6.654   1.107   5.793
    1ECLIP H53R31224   6.739   1.178   5.806
    1ECLIP  O5331225   6.548   1.163   5.716
    1ECLIP  C6131226   6.575   1.269   5.641
    1ECLIP  O6131227   6.688   1.306   5.610
    1ECLIP  C6231228   6.448   1.295   5.556
    1ECLIP H62R31229   6.363   1.310   5.627
    1ECLIP H62S31230   6.429   1.203   5.498
    1ECLIP  C6331231   6.457   1.417   5.462
    1ECLIP H63R31232   6.555   1.417   5.410
    1ECLIP H63S31233   6.452   1.510   5.521
    1ECLIP  C6431234   6.347   1.420   5.353
    1ECLIP H64R31235   6.354   1.516   5.299
    1ECLIP H64S31236   6.247   1.416   5.403
    1ECLIP  C6531237   6.358   1.305   5.252
    1ECLIP H65R31238   6.345   1.209   5.306
    1ECLIP H65S31239   6.459   1.304   5.207
    1ECLIP  C6631240   6.252   1.308   5.141
    1ECLIP H66R31241   6.151   1.313   5.186
    1ECLIP H66S31242   6.257   1.213   5.083
    1ECLIP  C6731243   6.266   1.424   5.039
    1ECLIP H67R31244   6.248   1.521   5.090
    1ECLIP H67S31245   6.186   1.412   4.962
    1ECLIP  C6831246   6.402   1.427   4.969
    1ECLIP H68R31247   6.428   1.324   4.936
    1ECLIP H68S31248   6.480   1.462   5.039
    1ECLIP  C6931249   6.401   1.517   4.844
    1ECLIP H69R31250   6.373   1.621   4.872
    1ECLIP H69S31251   6.323   1.479   4.774
    1ECLIP C61031252   6.538   1.519   4.773
    1ECLIPH610R31253   6.568   1.414   4.753
    1ECLIPH610S31254   6.613   1.564   4.840
    1ECLIP C61131255   6.539   1.593   4.637
    1ECLIPH611R31256   6.523   1.702   4.656
    1ECLIPH611S31257   6.641   1.583   4.594
    1ECLIP C61231258   6.436   1.544   4.535
    1ECLIPH612R31259   6.443   1.433   4.525
    1ECLIPH612S31260   6.333   1.569   4.568
    1ECLIPH612T31261   6.454   1.590   4.436
    1ECLIP  C5431262   6.704   0.977   5.726
    1ECLIP H54R31263   6.619   0.907   5.714
    1ECLIP H54S31264   6.776   0.928   5.794
    1ECLIP  C5531265   6.775   0.996   5.590
    1ECLIP H55R31266   6.850   0.916   5.577
    1ECLIP H55S31267   6.829   1.093   5.589
    1ECLIP  C5631268   6.678   0.990   5.471
    1ECLIP H56R31269   6.600   1.068   5.480
    1ECLIP H56S31270   6.626   0.892   5.472
    1ECLIP  C5731271   6.749   1.010   5.337
    1ECLIP H57R31272   6.821   0.927   5.320
    1ECLIP H57S31273   6.805   1.105   5.339
    1ECLIP  C5831274   6.650   1.014   5.219
    1ECLIP H58R31275   6.586   0.923   5.222
    1ECLIP H58S31276   6.583   1.102   5.231
    1ECLIP  C5931277   6.721   1.022   5.084
    1ECLIP H59R31278   6.792   0.937   5.075
    1ECLIP H59S31279   6.779   1.116   5.077
    1ECLIP C51031280   6.621   1.013   4.969
    1ECLIPH510R31281   6.545   1.094   4.980
    1ECLIPH510S31282   6.567   0.916   4.973
    1ECLIP C51131283   6.689   1.026   4.832
    1ECLIPH511R31284   6.734   1.127   4.825
    1ECLIPH511S31285   6.772   0.953   4.825
    1ECLIP C51231286   6.593   1.005   4.714
    1ECLIPH512R31287   6.651   1.020   4.620
    1ECLIPH512S31288   6.557   0.900   4.714
    1ECLIP C51331289   6.473   1.100   4.714
    1ECLIPH513R31290   6.506   1.202   4.743
    1ECLIPH513S31291   6.399   1.067   4.789
    1ECLIP C51431292   6.406   1.109   4.576
    1ECLIPH514R31293   6.368   1.009   4.546
    1ECLIPH514S31294   6.320   1.179   4.579
    1ECLIPH514T31295   6.478   1.144   4.500
    1ECLIP  C3331296   6.328   1.445   6.042
    1ECLIP H33R31297   6.231   1.480   6.082
    1ECLIP  O3331298   6.396   1.372   6.141
    1ECLIP HO3331299   6.338   1.328   6.204
    1ECLIP  C3431300   6.302   1.351   5.920
    1ECLIP H34R31301   6.399   1.325   5.873
    1ECLIP H34S31302   6.242   1.407   5.845
    1ECLIP  C3531303   6.232   1.217   5.950
    1ECLIP H35R31304   6.129   1.233   5.990
    1ECLIP H35S31305   6.290   1.163   6.028
    1ECLIP  C3631306   6.226   1.129   5.823
    1ECLIP H36R31307   6.321   1.146   5.768
    1ECLIP H36S31308   6.143   1.161   5.757
    1ECLIP  C3731309   6.219   0.977   5.848
    1ECLIP H37R31310   6.114   0.949   5.870
    1ECLIP H37S31311   6.279   0.951   5.938
    1ECLIP  C3831312   6.271   0.893   5.729
    1ECLIP H38R31313   6.382   0.894   5.730
    1ECLIP H38S31314   6.238   0.788   5.743
    1ECLIP  C3931315   6.225   0.942   5.590
    1ECLIP H39R31316   6.271   1.042   5.571
    1ECLIP H39S31317   6.115   0.955   5.590
    1ECLIP C31031318   6.266   0.847   5.476
    1ECLIPH310R31319   6.204   0.755   5.483
    1ECLIPH310S31320   6.372   0.818   5.488
    1ECLIP C31131321   6.249   0.913   5.339
    1ECLIPH311R31322   6.147   0.957   5.332
    1ECLIPH311S31323   6.322   0.996   5.330
    1ECLIP C31231324   6.270   0.817   5.220
    1ECLIPH312R31325   6.368   0.765   5.233
    1ECLIPH312S31326   6.191   0.739   5.222
    1ECLIP C31331327   6.269   0.889   5.085
    1ECLIPH313R31328   6.171   0.939   5.072
    1ECLIPH313S31329   6.347   0.968   5.087
    1ECLIP C31431330   6.294   0.795   4.966
    1ECLIPH314R31331   6.214   0.719   4.959
    1ECLIPH314S31332   6.297   0.853   4.872
    1ECLIPH314T31333   6.391   0.743   4.978
    1ECLIP  C1131334   6.949   1.456   5.766
    1ECLIP  O1131335   7.000   1.343   5.760
    1ECLIP  C1231336   6.987   1.559   5.663
    1ECLIP H12R31337   7.097   1.573   5.671
    1ECLIP H12S31338   6.939   1.657   5.686
    1ECLIP  C1331339   6.950   1.515   5.520
    1ECLIP H13R31340   6.943   1.405   5.512
    1ECLIP  O1331341   7.054   1.557   5.434
    1ECLIP HO1331342   7.033   1.547   5.341
    1ECLIP  C1431343   6.819   1.578   5.469
    1ECLIP H14R31344   6.818   1.686   5.498
    1ECLIP H14S31345   6.734   1.530   5.523
    1ECLIP  C1531346   6.795   1.572   5.316
    1ECLIP H15R31347   6.869   1.638   5.266
    1ECLIP H15S31348   6.695   1.616   5.294
    1ECLIP  C1631349   6.801   1.432   5.253
    1ECLIP H16R31350   6.714   1.373   5.288
    1ECLIP H16S31351   6.892   1.377   5.287
    1ECLIP  C1731352   6.800   1.436   5.101
    1ECLIP H17R31353   6.731   1.515   5.065
    1ECLIP H17S31354   6.760   1.339   5.063
    1ECLIP  C1831355   6.940   1.456   5.039
    1ECLIP H18R31356   6.985   1.549   5.082
    1ECLIP H18S31357   7.005   1.371   5.069
    1ECLIP  C1931358   6.942   1.469   4.886
    1ECLIP H19R31359   7.048   1.479   4.852
    1ECLIP H19S31360   6.889   1.563   4.858
    1ECLIP C11031361   6.876   1.351   4.812
    1ECLIPH110R31362   6.926   1.256   4.840
    1ECLIPH110S31363   6.770   1.345   4.846
    1ECLIP C11131364   6.876   1.367   4.660
    1ECLIPH111R31365   6.843   1.471   4.637
    1ECLIPH111S31366   6.979   1.354   4.620
    1ECLIP C11231367   6.780   1.271   4.589
    1ECLIPH112R31368   6.825   1.170   4.583
    1ECLIPH112S31369   6.688   1.263   4.651
    1ECLIP C11331370   6.734   1.317   4.450
    1ECLIPH113R31371   6.623   1.327   4.450
    1ECLIPH113S31372   6.773   1.418   4.429
    1ECLIP C11431373   6.773   1.221   4.337
    1ECLIPH114R31374   6.881   1.197   4.342
    1ECLIPH114S31375   6.716   1.126   4.345
    1ECLIPH114T31376   6.751   1.266   4.237
    2AKDO    C131377   6.563   0.953   6.859
    2AKDO   O1131378   6.512   0.839   6.884
    2AKDO   O1231379   6.504   1.055   6.813
    2AKDO    C231380   6.710   0.978   6.903
    2AKDO    C631381   6.906   0.888   7.006
    2AKDO    H631382   6.957   0.931   6.917
    2AKDO    O631383   6.769   0.863   6.967
    2AKDO    C331384   6.720   1.095   7.004
    2AKDO   H3131385   6.656   1.070   7.091
    2AKDO   H3231386   6.678   1.186   6.957
    2AKDO    C431387   6.859   1.123   7.051
    2AKDO    H431388   6.922   1.153   6.964
    2AKDO    O431389   6.862   1.225   7.151
    2AKDO    C531390   6.919   0.998   7.115
    2AKDO    H531391   7.028   1.019   7.125
    2AKDO    O531392   6.863   0.972   7.247
    2AKDO    C731393   6.972   0.751   7.021
    2AKDO    H731394   6.932   0.699   7.110
    2AKDO    O731395   7.115   0.763   7.031
    2AKDO   HO731396   7.142   0.700   6.964
    2AKDO    C831397   6.942   0.672   6.893
    2AKDO   H8131398   6.832   0.653   6.887
    2AKDO   H8231399   6.969   0.734   6.806
    2AKDO    O831400   7.007   0.545   6.877
    2AKDO   HO831401   6.984   0.525   6.785
    3AKDO    C131402   6.954   1.415   7.014
    3AKDO   O1131403   6.930   1.529   6.966
    3AKDO   O1231404   7.067   1.358   7.013
    3AKDO    C231405   6.851   1.364   7.122
    3AKDO    C631406   6.616   1.369   7.186
    3AKDO    H631407   6.618   1.258   7.200
    3AKDO    O631408   6.716   1.407   7.089
    3AKDO    C331409   6.885   1.422   7.259
    3AKDO   H3131410   6.888   1.533   7.252
    3AKDO   H3231411   6.987   1.388   7.288
    3AKDO    C431412   6.787   1.381   7.365
    3AKDO    H431413   6.782   1.270   7.372
    3AKDO    O431414   6.830   1.429   7.491
    3AKDO   HO431415   6.876   1.359   7.538
    3AKDO    C531416   6.650   1.430   7.323
    3AKDO    H531417   6.577   1.393   7.398
    3AKDO    O531418   6.639   1.573   7.320
    3AKDO   HO531419   6.679   1.602   7.238
    3AKDO    C731420   6.476   1.405   7.137
    3AKDO    H731421   6.473   1.514   7.116
    3AKDO    O731422   6.379   1.375   7.240
    3AKDO   HO731423   6.307   1.434   7.219
    3AKDO    C831424   6.440   1.330   7.010
    3AKDO   H8131425   6.518   1.349   6.932
    3AKDO   H8231426   6.438   1.221   7.030
    3AKDO    O831427   6.313   1.372   6.957
    3AKDO   HO831428   6.290   1.305   6.892
    4AHEP    C131429   6.951   0.911   7.339
    4AHEP    H131430   6.972   0.809   7.299
    4AHEP    C531431   7.072   1.101   7.421
    4AHEP    H531432   6.995   1.163   7.370
    4AHEP    O531433   7.080   0.975   7.351
    4AHEP    C231434   6.894   0.889   7.481
    4AHEP    H231435   6.791   0.851   7.469
    4AHEP    O231436   6.965   0.790   7.556
    4AHEP   HO231437   6.973   0.830   7.643
    4AHEP    C331438   6.886   1.017   7.564
    4AHEP    H331439   6.812   1.086   7.519
    4AHEP    O331440   6.852   0.983   7.701
    4AHEP    C431441   7.025   1.078   7.566
    4AHEP    H431442   7.095   1.004   7.611
    4AHEP    O431443   7.023   1.201   7.641
    4AHEP    P431444   7.127   1.222   7.768
    4AHEP  OP4231445   7.096   1.354   7.835
    4AHEP  OP4331446   7.268   1.221   7.712
    4AHEP  OP4431447   7.111   1.105   7.865
    4AHEP    C631448   7.204   1.179   7.408
    4AHEP    H631449   7.189   1.280   7.453
    4AHEP    O631450   7.309   1.115   7.483
    4AHEP   HO631451   7.293   1.149   7.570
    4AHEP    C731452   7.250   1.200   7.264
    4AHEP   H7131453   7.339   1.266   7.262
    4AHEP   H7231454   7.168   1.252   7.209
    4AHEP    O731455   7.280   1.079   7.194
    4AHEP   HO731456   7.226   1.015   7.240
    5AHEP    C131457   6.749   1.058   7.764
    5AHEP    H131458   6.742   1.158   7.716
    5AHEP    C531459   6.620   0.863   7.821
    5AHEP    H531460   6.699   0.799   7.776
    5AHEP    O531461   6.622   0.991   7.755
    5AHEP    C231462   6.774   1.079   7.914
    5AHEP    H231463   6.873   1.130   7.925
    5AHEP    O231464   6.674   1.167   7.969
    5AHEP   HO231465   6.593   1.116   7.965
    5AHEP    C331466   6.780   0.947   7.990
    5AHEP    H331467   6.864   0.887   7.948
    5AHEP    O331468   6.796   0.965   8.132
    5AHEP    C431469   6.648   0.876   7.972
    5AHEP    H431470   6.566   0.932   8.021
    5AHEP    O431471   6.648   0.742   8.019
    5AHEP    P431472   6.673   0.677   8.167
    5AHEP  OP4231473   6.817   0.628   8.162
    5AHEP  OP4331474   6.577   0.560   8.177
    5AHEP  OP4431475   6.651   0.777   8.278
    5AHEP    C631476   6.484   0.799   7.790
    5AHEP    H631477   6.478   0.699   7.839
    5AHEP    O631478   6.376   0.880   7.839
    5AHEP   HO631479   6.330   0.900   7.756
    5AHEP    C731480   6.468   0.779   7.639
    5AHEP   H7131481   6.431   0.676   7.622
    5AHEP   H7231482   6.567   0.785   7.587
    5AHEP    O731483   6.372   0.869   7.582
    6AHEP    C131484   6.431   0.970   7.502
    6AHEP    H131485   6.538   0.984   7.530
    6AHEP    C531486   6.290   0.925   7.312
    6AHEP    H531487   6.239   0.844   7.370
    6AHEP    O531488   6.425   0.938   7.362
    6AHEP    C231489   6.359   1.100   7.530
    6AHEP    H231490   6.357   1.112   7.641
    6AHEP    O231491   6.429   1.214   7.479
    6AHEP   HO231492   6.399   1.235   7.391
    6AHEP    C331493   6.215   1.090   7.483
    6AHEP    H331494   6.165   1.008   7.538
    6AHEP    O331495   6.142   1.211   7.509
    6AHEP   HO331496   6.057   1.199   7.466
    6AHEP    C431497   6.213   1.055   7.335
    6AHEP    H431498   6.263   1.136   7.278
    6AHEP    O431499   6.079   1.044   7.288
    6AHEP   HO431500   6.074   1.067   7.195
    6AHEP    C631501   6.291   0.883   7.165
    6AHEP    H631502   6.187   0.882   7.127
    6AHEP    O631503   6.365   0.980   7.089
    6AHEP   HO631504   6.397   0.939   7.009
    6AHEP    C731505   6.348   0.744   7.143
    6AHEP   H7131506   6.345   0.720   7.035
    6AHEP   H7231507   6.286   0.669   7.195
    6AHEP    O731508   6.483   0.733   7.189
    6AHEP   HO731509   6.512   0.825   7.191
    7AGLC    C131510   6.926   0.965   8.186
    7AGLC    H131511   6.986   0.883   8.139
    7AGLC    C531512   6.909   1.199   8.216
    7AGLC    H531513   6.806   1.193   8.175
    7AGLC    O531514   6.988   1.092   8.162
    7AGLC    C231515   6.921   0.948   8.337
    7AGLC    H231516   7.025   0.963   8.373
    7AGLC    O231517   6.887   0.816   8.380
    7AGLC   HO231518   6.802   0.798   8.339
    7AGLC    C331519   6.834   1.054   8.403
    7AGLC    H331520   6.733   1.047   8.358
    7AGLC    O331521   6.823   1.036   8.547
    7AGLC    C431522   6.898   1.186   8.366
    7AGLC    H431523   7.003   1.185   8.405
    7AGLC    O431524   6.833   1.299   8.421
    7AGLC   HO431525   6.893   1.372   8.406
    7AGLC    C631526   6.967   1.329   8.163
    7AGLC   H6131527   7.018   1.308   8.068
    7AGLC   H6231528   6.885   1.400   8.141
    7AGLC    O631529   7.059   1.393   8.253
    7AGLC   HO631530   7.129   1.427   8.197
    8AGLC    C131531   6.689   1.032   8.596
    8AGLC    H131532   6.627   1.106   8.543
    8AGLC    C531533   6.699   0.795   8.642
    8AGLC    H531534   6.805   0.796   8.608
    8AGLC    O531535   6.629   0.903   8.579
    8AGLC    C231536   6.686   1.058   8.747
    8AGLC    H231537   6.580   1.057   8.778
    8AGLC    O231538   6.745   1.183   8.785
    8AGLC    C331539   6.762   0.953   8.823
    8AGLC    H331540   6.866   0.952   8.783
    8AGLC    O331541   6.769   0.993   8.962
    8AGLC    C431542   6.701   0.817   8.793
    8AGLC    H431543   6.595   0.813   8.827
    8AGLC    O431544   6.776   0.714   8.858
    8AGLC   HO431545   6.842   0.681   8.797
    8AGLC    C631546   6.636   0.664   8.596
    8AGLC   H6131547   6.560   0.684   8.517
    8AGLC   H6231548   6.713   0.601   8.549
    8AGLC    O631549   6.574   0.590   8.702
    8AGLC   HO631550   6.631   0.595   8.780
    9AGAL    C131551   6.689   1.300   8.730
    9AGAL    H131552   6.689   1.297   8.620
    9AGAL    C531553   6.544   1.324   8.918
    9AGAL    H531554   6.587   1.230   8.960
    9AGAL    O531555   6.554   1.319   8.775
    9AGAL    C231556   6.777   1.415   8.778
    9AGAL    H231557   6.737   1.508   8.733
    9AGAL    O231558   6.906   1.388   8.716
    9AGAL    C331559   6.770   1.426   8.929
    9AGAL    H331560   6.812   1.334   8.974
    9AGAL    O331561   6.842   1.539   8.977
    9AGAL   HO331562   6.784   1.612   8.955
    9AGAL    C431563   6.624   1.442   8.971
    9AGAL    H431564   6.619   1.438   9.082
    9AGAL    O431565   6.570   1.567   8.931
    9AGAL   HO431566   6.478   1.550   8.907
    9AGAL    C631567   6.397   1.324   8.957
    9AGAL   H6131568   6.349   1.230   8.922
    9AGAL   H6231569   6.387   1.327   9.068
    9AGAL    O631570   6.325   1.435   8.903
    9AGAL   HO631571   6.276   1.404   8.827
   10AGAL    C131572   7.028   1.424   8.778
   10AGAL    H131573   7.026   1.532   8.802
   10AGAL    C531574   7.065   1.205   8.866
   10AGAL    H531575   6.974   1.177   8.811
   10AGAL    O531576   7.056   1.346   8.895
   10AGAL    C231577   7.142   1.402   8.677
   10AGAL    H231578   7.236   1.437   8.726
   10AGAL    O231579   7.124   1.481   8.559
   10AGAL   HO231580   7.155   1.432   8.483
   10AGAL    C331581   7.158   1.254   8.644
   10AGAL    H331582   7.063   1.218   8.601
   10AGAL    O331583   7.265   1.232   8.551
   10AGAL   HO331584   7.234   1.183   8.474
   10AGAL    C431585   7.182   1.176   8.773
   10AGAL    H431586   7.182   1.068   8.747
   10AGAL    O431587   7.309   1.208   8.830
   10AGAL   HO431588   7.370   1.215   8.756
   10AGAL    C631589   7.059   1.126   8.995
   10AGAL   H6131590   6.998   1.181   9.069
   10AGAL   H6231591   7.009   1.029   8.976
   10AGAL    O631592   7.187   1.097   9.051
   10AGAL   HO631593   7.250   1.153   9.006
   11BGLC    C131594   6.680   0.937   9.057
   11BGLC    H131595   6.711   0.833   9.078
   11BGLC    C531596   6.457   0.872   9.106
   11BGLC    H531597   6.503   0.773   9.127
   11BGLC    O531598   6.544   0.938   9.012
   11BGLC    C231599   6.688   1.018   9.188
   11BGLC    H231600   6.649   1.120   9.165
   11BGLC    O231601   6.823   1.032   9.231
   11BGLC   HO231602   6.878   1.021   9.155
   11BGLC    C331603   6.599   0.956   9.292
   11BGLC    H331604   6.635   0.853   9.316
   11BGLC    O331605   6.595   1.036   9.412
   11BGLC    C431606   6.458   0.948   9.238
   11BGLC    H431607   6.418   1.050   9.219
   11BGLC    O431608   6.372   0.882   9.330
   11BGLC   HO431609   6.341   0.946   9.395
   11BGLC    C631610   6.321   0.850   9.042
   11BGLC   H6131611   6.240   0.868   9.116
   11BGLC   H6231612   6.306   0.922   8.959
   11BGLC    O631613   6.308   0.716   8.992
   11BGLC   HO631614   6.230   0.710   8.938
   12BGLCN   C131615   6.644   0.977   9.530
   12BGLCN   H131616   6.753   0.958   9.520
   12BGLCN   C531617   6.616   0.797   9.686
   12BGLCN   H531618   6.725   0.775   9.683
   12BGLCN   O531619   6.574   0.856   9.561
   12BGLCN   C231620   6.617   1.081   9.639
   12BGLCN   H231621   6.507   1.094   9.643
   12BGLCN    N31622   6.677   1.208   9.601
   12BGLCN   HN31623   6.765   1.202   9.554
   12BGLCN    C31624   6.617   1.327   9.611
   12BGLCN    O31625   6.512   1.345   9.670
   12BGLCN   CT31626   6.688   1.443   9.546
   12BGLCN  HT131627   6.675   1.534   9.609
   12BGLCN  HT231628   6.643   1.462   9.447
   12BGLCN  HT331629   6.797   1.421   9.535
   12BGLCN   C331630   6.662   1.027   9.775
   12BGLCN   H331631   6.772   1.008   9.770
   12BGLCN   O331632   6.634   1.121   9.880
   12BGLCN   C431633   6.588   0.896   9.799
   12BGLCN   H431634   6.480   0.918   9.799
   12BGLCN   O431635   6.617   0.836   9.925
   12BGLCN  HO431636   6.710   0.835   9.946
   12BGLCN   C631637   6.539   0.666   9.698
   12BGLCN  H6131638   6.536   0.632   9.804
   12BGLCN  H6231639   6.434   0.681   9.664
   12BGLCN   O631640   6.600   0.562   9.622
   12BGLCN  HO631641   6.537   0.490   9.608
   13AGAL    C131642   6.729   1.126   9.985
   13AGAL    H131643   6.765   1.024  10.011
   13AGAL    C531644   6.805   1.344   9.922
   13AGAL    H531645   6.727   1.341   9.842
   13AGAL    O531646   6.843   1.207   9.950
   13AGAL    C231647   6.668   1.189  10.110
   13AGAL    H231648   6.751   1.199  10.183
   13AGAL    O231649   6.567   1.104  10.169
   13AGAL    C331650   6.619   1.330  10.080
   13AGAL    H331651   6.548   1.324   9.995
   13AGAL    O331652   6.549   1.388  10.190
   13AGAL   HO331653   6.469   1.428  10.157
   13AGAL    C431654   6.739   1.413  10.042
   13AGAL    H431655   6.705   1.513  10.009
   13AGAL    O431656   6.828   1.434  10.151
   13AGAL   HO431657   6.773   1.462  10.226
   13AGAL    C631658   6.923   1.419   9.862
   13AGAL   H6131659   6.963   1.362   9.775
   13AGAL   H6231660   6.888   1.518   9.826
   13AGAL    O631661   7.026   1.438   9.958
   13AGAL   HO631662   6.982   1.445  10.043
   14ARHM    C131663   6.599   1.047  10.295
   14ARHM    H131664   6.709   1.028  10.299
   14ARHM    C531665   6.396   0.926  10.313
   14ARHM    H531666   6.361   0.964  10.215
   14ARHM    O531667   6.539   0.919  10.313
   14ARHM    C231668   6.559   1.143  10.406
   14ARHM    H231669   6.604   1.242  10.386
   14ARHM    O231670   6.599   1.103  10.538
   14ARHM    C331671   6.408   1.156  10.407
   14ARHM    H331672   6.376   1.195  10.308
   14ARHM    O331673   6.364   1.248  10.507
   14ARHM   HO331674   6.277   1.279  10.480
   14ARHM    C431675   6.348   1.017  10.425
   14ARHM    H431676   6.384   0.975  10.521
   14ARHM    O431677   6.205   1.021  10.431
   14ARHM   HO431678   6.168   0.934  10.448
   14ARHM    C631679   6.349   0.780  10.328
   14ARHM   H6131680   6.391   0.718  10.247
   14ARHM   H6231681   6.385   0.738  10.425
   14ARHM   H6331682   6.238   0.774  10.325
   15ARHM    C131683   6.736   1.084  10.561
   15ARHM    H131684   6.797   1.142  10.487
   15ARHM    C531685   6.697   0.865  10.648
   15ARHM    H531686   6.588   0.874  10.624
   15ARHM    O531687   6.772   0.945  10.554
   15ARHM    C231688   6.765   1.134  10.700
   15ARHM    H231689   6.737   1.242  10.704
   15ARHM    O231690   6.906   1.124  10.720
   15ARHM    C331691   6.681   1.057  10.799
   15ARHM    H331692   6.575   1.066  10.769
   15ARHM    O331693   6.694   1.115  10.929
   15ARHM    C431694   6.722   0.912  10.792
   15ARHM    H431695   6.830   0.902  10.812
   15ARHM    O431696   6.652   0.832  10.887
   15ARHM   HO431697   6.659   0.740  10.861
   15ARHM    C631698   6.738   0.719  10.622
   15ARHM   H6131699   6.680   0.648  10.686
   15ARHM   H6231700   6.718   0.693  10.514
   15ARHM   H6331701   6.846   0.706  10.641
   16BMANN   C131702   6.960   1.163  10.844
   16BMANN   H131703   6.928   1.091  10.922
   16BMANN   C531704   6.979   1.331  11.009
   16BMANN   H531705   6.942   1.258  11.085
   16BMANN   O531706   6.925   1.297  10.880
   16BMANN   C231707   7.111   1.153  10.828
   16BMANN   H231708   7.133   1.047  10.806
   16BMANN    N31709   7.162   1.236  10.719
   16BMANN   HN31710   7.191   1.329  10.741
   16BMANN    C31711   7.175   1.192  10.594
   16BMANN    O31712   7.149   1.078  10.561
   16BMANN   CT31713   7.222   1.294  10.493
   16BMANN  HT131714   7.332   1.307  10.502
   16BMANN  HT231715   7.172   1.391  10.511
   16BMANN  HT331716   7.198   1.258  10.391
   16BMANN   C331717   7.174   1.185  10.963
   16BMANN   H331718   7.136   1.112  11.037
   16BMANN   O331719   7.315   1.170  10.954
   16BMANN  HO331720   7.353   1.182  11.043
   16BMANN   C431721   7.132   1.324  11.005
   16BMANN   H431722   7.166   1.399  10.930
   16BMANN   O431723   7.189   1.361  11.131
   16BMANN  HO431724   7.281   1.386  11.118
   16BMANN   C631725   6.929   1.467  11.051
   16BMANN  H6131726   6.961   1.484  11.156
   16BMANN  H6231727   6.973   1.546  10.988
   16BMANN   O631728   6.786   1.479  11.048
   16BMANN  HO631729   6.758   1.484  10.957
   17BGLCN   C131730   6.576   1.118  11.005
   17BGLCN   H131731   6.516   1.026  10.986
   17BGLCN   C531732   6.384   1.246  11.064
   17BGLCN   H531733   6.324   1.152  11.055
   17BGLCN   O531734   6.499   1.236  10.977
   17BGLCN   C231735   6.626   1.121  11.148
   17BGLCN   H231736   6.683   1.216  11.161
   17BGLCN    N31737   6.721   1.013  11.170
   17BGLCN   HN31738   6.719   0.940  11.102
   17BGLCN    C31739   6.814   1.012  11.266
   17BGLCN    O31740   6.828   1.101  11.349
   17BGLCN   CT31741   6.905   0.892  11.269
   17BGLCN  HT131742   6.994   0.911  11.206
   17BGLCN  HT231743   6.852   0.801  11.232
   17BGLCN  HT331744   6.939   0.874  11.373
   17BGLCN   C331745   6.504   1.126  11.239
   17BGLCN   H331746   6.439   1.043  11.204
   17BGLCN   O331747   6.534   1.099  11.377
   17BGLCN   C431748   6.431   1.255  11.208
   17BGLCN   H431749   6.502   1.340  11.217
   17BGLCN   O431750   6.324   1.283  11.298
   17BGLCN  HO431751   6.349   1.359  11.350
   17BGLCN   C631752   6.298   1.359  11.013
   17BGLCN  H6131753   6.232   1.398  11.095
   17BGLCN  H6231754   6.361   1.444  10.978
   17BGLCN   O631755   6.213   1.314  10.908
   17BGLCN  HO631756   6.265   1.264  10.844
   18AGAL    C131757   6.432   1.034  11.450
   18AGAL    H131758   6.346   1.103  11.465
   18AGAL    C531759   6.487   0.815  11.370
   18AGAL    H531760   6.568   0.858  11.307
   18AGAL    O531761   6.384   0.914  11.387
   18AGAL    C231762   6.484   0.995  11.586
   18AGAL    H231763   6.401   0.940  11.634
   18AGAL    O231764   6.512   1.109  11.669
   18AGAL    C331765   6.601   0.899  11.569
   18AGAL    H331766   6.674   0.946  11.500
   18AGAL    O331767   6.673   0.873  11.689
   18AGAL   HO331768   6.744   0.938  11.691
   18AGAL    C431769   6.549   0.773  11.502
   18AGAL    H431770   6.636   0.706  11.481
   18AGAL    O431771   6.458   0.700  11.585
   18AGAL   HO431772   6.500   0.684  11.669
   18AGAL    C631773   6.428   0.699  11.290
   18AGAL   H6131774   6.403   0.733  11.186
   18AGAL   H6231775   6.503   0.618  11.280
   18AGAL    O631776   6.309   0.648  11.349
   18AGAL   HO631777   6.317   0.668  11.443
   19ARHM    C131778   6.475   1.086  11.802
   19ARHM    H131779   6.499   0.981  11.831
   19ARHM    C531780   6.290   1.237  11.800
   19ARHM    H531781   6.313   1.265  11.694
   19ARHM    O531782   6.335   1.104  11.825
   19ARHM    C231783   6.554   1.180  11.891
   19ARHM    H231784   6.660   1.174  11.860
   19ARHM    O231785   6.545   1.146  12.030
   19ARHM    C331786   6.512   1.323  11.868
   19ARHM    H331787   6.533   1.350  11.763
   19ARHM    O331788   6.587   1.411  11.951
   19ARHM   HO331789   6.569   1.387  12.043
   19ARHM    C431790   6.363   1.334  11.892
   19ARHM    H431791   6.340   1.304  11.998
   19ARHM    O431792   6.316   1.468  11.875
   19ARHM   HO431793   6.381   1.515  11.824
   19ARHM    C631794   6.137   1.235  11.818
   19ARHM   H6131795   6.092   1.165  11.745
   19ARHM   H6231796   6.111   1.201  11.919
   19ARHM   H6331797   6.094   1.336  11.800
   20ARHM    C131798   6.613   1.027  12.061
   20ARHM    H131799   6.682   0.999  11.979
   20ARHM    C531800   6.435   0.931  12.189
   20ARHM    H531801   6.372   1.021  12.172
   20ARHM    O531802   6.525   0.915  12.078
   20ARHM    C231803   6.693   1.050  12.187
   20ARHM    H231804   6.751   1.144  12.175
   20ARHM    O231805   6.784   0.942  12.210
   20ARHM    C331806   6.601   1.070  12.305
   20ARHM    H331807   6.537   1.159  12.286
   20ARHM    O331808   6.683   1.094  12.422
   20ARHM    C431809   6.513   0.948  12.318
   20ARHM    H431810   6.577   0.858  12.332
   20ARHM    O431811   6.425   0.957  12.432
   20ARHM   HO431812   6.364   0.883  12.427
   20ARHM    C631813   6.344   0.807  12.186
   20ARHM   H6131814   6.404   0.715  12.203
   20ARHM   H6231815   6.264   0.814  12.263
   20ARHM   H6331816   6.295   0.798  12.086
   21BMANN   C131817   6.896   0.940  12.125
   21BMANN   H131818   6.894   1.025  12.054
   21BMANN   C531819   7.020   0.808  11.968
   21BMANN   H531820   7.019   0.892  11.895
   21BMANN   O531821   6.904   0.816  12.054
   21BMANN   C231822   7.015   0.952  12.217
   21BMANN   H231823   7.008   1.051  12.266
   21BMANN    N31824   7.011   0.851  12.321
   21BMANN   HN31825   6.949   0.775  12.304
   21BMANN    C31826   7.077   0.854  12.436
   21BMANN    O31827   7.161   0.941  12.463
   21BMANN   CT31828   7.045   0.745  12.533
   21BMANN  HT131829   7.138   0.696  12.568
   21BMANN  HT231830   6.979   0.669  12.484
   21BMANN  HT331831   6.990   0.787  12.620
   21BMANN   C331832   7.139   0.951  12.130
   21BMANN   H331833   7.129   1.032  12.055
   21BMANN   O331834   7.257   0.979  12.204
   21BMANN  HO331835   7.239   0.962  12.297
   21BMANN   C431836   7.146   0.820  12.054
   21BMANN   H431837   7.149   0.735  12.124
   21BMANN   O431838   7.263   0.814  11.974
   21BMANN  HO431839   7.337   0.836  12.031
   21BMANN   C631840   7.012   0.678  11.891
   21BMANN  H6131841   7.108   0.659  11.838
   21BMANN  H6231842   6.994   0.593  11.960
   21BMANN   O631843   6.908   0.683  11.793
   21BMANN  HO631844   6.824   0.693  11.836
   22BGLCN   C131845   6.629   1.180  12.519
   22BGLCN   H131846   6.518   1.185  12.513
   22BGLCN   C531847   6.646   1.397  12.617
   22BGLCN   H531848   6.535   1.405  12.616
   22BGLCN   O531849   6.689   1.310  12.512
   22BGLCN   C231850   6.675   1.117  12.648
   22BGLCN   H231851   6.786   1.121  12.648
   22BGLCN    N31852   6.637   0.977  12.656
   22BGLCN   HN31853   6.555   0.951  12.606
   22BGLCN    C31854   6.711   0.882  12.715
   22BGLCN    O31855   6.822   0.904  12.763
   22BGLCN   CT31856   6.651   0.745  12.720
   22BGLCN  HT131857   6.664   0.695  12.621
   22BGLCN  HT231858   6.543   0.751  12.745
   22BGLCN  HT331859   6.703   0.686  12.798
   22BGLCN   C331860   6.627   1.199  12.766
   22BGLCN   H331861   6.516   1.207  12.762
   22BGLCN   O331862   6.664   1.128  12.885
   22BGLCN   C431863   6.688   1.338  12.752
   22BGLCN   H431864   6.798   1.326  12.753
   22BGLCN   O431865   6.652   1.425  12.859
   22BGLCN  HO431866   6.731   1.471  12.890
   22BGLCN   C631867   6.706   1.534  12.590
   22BGLCN  H6131868   6.720   1.590  12.686
   22BGLCN  H6231869   6.807   1.525  12.543
   22BGLCN   O631870   6.622   1.614  12.508
   22BGLCN  HO631871   6.631   1.588  12.415
   23AGAL    C131872   6.603   1.160  13.009
   23AGAL    H131873   6.634   1.261  13.041
   23AGAL    C531874   6.408   1.026  12.971
   23AGAL    H531875   6.452   0.997  12.873
   23AGAL    O531876   6.459   1.156  13.005
   23AGAL    C231877   6.652   1.060  13.113
   23AGAL    H231878   6.612   1.090  13.210
   23AGAL    O231879   6.796   1.057  13.117
   23AGAL    C331880   6.603   0.920  13.081
   23AGAL    H331881   6.645   0.890  12.982
   23AGAL    O331882   6.647   0.826  13.177
   23AGAL   HO331883   6.584   0.831  13.249
   23AGAL    C431884   6.452   0.921  13.074
   23AGAL    H431885   6.417   0.822  13.038
   23AGAL    O431886   6.396   0.944  13.203
   23AGAL   HO431887   6.307   0.975  13.186
   23AGAL    C631888   6.257   1.035  12.947
   23AGAL   H6131889   6.234   1.130  12.894
   23AGAL   H6231890   6.227   0.952  12.880
   23AGAL    O631891   6.179   1.026  13.066
   23AGAL   HO631892   6.124   1.104  13.076
   24ARHM    C131893   6.858   1.145  13.207
   24ARHM    H131894   6.797   1.237  13.217
   24ARHM    C531895   7.075   1.075  13.137
   24ARHM    H531896   7.031   1.004  13.064
   24ARHM    O531897   6.986   1.186  13.155
   24ARHM    C231898   6.872   1.077  13.340
   24ARHM    H231899   6.773   1.035  13.370
   24ARHM    O231900   6.914   1.170  13.443
   24ARHM    C331901   6.964   0.957  13.326
   24ARHM    H331902   6.918   0.885  13.255
   24ARHM    O331903   6.980   0.891  13.451
   24ARHM   HO331904   7.036   0.814  13.434
   24ARHM    C431905   7.097   1.003  13.270
   24ARHM    H431906   7.142   1.076  13.342
   24ARHM    O431907   7.191   0.895  13.259
   24ARHM   HO431908   7.167   0.836  13.186
   24ARHM    C631909   7.203   1.133  13.076
   24ARHM   H6131910   7.278   1.052  13.061
   24ARHM   H6231911   7.182   1.180  12.978
   24ARHM   H6331912   7.247   1.210  13.144
   25ARHM    C131913   6.805   1.240  13.500
   25ARHM    H131914   6.720   1.241  13.429
   25ARHM    C531915   6.930   1.399  13.625
   25ARHM    H531916   7.025   1.349  13.599
   25ARHM    O531917   6.833   1.379  13.523
   25ARHM    C231918   6.758   1.171  13.627
   25ARHM    H231919   6.747   1.062  13.607
   25ARHM    O231920   6.635   1.227  13.675
   25ARHM    C331921   6.862   1.189  13.734
   25ARHM    H331922   6.957   1.144  13.700
   25ARHM    O331923   6.817   1.121  13.852
   25ARHM    C431924   6.880   1.338  13.756
   25ARHM    H431925   6.782   1.384  13.781
   25ARHM    O431926   6.969   1.369  13.864
   25ARHM   HO431927   6.971   1.465  13.870
   25ARHM    C631928   6.956   1.551  13.631
   25ARHM   H6131929   6.990   1.586  13.531
   25ARHM   H6231930   6.863   1.605  13.658
   25ARHM   H6331931   7.036   1.575  13.704
   26BMANN   C131932   6.518   1.170  13.623
   26BMANN   H131933   6.534   1.064  13.592
   26BMANN   C531934   6.342   1.191  13.461
   26BMANN   H531935   6.362   1.087  13.429
   26BMANN   O531936   6.465   1.246  13.512
   26BMANN   C231937   6.418   1.175  13.736
   26BMANN   H231938   6.461   1.115  13.818
   26BMANN    N31939   6.400   1.311  13.786
   26BMANN   HN31940   6.434   1.384  13.727
   26BMANN    C31941   6.344   1.344  13.904
   26BMANN    O31942   6.304   1.260  13.984
   26BMANN   CT31943   6.331   1.490  13.936
   26BMANN  HT131944   6.343   1.551  13.842
   26BMANN  HT231945   6.409   1.519  14.009
   26BMANN  HT331946   6.230   1.509  13.977
   26BMANN   C331947   6.291   1.108  13.687
   26BMANN   H331948   6.317   1.006  13.651
   26BMANN   O331949   6.200   1.086  13.795
   26BMANN  HO331950   6.204   1.161  13.856
   26BMANN   C431951   6.234   1.185  13.571
   26BMANN   H431952   6.208   1.289  13.602
   26BMANN   O431953   6.117   1.122  13.519
   26BMANN  HO431954   6.041   1.159  13.564
   26BMANN   C631955   6.301   1.269  13.338
   26BMANN  H6131956   6.387   1.274  13.267
   26BMANN  H6231957   6.219   1.215  13.286
   26BMANN   O631958   6.256   1.403  13.366
   26BMANN  HO631959   6.173   1.417  13.321
   27BGLCN   C131960   6.917   1.061  13.930
   27BGLCN   H131961   7.013   1.115  13.918
   27BGLCN   C531962   7.029   0.857  13.981
   27BGLCN   H531963   7.126   0.908  13.971
   27BGLCN   O531964   6.932   0.923  13.898
   27BGLCN   C231965   6.865   1.075  14.071
   27BGLCN   H231966   6.769   1.020  14.078
   27BGLCN    N31967   6.838   1.216  14.097
   27BGLCN   HN31968   6.882   1.280  14.036
   27BGLCN    C31969   6.745   1.264  14.180
   27BGLCN    O31970   6.678   1.194  14.255
   27BGLCN   CT31971   6.726   1.413  14.179
   27BGLCN  HT131972   6.804   1.462  14.116
   27BGLCN  HT231973   6.733   1.453  14.283
   27BGLCN  HT331974   6.626   1.436  14.137
   27BGLCN   C331975   6.964   1.011  14.168
   27BGLCN   H331976   7.061   1.063  14.155
   27BGLCN   O331977   6.915   1.031  14.300
   27BGLCN   C431978   6.983   0.865  14.127
   27BGLCN   H431979   6.885   0.814  14.137
   27BGLCN   O431980   7.076   0.796  14.210
   27BGLCN  HO431981   7.164   0.833  14.200
   27BGLCN   C631982   7.044   0.715  13.929
   27BGLCN  H6131983   7.110   0.657  13.998
   27BGLCN  H6231984   6.945   0.665  13.927
   27BGLCN   O631985   7.102   0.713  13.798
   27BGLCN  HO631986   7.037   0.745  13.735
   28AGAL    C131987   7.003   1.013  14.409
   28AGAL    H131988   7.022   0.904  14.424
   28AGAL    C531989   7.111   1.225  14.380
   28AGAL    H531990   7.044   1.246  14.294
   28AGAL    O531991   7.128   1.082  14.390
   28AGAL    C231992   6.942   1.066  14.538
   28AGAL    H231993   7.024   1.053  14.611
   28AGAL    O231994   6.827   0.993  14.586
   28AGAL    C331995   6.912   1.214  14.525
   28AGAL    H331996   6.847   1.230  14.436
   28AGAL    O331997   6.843   1.265  14.639
   28AGAL   HO331998   6.749   1.266  14.619
   28AGAL    C431999   7.044   1.285  14.504
   28AGAL    H432000   7.022   1.392  14.481
   28AGAL    O432001   7.122   1.282  14.622
   28AGAL   HO432002   7.061   1.311  14.691
   28AGAL    C632003   7.246   1.287  14.344
   28AGAL   H6132004   7.272   1.258  14.241
   28AGAL   H6232005   7.238   1.398  14.346
   28AGAL    O632006   7.351   1.245  14.431
   28AGAL   HO632007   7.348   1.149  14.434
   29ARHM    C132008   6.837   0.959  14.723
   29ARHM    H132009   6.912   1.023  14.773
   29ARHM    C532010   6.775   0.732  14.687
   29ARHM    H532011   6.760   0.753  14.579
   29ARHM    O532012   6.875   0.822  14.739
   29ARHM    C232013   6.706   0.987  14.795
   29ARHM    H232014   6.676   1.092  14.773
   29ARHM    O232015   6.725   0.970  14.937
   29ARHM    C332016   6.598   0.897  14.743
   29ARHM    H332017   6.582   0.918  14.635
   29ARHM    O332018   6.475   0.923  14.811
   29ARHM   HO332019   6.417   0.847  14.801
   29ARHM    C432020   6.642   0.753  14.760
   29ARHM    H432021   6.659   0.733  14.868
   29ARHM    O432022   6.542   0.662  14.713
   29ARHM   HO432023   6.516   0.685  14.624
   29ARHM    C632024   6.830   0.590  14.700
   29ARHM   H6132025   6.925   0.579  14.643
   29ARHM   H6232026   6.851   0.566  14.807
   29ARHM   H6332027   6.758   0.515  14.662
   30ARHM    C132028   6.736   1.089  15.011
   30ARHM    H132029   6.657   1.161  14.980
   30ARHM    C532030   6.973   1.061  15.036
   30ARHM    H532031   6.968   0.967  14.977
   30ARHM    O532032   6.866   1.149  14.997
   30ARHM    C232033   6.715   1.052  15.156
   30ARHM    H232034   6.619   0.999  15.165
   30ARHM    O232035   6.715   1.171  15.237
   30ARHM    C332036   6.826   0.959  15.203
   30ARHM    H332037   6.822   0.871  15.135
   30ARHM    O332038   6.799   0.906  15.334
   30ARHM    C432039   6.961   1.024  15.183
   30ARHM    H432040   6.968   1.117  15.243
   30ARHM    O432041   7.070   0.939  15.221
   30ARHM   HO432042   7.041   0.848  15.225
   30ARHM    C632043   7.104   1.133  15.000
   30ARHM   H6132044   7.192   1.068  15.022
   30ARHM   H6232045   7.106   1.158  14.892
   30ARHM   H6332046   7.114   1.227  15.059
   31BMANN   C132047   6.588   1.224  15.267
   31BMANN   H132048   6.513   1.144  15.283
   31BMANN   C532049   6.417   1.378  15.200
   31BMANN   H532050   6.341   1.298  15.214
   31BMANN   O532051   6.544   1.317  15.167
   31BMANN   C232052   6.610   1.304  15.394
   31BMANN   H232053   6.640   1.231  15.473
   31BMANN    N32054   6.720   1.399  15.379
   31BMANN   HN32055   6.750   1.414  15.285
   31BMANN    C32056   6.786   1.459  15.478
   31BMANN    O32057   6.758   1.445  15.597
   31BMANN   CT32058   6.902   1.546  15.437
   31BMANN  HT132059   6.871   1.615  15.356
   31BMANN  HT232060   6.986   1.482  15.401
   31BMANN  HT332061   6.937   1.605  15.524
   31BMANN   C332062   6.477   1.362  15.436
   31BMANN   H332063   6.404   1.279  15.443
   31BMANN   O332064   6.482   1.418  15.567
   31BMANN  HO332065   6.571   1.451  15.585
   31BMANN   C432066   6.427   1.458  15.330
   31BMANN   H432067   6.498   1.542  15.317
   31BMANN   O432068   6.299   1.512  15.366
   31BMANN  HO432069   6.305   1.549  15.454
   31BMANN   C632070   6.374   1.463  15.082
   31BMANN  H6132071   6.297   1.537  15.112
   31BMANN  H6232072   6.461   1.520  15.042
   31BMANN   O632073   6.318   1.384  14.976
   31BMANN  HO632074   6.224   1.373  14.993
   32BGLCN   C132075   6.836   0.985  15.444
   32BGLCN   H132076   6.820   1.092  15.422
   32BGLCN   C532077   7.016   1.049  15.586
   32BGLCN   H532078   7.000   1.156  15.557
   32BGLCN   O532079   6.973   0.965  15.479
   32BGLCN   C232080   6.752   0.944  15.563
   32BGLCN   H232081   6.785   0.843  15.592
   32BGLCN    N32082   6.612   0.932  15.524
   32BGLCN   HN32083   6.586   0.972  15.436
   32BGLCN    C32084   6.526   0.845  15.578
   32BGLCN    O32085   6.551   0.780  15.679
   32BGLCN   CT32086   6.393   0.830  15.509
   32BGLCN  HT132087   6.384   0.902  15.425
   32BGLCN  HT232088   6.310   0.849  15.582
   32BGLCN  HT332089   6.383   0.727  15.470
   32BGLCN   C332090   6.787   1.040  15.676
   32BGLCN   H332091   6.775   1.143  15.636
   32BGLCN   O332092   6.708   1.030  15.796
   32BGLCN   C432093   6.934   1.018  15.709
   32BGLCN   H432094   6.949   0.911  15.736
   32BGLCN   O432095   6.976   1.096  15.820
   32BGLCN  HO432096   6.912   1.083  15.890
   32BGLCN   C632097   7.165   1.026  15.597
   32BGLCN  H6132098   7.210   1.096  15.670
   32BGLCN  H6232099   7.185   0.922  15.632
   32BGLCN   O632100   7.228   1.044  15.469
   32BGLCN  HO632101   7.176   0.991  15.407
   33AGAL    C132102   6.664   1.155  15.847
   33AGAL    H132103   6.740   1.234  15.830
   33AGAL    C532104   6.436   1.097  15.808
   33AGAL    H532105   6.474   0.998  15.773
   33AGAL    O532106   6.540   1.195  15.787
   33AGAL    C232107   6.642   1.142  15.996
   33AGAL    H232108   6.605   1.241  16.032
   33AGAL    O232109   6.769   1.114  16.059
   33AGAL    C332110   6.536   1.036  16.024
   33AGAL    H332111   6.572   0.940  15.982
   33AGAL    O332112   6.517   1.017  16.164
   33AGAL   HO332113   6.452   1.081  16.193
   33AGAL    C432114   6.406   1.076  15.956
   33AGAL    H432115   6.340   0.987  15.963
   33AGAL    O432116   6.336   1.183  16.018
   33AGAL   HO432117   6.390   1.262  16.024
   33AGAL    C632118   6.318   1.130  15.718
   33AGAL   H6132119   6.349   1.115  15.612
   33AGAL   H6232120   6.234   1.059  15.738
   33AGAL    O632121   6.269   1.264  15.730
   33AGAL   HO632122   6.344   1.324  15.727
   34ARHM    C132123   6.786   1.181  16.182
   34ARHM    H132124   6.691   1.183  16.239
   34ARHM    C532125   6.955   1.327  16.094
   34ARHM    H532126   6.944   1.283  15.992
   34ARHM    O532127   6.831   1.316  16.164
   34ARHM    C232128   6.891   1.104  16.260
   34ARHM    H232129   6.858   0.998  16.266
   34ARHM    O232130   6.910   1.153  16.394
   34ARHM    C332131   7.024   1.108  16.188
   34ARHM    H332132   7.012   1.062  16.087
   34ARHM    O332133   7.126   1.036  16.257
   34ARHM   HO332134   7.107   0.942  16.260
   34ARHM    C432135   7.065   1.253  16.169
   34ARHM    H432136   7.076   1.300  16.269
   34ARHM    O432137   7.191   1.264  16.102
   34ARHM   HO432138   7.246   1.197  16.141
   34ARHM    C632139   6.980   1.478  16.077
   34ARHM   H6132140   6.985   1.528  16.176
   34ARHM   H6232141   7.075   1.496  16.023
   34ARHM   H6332142   6.897   1.523  16.020
   35ARHM    C132143   6.800   1.144  16.481
   35ARHM    H132144   6.742   1.052  16.461
   35ARHM    C532145   6.788   1.382  16.489
   35ARHM    H532146   6.865   1.389  16.410
   35ARHM    O532147   6.715   1.259  16.473
   35ARHM    C232148   6.861   1.140  16.620
   35ARHM    H232149   6.930   1.053  16.625
   35ARHM    O232150   6.763   1.127  16.725
   35ARHM    C332151   6.942   1.264  16.643
   35ARHM    H332152   7.024   1.269  16.568
   35ARHM    O332153   7.003   1.260  16.772
   35ARHM   HO332154   6.934   1.238  16.835
   35ARHM    C432155   6.853   1.386  16.627
   35ARHM    H432156   6.773   1.384  16.704
   35ARHM    O432157   6.927   1.507  16.640
   35ARHM   HO432158   6.943   1.540  16.551
   35ARHM    C632159   6.686   1.495  16.466
   35ARHM   H6132160   6.640   1.484  16.366
   35ARHM   H6232161   6.606   1.489  16.543
   35ARHM   H6332162   6.735   1.594  16.473
   36BMANN   C132163   6.697   1.003  16.727
   36BMANN   H132164   6.767   0.923  16.697
   36BMANN   C532165   6.516   0.876  16.639
   36BMANN   H532166   6.588   0.800  16.602
   36BMANN   O532167   6.582   1.003  16.641
   36BMANN   C232168   6.650   0.978  16.868
   36BMANN   H232169   6.739   0.977  16.934
   36BMANN    N32170   6.556   1.081  16.914
   36BMANN   HN32171   6.475   1.093  16.857
   36BMANN    C32172   6.566   1.151  17.028
   36BMANN    O32173   6.667   1.155  17.096
   36BMANN   CT32174   6.444   1.230  17.067
   36BMANN  HT132175   6.352   1.178  17.034
   36BMANN  HT232176   6.448   1.331  17.021
   36BMANN  HT332177   6.441   1.240  17.178
   36BMANN   C332178   6.588   0.839  16.871
   36BMANN   H332179   6.665   0.768  16.834
   36BMANN   O332180   6.555   0.801  17.004
   36BMANN  HO332181   6.604   0.722  17.028
   36BMANN   C432182   6.469   0.836  16.778
   36BMANN   H432183   6.391   0.907  16.814
   36BMANN   O432184   6.409   0.706  16.772
   36BMANN  HO432185   6.386   0.681  16.862
   36BMANN   C632186   6.403   0.884  16.537
   36BMANN  H6132187   6.441   0.932  16.444
   36BMANN  H6232188   6.369   0.782  16.509
   36BMANN   O632189   6.291   0.959  16.584
   36BMANN  HO632190   6.232   0.900  16.631
    1ECLIP HB6S32191   7.160   7.270   6.674
    1ECLIP  OB632192   7.252   7.168   6.825
    1ECLIP  CB632193   7.263   7.244   6.705
    1ECLIP HB6R32194   7.315   7.341   6.726
    1ECLIP  CB532195   7.332   7.170   6.590
    1ECLIP  OB532196   7.259   7.049   6.561
    1ECLIP  HB532197   7.437   7.146   6.617
    1ECLIP  CB132198   7.306   6.976   6.445
    1ECLIP  HB132199   7.410   6.938   6.462
    1ECLIP  OA632200   7.223   6.867   6.414
    1ECLIP  CA632201   7.083   6.885   6.438
    1ECLIP HA6R32202   7.058   6.981   6.490
    1ECLIP HA6S32203   7.050   6.803   6.505
    1ECLIP  CB432204   7.322   7.255   6.466
    1ECLIP  HB432205   7.212   7.268   6.454
    1ECLIP  OB432206   7.387   7.379   6.490
    1ECLIP   PB32207   7.327   7.514   6.424
    1ECLIP OPB432208   7.303   7.603   6.543
    1ECLIP OPB332209   7.212   7.474   6.332
    1ECLIP OPB232210   7.452   7.570   6.358
    1ECLIP  CB332211   7.379   7.188   6.344
    1ECLIP  OB332212   7.351   7.274   6.233
    1ECLIP  HB332213   7.486   7.162   6.359
    1ECLIP  C7132214   7.456   7.320   6.163
    1ECLIP  O7132215   7.571   7.289   6.183
    1ECLIP  C7232216   7.405   7.370   6.030
    1ECLIP H72R32217   7.349   7.291   5.976
    1ECLIP H72S32218   7.494   7.384   5.964
    1ECLIP  CB232219   7.299   7.063   6.321
    1ECLIP  HB232220   7.193   7.098   6.322
    1ECLIP  NB232221   7.323   7.000   6.190
    1ECLIP HNB232222   7.371   6.912   6.189
    1ECLIP  CA432223   7.041   6.761   6.222
    1ECLIP  HA432224   7.149   6.769   6.196
    1ECLIP  OA432225   7.020   6.640   6.294
    1ECLIP HOA432226   7.097   6.617   6.347
    1ECLIP  CA532227   7.004   6.878   6.309
    1ECLIP  HA532228   6.897   6.869   6.337
    1ECLIP  OA532229   7.021   7.001   6.235
    1ECLIP  CA132230   6.932   7.012   6.122
    1ECLIP  HA132231   6.967   7.098   6.061
    1ECLIP  OA132232   6.801   7.048   6.162
    1ECLIP OPA232233   6.792   7.126   6.405
    1ECLIP OPA332234   6.919   7.265   6.240
    1ECLIP OPA432235   6.667   7.258   6.229
    1ECLIP   PA32236   6.793   7.181   6.263
    1ECLIP  CA332237   6.955   6.763   6.098
    1ECLIP  HA332238   6.850   6.747   6.130
    1ECLIP  OA332239   6.998   6.653   6.016
    1ECLIP  C3132240   7.112   6.670   5.943
    1ECLIP  O3132241   7.109   6.707   5.827
    1ECLIP  C3232242   7.210   6.563   5.983
    1ECLIP H32R32243   7.209   6.488   5.900
    1ECLIP H32S32244   7.177   6.514   6.077
    1ECLIP  CA232245   6.965   6.896   6.026
    1ECLIP  HA232246   7.071   6.911   5.997
    1ECLIP  NA232247   6.884   6.893   5.905
    1ECLIP HNA232248   6.825   6.813   5.894
    1ECLIP  C7332249   7.320   7.497   6.037
    1ECLIP H73R32250   7.350   7.558   6.125
    1ECLIP  O7332251   7.183   7.453   6.051
    1ECLIP  C8132252   7.091   7.551   6.045
    1ECLIP  O8132253   7.111   7.669   6.063
    1ECLIP  C8232254   6.964   7.490   5.990
    1ECLIP H82R32255   6.883   7.565   6.004
    1ECLIP H82S32256   6.936   7.398   6.044
    1ECLIP  C8332257   6.976   7.458   5.839
    1ECLIP H83R32258   7.046   7.373   5.825
    1ECLIP H83S32259   7.014   7.546   5.783
    1ECLIP  C8432260   6.841   7.417   5.780
    1ECLIP H84R32261   6.771   7.503   5.782
    1ECLIP H84S32262   6.797   7.334   5.839
    1ECLIP  C8532263   6.856   7.371   5.635
    1ECLIP H85R32264   6.914   7.276   5.634
    1ECLIP H85S32265   6.914   7.448   5.580
    1ECLIP  C8632266   6.721   7.350   5.566
    1ECLIP H86R32267   6.668   7.448   5.563
    1ECLIP H86S32268   6.659   7.282   5.628
    1ECLIP  C8732269   6.733   7.291   5.425
    1ECLIP H87R32270   6.636   7.296   5.373
    1ECLIP H87S32271   6.758   7.184   5.439
    1ECLIP  C8832272   6.846   7.350   5.339
    1ECLIP H88R32273   6.941   7.346   5.396
    1ECLIP H88S32274   6.824   7.456   5.315
    1ECLIP  C8932275   6.871   7.269   5.212
    1ECLIP H89R32276   6.882   7.161   5.236
    1ECLIP H89S32277   6.969   7.303   5.174
    1ECLIP C81032278   6.762   7.287   5.105
    1ECLIPH810R32279   6.720   7.389   5.115
    1ECLIPH810S32280   6.679   7.216   5.127
    1ECLIP C81132281   6.814   7.266   4.962
    1ECLIPH811R32282   6.730   7.286   4.891
    1ECLIPH811S32283   6.843   7.160   4.950
    1ECLIP C81232284   6.935   7.354   4.922
    1ECLIPH812R32285   6.952   7.343   4.813
    1ECLIPH812S32286   7.026   7.316   4.973
    1ECLIP C81332287   6.915   7.502   4.954
    1ECLIPH813R32288   6.832   7.539   4.891
    1ECLIPH813S32289   6.886   7.513   5.061
    1ECLIP C81432290   7.037   7.591   4.932
    1ECLIPH814R32291   7.073   7.580   4.827
    1ECLIPH814S32292   7.117   7.564   5.003
    1ECLIPH814T32293   7.011   7.698   4.950
    1ECLIP  C7432294   7.346   7.588   5.911
    1ECLIP H74R32295   7.452   7.620   5.917
    1ECLIP H74S32296   7.288   7.683   5.919
    1ECLIP  C7532297   7.323   7.529   5.771
    1ECLIP H75R32298   7.277   7.608   5.708
    1ECLIP H75S32299   7.251   7.445   5.774
    1ECLIP  C7632300   7.453   7.486   5.700
    1ECLIP H76R32301   7.489   7.391   5.745
    1ECLIP H76S32302   7.532   7.562   5.715
    1ECLIP  C7732303   7.433   7.467   5.549
    1ECLIP H77R32304   7.419   7.567   5.502
    1ECLIP H77S32305   7.340   7.409   5.531
    1ECLIP  C7832306   7.551   7.394   5.483
    1ECLIP H78R32307   7.642   7.456   5.495
    1ECLIP H78S32308   7.570   7.300   5.539
    1ECLIP  C7932309   7.531   7.357   5.335
    1ECLIP H79R32310   7.463   7.269   5.329
    1ECLIP H79S32311   7.628   7.322   5.293
    1ECLIP C71032312   7.471   7.465   5.245
    1ECLIPH710R32313   7.375   7.501   5.287
    1ECLIPH710S32314   7.540   7.552   5.236
    1ECLIP C71132315   7.441   7.409   5.103
    1ECLIPH711R32316   7.528   7.352   5.065
    1ECLIPH711S32317   7.358   7.336   5.115
    1ECLIP C71232318   7.401   7.517   5.002
    1ECLIPH712R32319   7.491   7.575   4.973
    1ECLIPH712S32320   7.332   7.587   5.054
    1ECLIP C71332321   7.328   7.462   4.879
    1ECLIPH713R32322   7.242   7.401   4.915
    1ECLIPH713S32323   7.287   7.549   4.823
    1ECLIP C71432324   7.406   7.377   4.780
    1ECLIPH714R32325   7.478   7.439   4.721
    1ECLIPH714S32326   7.462   7.296   4.832
    1ECLIPH714T32327   7.336   7.332   4.707
    1ECLIP  C5132328   7.285   7.056   6.073
    1ECLIP  O5132329   7.201   7.147   6.073
    1ECLIP  C5232330   7.359   7.017   5.945
    1ECLIP H52R32331   7.451   7.079   5.936
    1ECLIP H52S32332   7.394   6.913   5.962
    1ECLIP  C5332333   7.278   7.025   5.813
    1ECLIP H53R32334   7.176   6.986   5.832
    1ECLIP  O5332335   7.350   6.943   5.721
    1ECLIP  C6132336   7.272   6.865   5.648
    1ECLIP  O6132337   7.157   6.891   5.618
    1ECLIP  C6232338   7.362   6.782   5.556
    1ECLIP H62R32339   7.429   6.718   5.618
    1ECLIP H62S32340   7.424   6.852   5.498
    1ECLIP  C6332341   7.276   6.691   5.467
    1ECLIP H63R32342   7.204   6.754   5.411
    1ECLIP H63S32343   7.218   6.623   5.532
    1ECLIP  C6432344   7.359   6.613   5.365
    1ECLIP H64R32345   7.290   6.556   5.299
    1ECLIP H64S32346   7.425   6.540   5.415
    1ECLIP  C6532347   7.444   6.709   5.280
    1ECLIP H65R32348   7.529   6.744   5.341
    1ECLIP H65S32349   7.383   6.798   5.253
    1ECLIP  C6632350   7.501   6.648   5.151
    1ECLIP H66R32351   7.574   6.570   5.179
    1ECLIP H66S32352   7.556   6.728   5.097
    1ECLIP  C6732353   7.398   6.585   5.057
    1ECLIP H67R32354   7.375   6.482   5.090
    1ECLIP H67S32355   7.448   6.579   4.958
    1ECLIP  C6832356   7.266   6.662   5.039
    1ECLIP H68R32357   7.284   6.771   5.046
    1ECLIP H68S32358   7.196   6.635   5.122
    1ECLIP  C6932359   7.204   6.630   4.903
    1ECLIP H69R32360   7.253   6.538   4.865
    1ECLIP H69S32361   7.227   6.714   4.834
    1ECLIP C61032362   7.054   6.603   4.905
    1ECLIPH610R32363   7.002   6.701   4.914
    1ECLIPH610S32364   7.029   6.540   4.992
    1ECLIP C61132365   7.003   6.537   4.776
    1ECLIPH611R32366   7.040   6.432   4.773
    1ECLIPH611S32367   6.892   6.533   4.778
    1ECLIP C61232368   7.049   6.608   4.650
    1ECLIPH612R32369   7.006   6.711   4.644
    1ECLIPH612S32370   7.159   6.619   4.653
    1ECLIPH612T32371   7.020   6.550   4.561
    1ECLIP  C5432372   7.269   7.168   5.752
    1ECLIP H54R32373   7.372   7.208   5.742
    1ECLIP H54S32374   7.213   7.228   5.826
    1ECLIP  C5532375   7.195   7.186   5.616
    1ECLIP H55R32376   7.166   7.293   5.608
    1ECLIP H55S32377   7.100   7.128   5.618
    1ECLIP  C5632378   7.275   7.148   5.491
    1ECLIP H56R32379   7.300   7.040   5.490
    1ECLIP H56S32380   7.374   7.198   5.495
    1ECLIP  C5732381   7.203   7.172   5.358
    1ECLIP H57R32382   7.206   7.280   5.332
    1ECLIP H57S32383   7.097   7.141   5.370
    1ECLIP  C5832384   7.266   7.087   5.245
    1ECLIP H58R32385   7.374   7.109   5.240
    1ECLIP H58S32386   7.257   6.979   5.273
    1ECLIP  C5932387   7.203   7.109   5.108
    1ECLIP H59R32388   7.179   7.217   5.095
    1ECLIP H59S32389   7.106   7.054   5.102
    1ECLIP C51032390   7.297   7.066   4.995
    1ECLIPH510R32391   7.339   6.966   5.016
    1ECLIPH510S32392   7.382   7.137   4.992
    1ECLIP C51132393   7.228   7.065   4.858
    1ECLIPH511R32394   7.154   6.982   4.853
    1ECLIPH511S32395   7.171   7.160   4.849
    1ECLIP C51232396   7.327   7.057   4.742
    1ECLIPH512R32397   7.300   7.136   4.669
    1ECLIPH512S32398   7.430   7.078   4.778
    1ECLIP C51332399   7.326   6.925   4.665
    1ECLIPH513R32400   7.221   6.894   4.644
    1ECLIPH513S32401   7.372   6.847   4.730
    1ECLIP C51432402   7.403   6.936   4.533
    1ECLIPH514R32403   7.510   6.959   4.554
    1ECLIPH514S32404   7.397   6.841   4.477
    1ECLIPH514T32405   7.362   7.016   4.469
    1ECLIP  C3332406   7.356   6.609   5.999
    1ECLIP H33R32407   7.421   6.522   6.023
    1ECLIP  O3332408   7.359   6.706   6.102
    1ECLIP HO3332409   7.378   6.658   6.183
    1ECLIP  C3432410   7.422   6.666   5.875
    1ECLIP H34R32411   7.360   6.753   5.844
    1ECLIP H34S32412   7.420   6.589   5.795
    1ECLIP  C3532413   7.568   6.708   5.903
    1ECLIP H35R32414   7.628   6.619   5.932
    1ECLIP H35S32415   7.570   6.777   5.990
    1ECLIP  C3632416   7.633   6.779   5.783
    1ECLIP H36R32417   7.558   6.851   5.743
    1ECLIP H36S32418   7.655   6.705   5.704
    1ECLIP  C3732419   7.758   6.863   5.814
    1ECLIP H37R32420   7.845   6.795   5.825
    1ECLIP H37S32421   7.744   6.915   5.912
    1ECLIP  C3832422   7.783   6.969   5.705
    1ECLIP H38R32423   7.702   7.045   5.712
    1ECLIP H38S32424   7.880   7.020   5.724
    1ECLIP  C3932425   7.782   6.909   5.563
    1ECLIP H39R32426   7.685   6.857   5.549
    1ECLIP H39S32427   7.862   6.833   5.554
    1ECLIP C31032428   7.794   7.012   5.450
    1ECLIPH310R32429   7.900   7.042   5.439
    1ECLIPH310S32430   7.734   7.102   5.476
    1ECLIP C31132431   7.740   6.952   5.319
    1ECLIPH311R32432   7.789   6.854   5.302
    1ECLIPH311S32433   7.631   6.934   5.333
    1ECLIP C31232434   7.759   7.041   5.195
    1ECLIPH312R32435   7.717   7.142   5.216
    1ECLIPH312S32436   7.867   7.052   5.175
    1ECLIP C31332437   7.688   6.980   5.073
    1ECLIPH313R32438   7.732   6.881   5.054
    1ECLIPH313S32439   7.581   6.964   5.099
    1ECLIP C31432440   7.697   7.067   4.948
    1ECLIPH314R32441   7.803   7.084   4.920
    1ECLIPH314S32442   7.646   7.016   4.863
    1ECLIPH314T32443   7.648   7.165   4.964
    1ECLIP  C1132444   6.888   6.983   5.806
    1ECLIP  O1132445   6.960   7.082   5.811
    1ECLIP  C1232446   6.791   6.961   5.689
    1ECLIP H12R32447   6.733   7.055   5.682
    1ECLIP H12S32448   6.719   6.880   5.716
    1ECLIP  C1332449   6.849   6.929   5.549
    1ECLIP H13R32450   6.933   6.997   5.528
    1ECLIP  O1332451   6.745   6.953   5.457
    1ECLIP HO1332452   6.768   6.922   5.370
    1ECLIP  C1432453   6.890   6.784   5.519
    1ECLIP H14R32454   6.812   6.716   5.561
    1ECLIP H14S32455   6.983   6.756   5.571
    1ECLIP  C1532456   6.901   6.751   5.367
    1ECLIP H15R32457   6.797   6.735   5.332
    1ECLIP H15S32458   6.954   6.654   5.355
    1ECLIP  C1632459   6.969   6.853   5.273
    1ECLIP H16R32460   7.079   6.841   5.282
    1ECLIP H16S32461   6.946   6.958   5.299
    1ECLIP  C1732462   6.932   6.828   5.125
    1ECLIP H17R32463   6.930   6.718   5.110
    1ECLIP H17S32464   7.011   6.870   5.059
    1ECLIP  C1832465   6.796   6.888   5.082
    1ECLIP H18R32466   6.720   6.853   5.155
    1ECLIP H18S32467   6.801   6.999   5.090
    1ECLIP  C1932468   6.749   6.847   4.941
    1ECLIP H19R32469   6.645   6.885   4.931
    1ECLIP H19S32470   6.744   6.737   4.934
    1ECLIP C11032471   6.828   6.904   4.822
    1ECLIPH110R32472   6.903   6.978   4.859
    1ECLIPH110S32473   6.884   6.822   4.773
    1ECLIP C11132474   6.736   6.971   4.719
    1ECLIPH111R32475   6.661   6.898   4.683
    1ECLIPH111S32476   6.680   7.052   4.771
    1ECLIP C11232477   6.810   7.034   4.599
    1ECLIPH112R32478   6.767   7.136   4.584
    1ECLIPH112S32479   6.917   7.046   4.627
    1ECLIP C11332480   6.798   6.957   4.467
    1ECLIPH113R32481   6.882   6.884   4.460
    1ECLIPH113S32482   6.704   6.898   4.470
    1ECLIP C11432483   6.797   7.043   4.341
    1ECLIPH114R32484   6.753   7.143   4.361
    1ECLIPH114S32485   6.900   7.057   4.301
    1ECLIPH114T32486   6.737   6.993   4.261
    2AKDO    C132487   7.483   7.215   6.892
    2AKDO   O1132488   7.530   7.328   6.856
    2AKDO   O1232489   7.544   7.105   6.892
    2AKDO    C232490   7.332   7.210   6.934
    2AKDO    C632491   7.164   7.363   7.016
    2AKDO    H632492   7.101   7.340   6.927
    2AKDO    O632493   7.302   7.342   6.983
    2AKDO    C332494   7.288   7.109   7.042
    2AKDO   H3132495   7.349   7.121   7.134
    2AKDO   H3232496   7.305   7.006   7.003
    2AKDO    C432497   7.141   7.126   7.075
    2AKDO    H432498   7.085   7.115   6.979
    2AKDO    O432499   7.091   7.031   7.170
    2AKDO    C532500   7.119   7.266   7.127
    2AKDO    H532501   7.010   7.278   7.142
    2AKDO    O532502   7.189   7.276   7.254
    2AKDO    C732503   7.160   7.515   7.037
    2AKDO    H732504   7.250   7.544   7.095
    2AKDO    O732505   7.047   7.565   7.108
    2AKDO   HO732506   6.973   7.507   7.090
    2AKDO    C832507   7.169   7.581   6.900
    2AKDO   H8132508   7.242   7.526   6.837
    2AKDO   H8232509   7.071   7.573   6.847
    2AKDO    O832510   7.209   7.720   6.903
    2AKDO   HO832511   7.239   7.734   6.813
    3AKDO    C132512   6.876   6.996   7.044
    3AKDO   O1132513   6.882   6.990   6.918
    3AKDO   O1232514   6.773   7.027   7.112
    3AKDO    C232515   6.995   6.934   7.128
    3AKDO    C632516   7.159   6.755   7.142
    3AKDO    H632517   7.236   6.830   7.170
    3AKDO    O632518   7.057   6.821   7.061
    3AKDO    C332519   6.937   6.881   7.259
    3AKDO   H3132520   6.856   6.809   7.233
    3AKDO   H3232521   6.892   6.965   7.315
    3AKDO    C432522   7.035   6.813   7.348
    3AKDO    H432523   7.114   6.884   7.381
    3AKDO    O432524   6.963   6.764   7.462
    3AKDO   HO432525   6.950   6.673   7.436
    3AKDO    C532526   7.097   6.699   7.271
    3AKDO    H532527   7.177   6.656   7.334
    3AKDO    O532528   7.001   6.596   7.245
    3AKDO   HO532529   7.018   6.562   7.156
    3AKDO    C732530   7.233   6.643   7.068
    3AKDO    H732531   7.159   6.566   7.035
    3AKDO    O732532   7.328   6.583   7.155
    3AKDO   HO732533   7.329   6.490   7.131
    3AKDO    C832534   7.306   6.694   6.944
    3AKDO   H8132535   7.235   6.744   6.875
    3AKDO   H8232536   7.383   6.768   6.973
    3AKDO    O832537   7.369   6.586   6.874
    3AKDO   HO832538   7.349   6.504   6.919
    4AHEP    C132539   7.148   7.373   7.346
    4AHEP    H132540   7.192   7.469   7.312
    4AHEP    C532541   6.934   7.285   7.407
    4AHEP    H532542   6.960   7.193   7.351
    4AHEP    O532543   7.007   7.397   7.351
    4AHEP    C232544   7.203   7.348   7.487
    4AHEP    H232545   7.309   7.319   7.476
    4AHEP    O232546   7.198   7.464   7.571
    4AHEP   HO232547   7.151   7.431   7.648
    4AHEP    C332548   7.130   7.234   7.554
    4AHEP    H332549   7.149   7.138   7.502
    4AHEP    O332550   7.163   7.226   7.694
    4AHEP    C432551   6.983   7.270   7.551
    4AHEP    H432552   6.970   7.370   7.597
    4AHEP    O432553   6.911   7.168   7.622
    4AHEP    P432554   6.830   7.212   7.756
    4AHEP  OP4232555   6.795   7.079   7.818
    4AHEP  OP4332556   6.701   7.260   7.694
    4AHEP  OP4432557   6.909   7.314   7.837
    4AHEP    C632558   6.783   7.306   7.392
    4AHEP    H632559   6.732   7.212   7.421
    4AHEP    O632560   6.738   7.411   7.479
    4AHEP   HO632561   6.722   7.369   7.563
    4AHEP    C732562   6.742   7.338   7.248
    4AHEP   H7132563   6.631   7.342   7.240
    4AHEP   H7232564   6.776   7.256   7.181
    4AHEP    O732565   6.800   7.461   7.204
    4AHEP   HO732566   6.872   7.469   7.266
    5AHEP    C132567   7.214   7.104   7.745
    5AHEP    H132568   7.177   7.018   7.686
    5AHEP    C532569   7.409   7.225   7.809
    5AHEP    H532570   7.366   7.317   7.763
    5AHEP    O532571   7.357   7.110   7.740
    5AHEP    C232572   7.175   7.086   7.892
    5AHEP    H232573   7.064   7.083   7.898
    5AHEP    O232574   7.225   6.964   7.947
    5AHEP   HO232575   7.209   6.891   7.887
    5AHEP    C332576   7.222   7.206   7.972
    5AHEP    H332577   7.170   7.295   7.931
    5AHEP    O332578   7.197   7.195   8.115
    5AHEP    C432579   7.372   7.219   7.957
    5AHEP    H432580   7.421   7.133   8.006
    5AHEP    O432581   7.413   7.346   8.007
    5AHEP    P432582   7.519   7.363   8.131
    5AHEP  OP4232583   7.593   7.491   8.102
    5AHEP  OP4332584   7.618   7.248   8.129
    5AHEP  OP4432585   7.438   7.375   8.259
    5AHEP    C632586   7.558   7.226   7.780
    5AHEP    H632587   7.599   7.322   7.818
    5AHEP    O632588   7.621   7.117   7.851
    5AHEP   HO632589   7.560   7.045   7.834
    5AHEP    C732590   7.584   7.219   7.629
    5AHEP   H7132591   7.660   7.296   7.605
    5AHEP   H7232592   7.494   7.247   7.570
    5AHEP    O732593   7.638   7.093   7.584
    6AHEP    C132594   7.541   7.008   7.525
    6AHEP    H132595   7.438   7.044   7.542
    6AHEP    C532596   7.676   6.944   7.337
    6AHEP    H532597   7.761   7.001   7.379
    6AHEP    O532598   7.553   7.004   7.382
    6AHEP    C232599   7.554   6.871   7.589
    6AHEP    H232600   7.555   6.885   7.700
    6AHEP    O232601   7.444   6.784   7.561
    6AHEP   HO232602   7.464   6.693   7.585
    6AHEP    C332603   7.686   6.814   7.545
    6AHEP    H332604   7.765   6.888   7.569
    6AHEP    O332605   7.723   6.701   7.623
    6AHEP   HO332606   7.653   6.636   7.622
    6AHEP    C432607   7.687   6.801   7.392
    6AHEP    H432608   7.598   6.744   7.358
    6AHEP    O432609   7.802   6.731   7.346
    6AHEP   HO432610   7.785   6.639   7.368
    6AHEP    C632611   7.689   6.962   7.184
    6AHEP    H632612   7.771   6.897   7.146
    6AHEP    O632613   7.569   6.927   7.115
    6AHEP   HO632614   7.564   6.978   7.033
    6AHEP    C732615   7.724   7.107   7.153
    6AHEP   H7132616   7.735   7.121   7.043
    6AHEP   H7232617   7.822   7.133   7.198
    6AHEP    O732618   7.623   7.195   7.202
    6AHEP   HO732619   7.555   7.131   7.226
    7AGLC    C132620   7.079   7.255   8.162
    7AGLC    H132621   7.062   7.353   8.113
    7AGLC    C532622   6.976   7.042   8.203
    7AGLC    H532623   7.065   6.992   8.160
    7AGLC    O532624   6.963   7.172   8.144
    7AGLC    C232625   7.093   7.274   8.313
    7AGLC    H232626   6.996   7.314   8.349
    7AGLC    O232627   7.190   7.375   8.346
    7AGLC   HO232628   7.275   7.354   8.306
    7AGLC    C332629   7.116   7.141   8.384
    7AGLC    H332630   7.206   7.094   8.339
    7AGLC    O332631   7.133   7.153   8.528
    7AGLC    C432632   6.994   7.056   8.353
    7AGLC    H432633   6.905   7.110   8.393
    7AGLC    O432634   6.998   6.929   8.417
    7AGLC   HO432635   6.908   6.897   8.420
    7AGLC    C632636   6.854   6.960   8.162
    7AGLC   H6132637   6.829   6.982   8.056
    7AGLC   H6232638   6.880   6.852   8.168
    7AGLC    O632639   6.740   6.983   8.247
    7AGLC   HO632640   6.663   6.938   8.210
    8AGLC    C132641   7.245   7.083   8.577
    8AGLC    H132642   7.254   6.984   8.528
    8AGLC    C532643   7.361   7.290   8.611
    8AGLC    H532644   7.270   7.343   8.576
    8AGLC    O532645   7.365   7.158   8.552
    8AGLC    C232646   7.239   7.065   8.728
    8AGLC    H232647   7.332   7.013   8.759
    8AGLC    O232648   7.127   6.988   8.774
    8AGLC    C332649   7.230   7.198   8.799
    8AGLC    H332650   7.140   7.250   8.756
    8AGLC    O332651   7.204   7.179   8.939
    8AGLC    C432652   7.351   7.281   8.763
    8AGLC    H432653   7.445   7.234   8.801
    8AGLC    O432654   7.336   7.411   8.819
    8AGLC   HO432655   7.356   7.473   8.749
    8AGLC    C632656   7.481   7.364   8.552
    8AGLC   H6132657   7.539   7.296   8.485
    8AGLC   H6232658   7.442   7.444   8.486
    8AGLC    O632659   7.569   7.423   8.648
    8AGLC   HO632660   7.600   7.506   8.609
    9AGAL    C132661   7.115   6.854   8.734
    9AGAL    H132662   7.112   6.846   8.623
    9AGAL    C532663   7.230   6.780   8.929
    9AGAL    H532664   7.243   6.886   8.957
    9AGAL    O532665   7.222   6.774   8.785
    9AGAL    C232666   6.981   6.807   8.790
    9AGAL    H232667   6.963   6.703   8.757
    9AGAL    O232668   6.884   6.893   8.726
    9AGAL    C332669   6.987   6.811   8.943
    9AGAL    H332670   7.009   6.915   8.974
    9AGAL    O332671   6.866   6.773   9.009
    9AGAL   HO332672   6.803   6.844   8.988
    9AGAL    C432673   7.103   6.726   8.991
    9AGAL    H432674   7.111   6.736   9.101
    9AGAL    O432675   7.088   6.587   8.960
    9AGAL   HO432676   7.175   6.553   8.944
    9AGAL    C632677   7.355   6.707   8.974
    9AGAL   H6132678   7.444   6.768   8.948
    9AGAL   H6232679   7.354   6.691   9.084
    9AGAL    O632680   7.366   6.582   8.910
    9AGAL   HO632681   7.351   6.601   8.816
   10AGAL    C132682   6.759   6.924   8.782
   10AGAL    H132683   6.704   6.829   8.804
   10AGAL    C532684   6.842   7.126   8.879
   10AGAL    H532685   6.937   7.103   8.825
   10AGAL    O532686   6.773   7.001   8.903
   10AGAL    C232687   6.679   7.005   8.681
   10AGAL    H232688   6.578   7.023   8.724
   10AGAL    O232689   6.662   6.931   8.559
   10AGAL   HO232690   6.570   6.917   8.537
   10AGAL    C332691   6.747   7.139   8.655
   10AGAL    H332692   6.848   7.118   8.613
   10AGAL    O332693   6.676   7.217   8.558
   10AGAL   HO332694   6.679   7.168   8.476
   10AGAL    C432695   6.763   7.215   8.785
   10AGAL    H432696   6.823   7.306   8.764
   10AGAL    O432697   6.639   7.257   8.841
   10AGAL   HO432698   6.582   7.279   8.767
   10AGAL    C632699   6.887   7.189   9.009
   10AGAL   H6132700   6.951   7.115   9.062
   10AGAL   H6232701   6.948   7.279   8.986
   10AGAL    O632702   6.780   7.226   9.096
   10AGAL   HO632703   6.706   7.248   9.040
   11BGLC    C132704   7.312   7.161   9.030
   11BGLC    H132705   7.356   7.260   9.054
   11BGLC    C532706   7.521   7.052   9.068
   11BGLC    H532707   7.558   7.151   9.104
   11BGLC    O532708   7.413   7.075   8.976
   11BGLC    C232709   7.251   7.096   9.153
   11BGLC    H232710   7.201   7.001   9.124
   11BGLC    O232711   7.152   7.181   9.214
   11BGLC   HO232712   7.071   7.172   9.163
   11BGLC    C332713   7.358   7.064   9.254
   11BGLC    H332714   7.403   7.159   9.290
   11BGLC    O332715   7.301   6.985   9.361
   11BGLC    C432716   7.465   6.980   9.190
   11BGLC    H432717   7.419   6.884   9.158
   11BGLC    O432718   7.569   6.949   9.282
   11BGLC   HO432719   7.582   6.854   9.281
   11BGLC    C632720   7.635   6.983   8.995
   11BGLC   H6132721   7.695   6.921   9.065
   11BGLC   H6232722   7.595   6.915   8.917
   11BGLC    O632723   7.724   7.077   8.934
   11BGLC   HO632724   7.743   7.050   8.844
   12BGLCN   C132725   7.297   7.051   9.484
   12BGLCN   H132726   7.222   7.133   9.474
   12BGLCN   C532727   7.420   7.194   9.623
   12BGLCN   H532728   7.350   7.277   9.599
   12BGLCN   O532729   7.424   7.107   9.511
   12BGLCN   C232730   7.255   6.961   9.601
   12BGLCN   H232731   7.337   6.887   9.615
   12BGLCN    N32732   7.132   6.891   9.566
   12BGLCN   HN32733   7.064   6.944   9.516
   12BGLCN    C32734   7.110   6.761   9.585
   12BGLCN    O32735   7.188   6.686   9.642
   12BGLCN   CT32736   6.978   6.710   9.535
   12BGLCN  HT132737   6.944   6.624   9.596
   12BGLCN  HT232738   6.990   6.676   9.429
   12BGLCN  HT332739   6.900   6.790   9.538
   12BGLCN   C332740   7.243   7.047   9.726
   12BGLCN   H332741   7.159   7.119   9.714
   12BGLCN   O332742   7.217   6.960   9.841
   12BGLCN   C432743   7.375   7.117   9.747
   12BGLCN   H432744   7.454   7.044   9.778
   12BGLCN   O432745   7.358   7.215   9.847
   12BGLCN  HO432746   7.305   7.287   9.811
   12BGLCN   C632747   7.561   7.247   9.627
   12BGLCN  H6132748   7.576   7.309   9.717
   12BGLCN  H6232749   7.634   7.163   9.631
   12BGLCN   O632750   7.592   7.329   9.513
   12BGLCN  HO632751   7.584   7.274   9.434
   13AGAL    C132752   7.145   7.012   9.952
   13AGAL    H132753   7.179   7.114   9.978
   13AGAL    C532754   6.950   6.884   9.894
   13AGAL    H532755   7.013   6.838   9.815
   13AGAL    O532756   7.003   7.015   9.921
   13AGAL    C232757   7.156   6.926  10.082
   13AGAL    H232758   7.085   6.972  10.155
   13AGAL    O232759   7.284   6.924  10.146
   13AGAL    C332760   7.107   6.785  10.056
   13AGAL    H332761   7.165   6.745   9.969
   13AGAL    O332762   7.131   6.699  10.167
   13AGAL   HO332763   7.200   6.636  10.141
   13AGAL    C432764   6.961   6.791  10.016
   13AGAL    H432765   6.929   6.689   9.985
   13AGAL    O432766   6.875   6.833  10.122
   13AGAL   HO432767   6.904   6.920  10.153
   13AGAL    C632768   6.810   6.894   9.834
   13AGAL   H6132769   6.812   6.961   9.747
   13AGAL   H6232770   6.779   6.793   9.799
   13AGAL    O632771   6.713   6.942   9.927
   13AGAL   HO632772   6.725   6.889  10.006
   14ARHM    C132773   7.305   7.002  10.263
   14ARHM    H132774   7.242   7.093  10.256
   14ARHM    C532775   7.533   6.940  10.280
   14ARHM    H532776   7.523   6.871  10.193
   14ARHM    O532777   7.439   7.047  10.266
   14ARHM    C232778   7.273   6.931  10.396
   14ARHM    H232779   7.169   6.893  10.392
   14ARHM    O232780   7.292   7.010  10.517
   14ARHM    C332781   7.367   6.813  10.410
   14ARHM    H332782   7.354   6.746  10.322
   14ARHM    O332783   7.337   6.736  10.526
   14ARHM   HO332784   7.360   6.785  10.606
   14ARHM    C432785   7.510   6.864  10.410
   14ARHM    H432786   7.524   6.935  10.493
   14ARHM    O432787   7.605   6.760  10.425
   14ARHM   HO432788   7.573   6.701  10.495
   14ARHM    C632789   7.670   7.007  10.273
   14ARHM   H6132790   7.678   7.068  10.181
   14ARHM   H6232791   7.687   7.072  10.361
   14ARHM   H6332792   7.749   6.928  10.270
   15ARHM    C132793   7.193   7.102  10.557
   15ARHM    H132794   7.117   7.109  10.476
   15ARHM    C532795   7.337   7.247  10.686
   15ARHM    H532796   7.420   7.175  10.672
   15ARHM    O532797   7.245   7.236  10.575
   15ARHM    C232798   7.121   7.060  10.684
   15ARHM    H232799   7.090   6.953  10.674
   15ARHM    O232800   7.002   7.140  10.693
   15ARHM    C332801   7.215   7.072  10.804
   15ARHM    H332802   7.303   7.008  10.778
   15ARHM    O332803   7.160   7.026  10.926
   15ARHM    C432804   7.263   7.215  10.814
   15ARHM    H432805   7.175   7.282  10.822
   15ARHM    O432806   7.343   7.242  10.929
   15ARHM   HO432807   7.339   7.336  10.947
   15ARHM    C632808   7.399   7.388  10.695
   15ARHM   H6132809   7.466   7.395  10.785
   15ARHM   H6232810   7.463   7.409  10.608
   15ARHM   H6332811   7.321   7.466  10.703
   16BMANN   C132812   6.932   7.144  10.814
   16BMANN   H132813   6.994   7.196  10.891
   16BMANN   C532814   6.832   7.023  10.991
   16BMANN   H532815   6.902   7.073  11.062
   16BMANN   O532816   6.895   7.015  10.863
   16BMANN   C232817   6.808   7.226  10.790
   16BMANN   H232818   6.842   7.327  10.760
   16BMANN    N32819   6.728   7.168  10.682
   16BMANN   HN32820   6.720   7.069  10.682
   16BMANN    C32821   6.680   7.238  10.578
   16BMANN    O32822   6.689   7.360  10.569
   16BMANN   CT32823   6.613   7.157  10.470
   16BMANN  HT132824   6.536   7.219  10.420
   16BMANN  HT232825   6.564   7.067  10.513
   16BMANN  HT332826   6.689   7.126  10.395
   16BMANN   C332827   6.737   7.241  10.923
   16BMANN   H332828   6.806   7.295  10.992
   16BMANN   O332829   6.621   7.322  10.909
   16BMANN  HO332830   6.566   7.310  10.988
   16BMANN   C432831   6.704   7.105  10.981
   16BMANN   H432832   6.630   7.053  10.916
   16BMANN   O432833   6.648   7.122  11.113
   16BMANN  HO432834   6.583   7.056  11.134
   16BMANN   C632835   6.810   6.881  11.038
   16BMANN  H6132836   6.760   6.880  11.137
   16BMANN  H6232837   6.743   6.828  10.967
   16BMANN   O632838   6.933   6.810  11.048
   16BMANN  HO632839   6.989   6.836  10.975
   17BGLCN   C132840   7.259   6.967  11.005
   17BGLCN   H132841   7.357   7.017  10.988
   17BGLCN   C532842   7.389   6.777  11.031
   17BGLCN   H532843   7.479   6.840  11.015
   17BGLCN   O532844   7.276   6.833  10.965
   17BGLCN   C232845   7.227   6.981  11.152
   17BGLCN   H232846   7.134   6.926  11.176
   17BGLCN    N32847   7.210   7.122  11.182
   17BGLCN   HN32848   7.279   7.180  11.138
   17BGLCN    C32849   7.113   7.184  11.248
   17BGLCN    O32850   7.011   7.130  11.291
   17BGLCN   CT32851   7.134   7.332  11.266
   17BGLCN  HT132852   7.037   7.385  11.270
   17BGLCN  HT232853   7.193   7.372  11.179
   17BGLCN  HT332854   7.191   7.349  11.359
   17BGLCN   C332855   7.344   6.918  11.228
   17BGLCN   H332856   7.435   6.973  11.194
   17BGLCN   O332857   7.328   6.939  11.370
   17BGLCN   C432858   7.363   6.774  11.182
   17BGLCN   H432859   7.269   6.718  11.203
   17BGLCN   O432860   7.471   6.708  11.248
   17BGLCN  HO432861   7.454   6.614  11.252
   17BGLCN   C632862   7.415   6.646  10.964
   17BGLCN  H6132863   7.490   6.592  11.026
   17BGLCN  H6232864   7.321   6.587  10.958
   17BGLCN   O632865   7.472   6.661  10.833
   17BGLCN  HO632866   7.547   6.602  10.827
   18AGAL    C132867   7.447   6.940  11.446
   18AGAL    H132868   7.487   6.836  11.454
   18AGAL    C532869   7.511   7.162  11.383
   18AGAL    H532870   7.417   7.171  11.325
   18AGAL    O532871   7.549   7.023  11.387
   18AGAL    C232872   7.424   6.990  11.586
   18AGAL    H232873   7.527   6.993  11.630
   18AGAL    O232874   7.348   6.900  11.669
   18AGAL    C332875   7.372   7.134  11.582
   18AGAL    H332876   7.283   7.135  11.516
   18AGAL    O332877   7.329   7.185  11.710
   18AGAL   HO332878   7.287   7.270  11.697
   18AGAL    C432879   7.481   7.220  11.520
   18AGAL    H432880   7.442   7.324  11.508
   18AGAL    O432881   7.597   7.228  11.602
   18AGAL   HO432882   7.571   7.221  11.694
   18AGAL    C632883   7.616   7.238  11.301
   18AGAL   H6132884   7.597   7.224  11.193
   18AGAL   H6232885   7.609   7.347  11.324
   18AGAL    O632886   7.750   7.193  11.328
   18AGAL   HO632887   7.758   7.103  11.297
   19ARHM    C132888   7.401   6.898  11.800
   19ARHM    H132889   7.442   6.998  11.826
   19ARHM    C532890   7.470   6.668  11.797
   19ARHM    H532891   7.430   6.655  11.694
   19ARHM    O532892   7.509   6.805  11.815
   19ARHM    C232893   7.291   6.866  11.898
   19ARHM    H232894   7.204   6.931  11.873
   19ARHM    O232895   7.329   6.889  12.034
   19ARHM    C332896   7.244   6.724  11.883
   19ARHM    H332897   7.203   6.711  11.780
   19ARHM    O332898   7.139   6.697  11.975
   19ARHM   HO332899   7.170   6.723  12.064
   19ARHM    C432900   7.363   6.632  11.899
   19ARHM    H432901   7.408   6.650  11.999
   19ARHM    O432902   7.328   6.494  11.894
   19ARHM   HO432903   7.274   6.480  11.815
   19ARHM    C632904   7.599   6.586  11.812
   19ARHM   H6132905   7.674   6.619  11.736
   19ARHM   H6232906   7.643   6.601  11.913
   19ARHM   H6332907   7.578   6.478  11.798
   20ARHM    C132908   7.344   7.026  12.064
   20ARHM    H132909   7.307   7.088  11.981
   20ARHM    C532910   7.541   6.997  12.196
   20ARHM    H532911   7.538   6.888  12.177
   20ARHM    O532912   7.480   7.065  12.085
   20ARHM    C232913   7.262   7.054  12.187
   20ARHM    H232914   7.160   7.012  12.173
   20ARHM    O232915   7.250   7.195  12.210
   20ARHM    C332916   7.321   6.985  12.307
   20ARHM    H332917   7.318   6.875  12.290
   20ARHM    O332918   7.238   7.018  12.418
   20ARHM    C432919   7.465   7.029  12.325
   20ARHM    H432920   7.467   7.139  12.340
   20ARHM    O432921   7.527   6.968  12.439
   20ARHM   HO432922   7.590   6.902  12.411
   20ARHM    C632923   7.688   7.043  12.196
   20ARHM   H6132924   7.694   7.153  12.210
   20ARHM   H6232925   7.744   6.994  12.277
   20ARHM   H6332926   7.735   7.017  12.099
   21BMANN   C132927   7.161   7.256  12.117
   21BMANN   H132928   7.126   7.182  12.043
   21BMANN   C532929   7.137   7.416  11.946
   21BMANN   H532930   7.113   7.336  11.873
   21BMANN   O532931   7.224   7.363  12.047
   21BMANN   C232932   7.041   7.307  12.193
   21BMANN   H232933   6.996   7.219  12.245
   21BMANN    N32934   7.081   7.402  12.297
   21BMANN   HN32935   7.173   7.438  12.286
   21BMANN    C32936   7.010   7.432  12.405
   21BMANN    O32937   6.895   7.393  12.422
   21BMANN   CT32938   7.078   7.517  12.509
   21BMANN  HT132939   7.059   7.625  12.489
   21BMANN  HT232940   7.187   7.498  12.505
   21BMANN  HT332941   7.041   7.490  12.610
   21BMANN   C332942   6.943   7.357  12.089
   21BMANN   H332943   6.917   7.275  12.020
   21BMANN   O332944   6.821   7.398  12.152
   21BMANN  HO332945   6.842   7.424  12.242
   21BMANN   C432946   7.008   7.467  12.009
   21BMANN   H432947   7.031   7.555  12.074
   21BMANN   O432948   6.924   7.509  11.901
   21BMANN  HO432949   6.842   7.546  11.933
   21BMANN   C632950   7.213   7.526  11.874
   21BMANN  H6132951   7.148   7.572  11.797
   21BMANN  H6232952   7.240   7.605  11.946
   21BMANN   O632953   7.332   7.478  11.811
   21BMANN  HO632954   7.385   7.431  11.875
   22BGLCN   C132955   7.232   6.922  12.519
   22BGLCN   H132956   7.317   6.851  12.515
   22BGLCN   C532957   7.095   6.755  12.620
   22BGLCN   H532958   7.180   6.684  12.616
   22BGLCN   O532959   7.107   6.851  12.513
   22BGLCN   C232960   7.235   7.001  12.648
   22BGLCN   H232961   7.145   7.067  12.648
   22BGLCN    N32962   7.353   7.087  12.651
   22BGLCN   HN32963   7.431   7.055  12.599
   22BGLCN    C32964   7.358   7.208  12.708
   22BGLCN    O32965   7.262   7.264  12.760
   22BGLCN   CT32966   7.494   7.272  12.707
   22BGLCN  HT132967   7.513   7.317  12.607
   22BGLCN  HT232968   7.573   7.196  12.727
   22BGLCN  HT332969   7.497   7.351  12.784
   22BGLCN   C332970   7.227   6.907  12.766
   22BGLCN   H332971   7.313   6.837  12.762
   22BGLCN   O332972   7.238   6.989  12.883
   22BGLCN   C432973   7.098   6.828  12.753
   22BGLCN   H432974   7.013   6.900  12.758
   22BGLCN   O432975   7.082   6.734  12.860
   22BGLCN  HO432976   6.992   6.737  12.892
   22BGLCN   C632977   6.967   6.677  12.595
   22BGLCN  H6132978   6.953   6.603  12.676
   22BGLCN  H6232979   6.879   6.745  12.595
   22BGLCN   O632980   6.971   6.605  12.472
   22BGLCN  HO632981   6.959   6.664  12.398
   23AGAL    C132982   7.273   6.929  13.005
   23AGAL    H132983   7.189   6.866  13.040
   23AGAL    C532984   7.508   6.923  12.961
   23AGAL    H532985   7.487   6.976  12.866
   23AGAL    O532986   7.390   6.847  12.996
   23AGAL    C232987   7.296   7.038  13.109
   23AGAL    H232988   7.313   6.989  13.207
   23AGAL    O232989   7.183   7.126  13.116
   23AGAL    C332990   7.418   7.121  13.076
   23AGAL    H332991   7.402   7.171  12.978
   23AGAL    O332992   7.440   7.222  13.173
   23AGAL   HO332993   7.487   7.180  13.245
   23AGAL    C432994   7.538   7.029  13.068
   23AGAL    H432995   7.626   7.087  13.034
   23AGAL    O432996   7.568   6.970  13.193
   23AGAL   HO432997   7.613   6.888  13.172
   23AGAL    C632998   7.623   6.828  12.932
   23AGAL   H6132999   7.589   6.752  12.857
   23AGAL   H6233000   7.705   6.886  12.884
   23AGAL    O633001   7.676   6.762  13.047
   23AGAL   HO633002   7.743   6.700  13.017
   24ARHM    C133003   7.085   7.090  13.210
   24ARHM    H133004   7.093   6.982  13.231
   24ARHM    C533005   6.931   7.245  13.118
   24ARHM    H533006   7.004   7.276  13.043
   24ARHM    O533007   6.954   7.108  13.155
   24ARHM    C233008   7.108   7.174  13.335
   24ARHM    H233009   7.214   7.163  13.364
   24ARHM    O233010   7.026   7.140  13.447
   24ARHM    C333011   7.084   7.319  13.301
   24ARHM    H333012   7.159   7.353  13.225
   24ARHM    O333013   7.102   7.399  13.418
   24ARHM   HO333014   7.021   7.394  13.468
   24ARHM    C433015   6.944   7.333  13.242
   24ARHM    H433016   6.870   7.295  13.315
   24ARHM    O433017   6.910   7.468  13.210
   24ARHM   HO433018   6.819   7.472  13.182
   24ARHM    C633019   6.791   7.248  13.054
   24ARHM   H6133020   6.766   7.350  13.017
   24ARHM   H6233021   6.786   7.178  12.968
   24ARHM   H6333022   6.714   7.217  13.128
   25ARHM    C133023   7.043   7.012  13.502
   25ARHM    H133024   7.103   6.948  13.433
   25ARHM    C533025   6.833   7.013  13.609
   25ARHM    H533026   6.833   7.121  13.585
   25ARHM    O533027   6.916   6.947  13.512
   25ARHM    C233028   7.118   7.016  13.634
   25ARHM    H233029   7.201   7.089  13.620
   25ARHM    O233030   7.175   6.889  13.670
   25ARHM    C333031   7.030   7.079  13.738
   25ARHM    H333032   7.007   7.183  13.707
   25ARHM    O333033   7.101   7.086  13.863
   25ARHM    C433034   6.899   7.001  13.746
   25ARHM    H433035   6.924   6.894  13.763
   25ARHM    O433036   6.811   7.040  13.852
   25ARHM   HO433037   6.740   6.976  13.856
   25ARHM    C633038   6.683   6.977  13.595
   25ARHM   H6133039   6.650   6.999  13.491
   25ARHM   H6233040   6.664   6.869  13.616
   25ARHM   H6333041   6.623   7.038  13.665
   26BMANN   C133042   7.300   6.861  13.609
   26BMANN   H133043   7.342   6.950  13.558
   26BMANN   C533044   7.415   6.726  13.449
   26BMANN   H533045   7.450   6.819  13.399
   26BMANN   O533046   7.289   6.755  13.513
   26BMANN   C233047   7.395   6.816  13.720
   26BMANN   H233048   7.406   6.901  13.790
   26BMANN    N33049   7.336   6.708  13.797
   26BMANN   HN33050   7.244   6.685  13.766
   26BMANN    C33051   7.383   6.652  13.909
   26BMANN    O33052   7.496   6.669  13.951
   26BMANN   CT33053   7.287   6.562  13.984
   26BMANN  HT133054   7.206   6.526  13.918
   26BMANN  HT233055   7.242   6.620  14.068
   26BMANN  HT333056   7.343   6.476  14.026
   26BMANN   C333057   7.531   6.791  13.655
   26BMANN   H333058   7.561   6.885  13.602
   26BMANN   O333059   7.635   6.767  13.749
   26BMANN  HO333060   7.595   6.732  13.829
   26BMANN   C433061   7.520   6.682  13.550
   26BMANN   H433062   7.487   6.588  13.599
   26BMANN   O433063   7.645   6.660  13.488
   26BMANN  HO433064   7.711   6.656  13.557
   26BMANN   C633065   7.393   6.625  13.338
   26BMANN  H6133066   7.310   6.658  13.272
   26BMANN  H6233067   7.485   6.619  13.276
   26BMANN   O633068   7.363   6.494  13.387
   26BMANN  HO633069   7.367   6.430  13.315
   27BGLCN   C133070   7.061   7.192  13.946
   27BGLCN   H133071   6.952   7.212  13.937
   27BGLCN   C533072   7.089   7.419  14.006
   27BGLCN   H533073   6.979   7.431  13.998
   27BGLCN   O533074   7.132   7.313  13.919
   27BGLCN   C233075   7.093   7.146  14.088
   27BGLCN   H233076   7.203   7.136  14.095
   27BGLCN    N33077   7.033   7.016  14.113
   27BGLCN   HN33078   6.953   6.994  14.057
   27BGLCN    C33079   7.084   6.924  14.196
   27BGLCN    O33080   7.187   6.940  14.259
   27BGLCN   CT33081   7.008   6.795  14.206
   27BGLCN  HT133082   6.936   6.784  14.120
   27BGLCN  HT233083   6.952   6.793  14.301
   27BGLCN  HT333084   7.079   6.710  14.204
   27BGLCN   C333085   7.049   7.254  14.184
   27BGLCN   H333086   6.940   7.270  14.168
   27BGLCN   O333087   7.070   7.205  14.318
   27BGLCN   C433088   7.120   7.384  14.151
   27BGLCN   H433089   7.229   7.364  14.161
   27BGLCN   O433090   7.089   7.493  14.236
   27BGLCN  HO433091   6.996   7.517  14.234
   27BGLCN   C633092   7.152   7.549  13.958
   27BGLCN  H6133093   7.123   7.633  14.026
   27BGLCN  H6233094   7.262   7.540  13.961
   27BGLCN   O633095   7.110   7.582  13.825
   27BGLCN  HO633096   7.042   7.649  13.828
   28AGAL    C133097   7.009   7.275  14.423
   28AGAL    H133098   7.065   7.369  14.443
   28AGAL    C533099   6.789   7.190  14.379
   28AGAL    H533100   6.833   7.127  14.298
   28AGAL    O533101   6.872   7.308  14.394
   28AGAL    C233102   7.013   7.194  14.551
   28AGAL    H233103   6.962   7.258  14.626
   28AGAL    O233104   7.146   7.165  14.598
   28AGAL    C333105   6.932   7.067  14.536
   28AGAL    H333106   6.973   7.009  14.450
   28AGAL    O333107   6.941   6.983  14.651
   28AGAL   HO333108   7.021   6.930  14.643
   28AGAL    C433109   6.788   7.104  14.505
   28AGAL    H433110   6.731   7.011  14.483
   28AGAL    O433111   6.725   7.168  14.615
   28AGAL   HO433112   6.742   7.113  14.692
   28AGAL    C633113   6.652   7.232  14.329
   28AGAL   H6133114   6.662   7.287  14.232
   28AGAL   H6233115   6.591   7.141  14.308
   28AGAL    O633116   6.582   7.314  14.422
   28AGAL   HO633117   6.617   7.294  14.508
   29ARHM    C133118   7.161   7.199  14.733
   29ARHM    H133119   7.066   7.178  14.787
   29ARHM    C533120   7.318   7.371  14.682
   29ARHM    H533121   7.309   7.350  14.573
   29ARHM    O533122   7.195   7.338  14.748
   29ARHM    C233123   7.270   7.116  14.797
   29ARHM    H233124   7.245   7.009  14.783
   29ARHM    O233125   7.276   7.147  14.938
   29ARHM    C333126   7.402   7.142  14.730
   29ARHM    H333127   7.394   7.115  14.622
   29ARHM    O333128   7.507   7.063  14.787
   29ARHM   HO333129   7.589   7.100  14.756
   29ARHM    C433130   7.433   7.290  14.741
   29ARHM    H433131   7.442   7.317  14.848
   29ARHM    O433132   7.556   7.323  14.676
   29ARHM   HO433133   7.553   7.293  14.585
   29ARHM    C633134   7.334   7.522  14.701
   29ARHM   H6133135   7.246   7.576  14.661
   29ARHM   H6233136   7.345   7.547  14.809
   29ARHM   H6333137   7.424   7.558  14.647
   30ARHM    C133138   7.200   7.061  15.018
   30ARHM    H133139   7.225   6.956  14.993
   30ARHM    C533140   7.013   7.209  15.043
   30ARHM    H533141   7.064   7.284  14.979
   30ARHM    O533142   7.058   7.078  15.005
   30ARHM    C233143   7.238   7.087  15.162
   30ARHM    H233144   7.349   7.080  15.167
   30ARHM    O233145   7.179   6.989  15.247
   30ARHM    C333146   7.196   7.225  15.208
   30ARHM    H333147   7.245   7.299  15.141
   30ARHM    O333148   7.248   7.248  15.342
   30ARHM    C433149   7.046   7.238  15.189
   30ARHM    H433150   6.992   7.165  15.252
   30ARHM    O433151   7.000   7.369  15.222
   30ARHM   HO433152   7.035   7.430  15.158
   30ARHM    C633153   6.863   7.213  15.011
   30ARHM   H6133154   6.821   7.314  15.032
   30ARHM   H6233155   6.846   7.190  14.903
   30ARHM   H6333156   6.808   7.139  15.072
   31BMANN   C133157   7.258   6.877  15.271
   31BMANN   H133158   7.364   6.906  15.290
   31BMANN   C533159   7.326   6.666  15.185
   31BMANN   H533160   7.432   6.694  15.202
   31BMANN   O533161   7.249   6.785  15.162
   31BMANN   C233162   7.196   6.813  15.392
   31BMANN   H233163   7.210   6.885  15.476
   31BMANN    N33164   7.053   6.794  15.375
   31BMANN   HN33165   7.020   6.798  15.281
   31BMANN    C33166   6.966   6.783  15.476
   31BMANN    O33167   7.004   6.777  15.592
   31BMANN   CT33168   6.820   6.779  15.439
   31BMANN  HT133169   6.800   6.692  15.372
   31BMANN  HT233170   6.792   6.873  15.387
   31BMANN  HT333171   6.759   6.770  15.531
   31BMANN   C333172   7.277   6.690  15.426
   31BMANN   H333173   7.383   6.721  15.440
   31BMANN   O333174   7.234   6.631  15.548
   31BMANN  HO333175   7.148   6.667  15.572
   31BMANN   C433176   7.273   6.594  15.309
   31BMANN   H433177   7.169   6.559  15.291
   31BMANN   O433178   7.356   6.482  15.336
   31BMANN  HO433179   7.347   6.464  15.429
   31BMANN   C633180   7.319   6.579  15.061
   31BMANN  H6133181   7.378   6.486  15.077
   31BMANN  H6233182   7.214   6.548  15.043
   31BMANN   O633183   7.367   6.645  14.944
   31BMANN  HO633184   7.451   6.689  14.959
   32BGLCN   C133185   7.171   7.204  15.452
   32BGLCN   H133186   7.123   7.107  15.429
   32BGLCN   C533187   6.982   7.249  15.588
   32BGLCN   H533188   6.937   7.152  15.556
   32BGLCN   O533189   7.069   7.298  15.486
   32BGLCN   C233190   7.259   7.187  15.575
   32BGLCN   H233191   7.288   7.289  15.608
   32BGLCN    N33192   7.381   7.116  15.545
   32BGLCN   HN33193   7.382   7.063  15.460
   32BGLCN    C33194   7.497   7.132  15.609
   32BGLCN    O33195   7.512   7.204  15.708
   32BGLCN   CT33196   7.613   7.051  15.556
   32BGLCN  HT133197   7.592   7.017  15.452
   32BGLCN  HT233198   7.629   6.962  15.621
   32BGLCN  HT333199   7.705   7.113  15.556
   32BGLCN   C333200   7.173   7.126  15.686
   32BGLCN   H333201   7.128   7.034  15.644
   32BGLCN   O333202   7.245   7.091  15.806
   32BGLCN   C433203   7.061   7.225  15.716
   32BGLCN   H433204   7.105   7.321  15.749
   32BGLCN   O433205   6.975   7.178  15.818
   32BGLCN  HO433206   7.017   7.193  15.904
   32BGLCN   C633207   6.870   7.349  15.599
   32BGLCN  H6133208   6.795   7.315  15.674
   32BGLCN  H6233209   6.910   7.447  15.632
   32BGLCN   O633210   6.805   7.366  15.472
   32BGLCN  HO633211   6.874   7.367  15.405
   33AGAL    C133212   7.204   6.967  15.860
   33AGAL    H133213   7.095   6.951  15.845
   33AGAL    C533214   7.416   6.858  15.825
   33AGAL    H533215   7.456   6.956  15.790
   33AGAL    O533216   7.274   6.857  15.798
   33AGAL    C233217   7.230   6.961  16.010
   33AGAL    H233218   7.194   6.861  16.043
   33AGAL    O233219   7.153   7.061  16.078
   33AGAL    C333220   7.379   6.968  16.039
   33AGAL    H333221   7.418   7.061  15.994
   33AGAL    O333222   7.410   6.973  16.178
   33AGAL   HO333223   7.398   6.885  16.214
   33AGAL    C433224   7.448   6.851  15.973
   33AGAL    H433225   7.558   6.862  15.986
   33AGAL    O433226   7.411   6.725  16.028
   33AGAL   HO433227   7.407   6.664  15.954
   33AGAL    C633228   7.483   6.749  15.743
   33AGAL   H6133229   7.475   6.773  15.635
   33AGAL   H6233230   7.592   6.746  15.768
   33AGAL    O633231   7.427   6.620  15.767
   33AGAL   HO633232   7.349   6.610  15.712
   34ARHM    C133233   7.098   7.015  16.200
   34ARHM    H133234   7.177   6.965  16.260
   34ARHM    C533235   6.881   6.974  16.106
   34ARHM    H533236   6.914   7.007  16.006
   34ARHM    O533237   6.993   6.920  16.178
   34ARHM    C233238   7.045   7.134  16.278
   34ARHM    H233239   7.127   7.209  16.285
   34ARHM    O233240   7.003   7.102  16.412
   34ARHM    C333241   6.929   7.197  16.203
   34ARHM    H333242   6.965   7.231  16.104
   34ARHM    O333243   6.877   7.311  16.271
   34ARHM   HO333244   6.792   7.329  16.230
   34ARHM    C433245   6.822   7.092  16.182
   34ARHM    H433246   6.786   7.057  16.281
   34ARHM    O433247   6.711   7.146  16.110
   34ARHM   HO433248   6.629   7.114  16.149
   34ARHM    C633249   6.782   6.858  16.088
   34ARHM   H6133250   6.749   6.819  16.186
   34ARHM   H6233251   6.693   6.891  16.030
   34ARHM   H6333252   6.830   6.774  16.032
   35ARHM    C133253   7.103   7.052  16.498
   35ARHM    H133254   7.200   7.101  16.476
   35ARHM    C533255   6.991   6.841  16.511
   35ARHM    H533256   6.915   6.875  16.437
   35ARHM    O533257   7.116   6.910  16.488
   35ARHM    C233258   7.058   7.088  16.639
   35ARHM    H233259   7.041   7.198  16.643
   35ARHM    O233260   7.151   7.053  16.743
   35ARHM    C333261   6.926   7.020  16.669
   35ARHM    H333262   6.850   7.056  16.596
   35ARHM    O333263   6.880   7.055  16.799
   35ARHM   HO333264   6.956   7.069  16.856
   35ARHM    C433265   6.942   6.871  16.652
   35ARHM    H433266   7.017   6.833  16.724
   35ARHM    O433267   6.818   6.804  16.677
   35ARHM   HO433268   6.786   6.837  16.761
   35ARHM    C633269   7.019   6.692  16.484
   35ARHM   H6133270   7.055   6.678  16.380
   35ARHM   H6233271   7.095   6.653  16.554
   35ARHM   H6333272   6.925   6.633  16.497
   36BMANN   C133273   7.276   7.117  16.735
   36BMANN   H133274   7.264   7.221  16.696
   36BMANN   C533275   7.496   7.103  16.642
   36BMANN   H533276   7.483   7.205  16.598
   36BMANN   O533277   7.366   7.042  16.653
   36BMANN   C233278   7.334   7.121  16.876
   36BMANN   H233279   7.265   7.180  16.938
   36BMANN    N33280   7.343   6.987  16.935
   36BMANN   HN33281   7.338   6.911  16.871
   36BMANN    C33282   7.362   6.961  17.064
   36BMANN    O33283   7.375   7.049  17.148
   36BMANN   CT33284   7.368   6.816  17.103
   36BMANN  HT133285   7.464   6.772  17.069
   36BMANN  HT233286   7.284   6.761  17.056
   36BMANN  HT333287   7.361   6.807  17.214
   36BMANN   C333288   7.467   7.195  16.868
   36BMANN   H333289   7.450   7.294  16.821
   36BMANN   O333290   7.521   7.221  16.998
   36BMANN  HO333291   7.477   7.163  17.061
   36BMANN   C433292   7.562   7.117  16.779
   36BMANN   H433293   7.579   7.016  16.823
   36BMANN   O433294   7.688   7.181  16.766
   36BMANN  HO433295   7.714   7.210  16.854
   36BMANN   C633296   7.576   7.019  16.544
   36BMANN  H6133297   7.519   7.011  16.449
   36BMANN  H6233298   7.672   7.069  16.521
   36BMANN   O633299   7.602   6.887  16.593
   36BMANN  HO633300   7.681   6.886  16.646
    1ECLIP HB6S33301   6.083   8.099   6.603
    1ECLIP  OB633302   6.204   8.016   6.748
    1ECLIP  CB633303   6.180   8.121   6.653
    1ECLIP HB6R33304   6.165   8.219   6.701
    1ECLIP  CB533305   6.284   8.129   6.542
    1ECLIP  OB533306   6.260   8.006   6.478
    1ECLIP  HB533307   6.389   8.128   6.578
    1ECLIP  CB133308   6.341   7.988   6.363
    1ECLIP  HB133309   6.448   7.993   6.393
    1ECLIP  OA633310   6.321   7.864   6.304
    1ECLIP  CA633311   6.204   7.794   6.349
    1ECLIP HA6R33312   6.117   7.862   6.363
    1ECLIP HA6S33313   6.227   7.745   6.446
    1ECLIP  CB433314   6.260   8.245   6.447
    1ECLIP  HB433315   6.152   8.251   6.422
    1ECLIP  OB433316   6.305   8.353   6.530
    1ECLIP   PB33317   6.255   8.509   6.521
    1ECLIP OPB433318   6.251   8.544   6.667
    1ECLIP OPB333319   6.121   8.515   6.455
    1ECLIP OPB233320   6.368   8.580   6.451
    1ECLIP  CB333321   6.343   8.228   6.320
    1ECLIP  OB333322   6.295   8.324   6.226
    1ECLIP  HB333323   6.452   8.235   6.339
    1ECLIP  C7133324   6.362   8.428   6.189
    1ECLIP  O7133325   6.475   8.460   6.229
    1ECLIP  C7233326   6.303   8.487   6.061
    1ECLIP H72R33327   6.328   8.420   5.976
    1ECLIP H72S33328   6.351   8.586   6.044
    1ECLIP  CB233329   6.312   8.091   6.259
    1ECLIP  HB233330   6.203   8.086   6.236
    1ECLIP  NB233331   6.384   8.055   6.136
    1ECLIP HNB233332   6.446   7.977   6.144
    1ECLIP  CA433333   6.288   7.645   6.164
    1ECLIP  HA433334   6.330   7.736   6.116
    1ECLIP  OA433335   6.387   7.588   6.250
    1ECLIP HOA433336   6.361   7.499   6.273
    1ECLIP  CA533337   6.169   7.692   6.245
    1ECLIP  HA533338   6.119   7.606   6.294
    1ECLIP  OA533339   6.079   7.758   6.156
    1ECLIP  CA133340   6.027   7.673   6.052
    1ECLIP  HA133341   5.959   7.736   5.990
    1ECLIP  OA133342   5.954   7.561   6.098
    1ECLIP OPA233343   5.905   7.457   6.323
    1ECLIP OPA333344   5.826   7.695   6.280
    1ECLIP OPA433345   5.713   7.502   6.164
    1ECLIP   PA33346   5.844   7.555   6.222
    1ECLIP  CA333347   6.247   7.554   6.051
    1ECLIP  HA333348   6.193   7.467   6.095
    1ECLIP  OA333349   6.360   7.501   5.978
    1ECLIP  C3133350   6.454   7.588   5.938
    1ECLIP  O3133351   6.461   7.627   5.822
    1ECLIP  C3233352   6.583   7.564   6.017
    1ECLIP H32R33353   6.649   7.502   5.953
    1ECLIP H32S33354   6.562   7.502   6.106
    1ECLIP  CA233355   6.146   7.631   5.966
    1ECLIP  HA233356   6.197   7.724   5.934
    1ECLIP  NA233357   6.104   7.561   5.846
    1ECLIP HNA233358   6.091   7.462   5.856
    1ECLIP  C7333359   6.149   8.506   6.065
    1ECLIP H73R33360   6.122   8.558   6.160
    1ECLIP  O7333361   6.089   8.377   6.061
    1ECLIP  C8133362   5.960   8.369   6.091
    1ECLIP  O8133363   5.889   8.463   6.122
    1ECLIP  C8233364   5.905   8.233   6.046
    1ECLIP H82R33365   5.801   8.226   6.084
    1ECLIP H82S33366   5.966   8.153   6.094
    1ECLIP  C8333367   5.906   8.216   5.892
    1ECLIP H83R33368   6.011   8.203   5.858
    1ECLIP H83S33369   5.866   8.308   5.844
    1ECLIP  C8433370   5.823   8.097   5.844
    1ECLIP H84R33371   5.715   8.116   5.861
    1ECLIP H84S33372   5.851   8.006   5.901
    1ECLIP  C8533373   5.846   8.069   5.694
    1ECLIP H85R33374   5.952   8.036   5.682
    1ECLIP H85S33375   5.833   8.163   5.637
    1ECLIP  C8633376   5.755   7.960   5.635
    1ECLIP H86R33377   5.652   8.000   5.625
    1ECLIP H86S33378   5.751   7.874   5.707
    1ECLIP  C8733379   5.803   7.907   5.498
    1ECLIP H87R33380   5.726   7.840   5.455
    1ECLIP H87S33381   5.895   7.846   5.516
    1ECLIP  C8833382   5.838   8.018   5.398
    1ECLIP H88R33383   5.921   8.078   5.441
    1ECLIP H88S33384   5.751   8.087   5.385
    1ECLIP  C8933385   5.885   7.968   5.261
    1ECLIP H89R33386   5.949   7.877   5.273
    1ECLIP H89S33387   5.950   8.048   5.219
    1ECLIP C81033388   5.772   7.940   5.161
    1ECLIPH810R33389   5.693   8.017   5.174
    1ECLIPH810S33390   5.725   7.842   5.188
    1ECLIP C81133391   5.817   7.937   5.014
    1ECLIPH811R33392   5.733   7.902   4.951
    1ECLIPH811S33393   5.899   7.862   5.005
    1ECLIP C81233394   5.868   8.071   4.958
    1ECLIPH812R33395   5.907   8.054   4.856
    1ECLIPH812S33396   5.953   8.108   5.020
    1ECLIP C81333397   5.761   8.181   4.953
    1ECLIPH813R33398   5.677   8.146   4.889
    1ECLIPH813S33399   5.720   8.198   5.056
    1ECLIP C81433400   5.814   8.314   4.899
    1ECLIPH814R33401   5.870   8.299   4.804
    1ECLIPH814S33402   5.882   8.361   4.973
    1ECLIPH814T33403   5.730   8.384   4.880
    1ECLIP  C7433404   6.099   8.591   5.944
    1ECLIP H74R33405   6.155   8.687   5.941
    1ECLIP H74S33406   5.993   8.617   5.966
    1ECLIP  C7533407   6.102   8.523   5.806
    1ECLIP H75R33408   6.014   8.561   5.748
    1ECLIP H75S33409   6.088   8.413   5.816
    1ECLIP  C7633410   6.227   8.550   5.721
    1ECLIP H76R33411   6.316   8.505   5.771
    1ECLIP H76S33412   6.243   8.660   5.715
    1ECLIP  C7733413   6.218   8.495   5.577
    1ECLIP H77R33414   6.124   8.531   5.530
    1ECLIP H77S33415   6.213   8.384   5.582
    1ECLIP  C7833416   6.339   8.539   5.495
    1ECLIP H78R33417   6.336   8.650   5.484
    1ECLIP H78S33418   6.429   8.512   5.554
    1ECLIP  C7933419   6.353   8.476   5.355
    1ECLIP H79R33420   6.356   8.366   5.363
    1ECLIP H79S33421   6.451   8.508   5.313
    1ECLIP C71033422   6.245   8.514   5.253
    1ECLIPH710R33423   6.149   8.466   5.285
    1ECLIPH710S33424   6.229   8.624   5.253
    1ECLIP C71133425   6.283   8.467   5.112
    1ECLIPH711R33426   6.372   8.524   5.078
    1ECLIPH711S33427   6.312   8.360   5.118
    1ECLIP C71233428   6.170   8.479   5.010
    1ECLIPH712R33429   6.146   8.586   4.993
    1ECLIPH712S33430   6.079   8.430   5.054
    1ECLIP C71333431   6.203   8.411   4.877
    1ECLIPH713R33432   6.222   8.303   4.895
    1ECLIPH713S33433   6.113   8.415   4.811
    1ECLIP C71433434   6.323   8.470   4.802
    1ECLIPH714R33435   6.313   8.580   4.792
    1ECLIPH714S33436   6.417   8.449   4.858
    1ECLIPH714T33437   6.332   8.426   4.701
    1ECLIP  C5133438   6.357   8.100   6.013
    1ECLIP  O5133439   6.274   8.186   5.991
    1ECLIP  C5233440   6.443   8.044   5.903
    1ECLIP H52R33441   6.517   8.122   5.874
    1ECLIP H52S33442   6.497   7.956   5.943
    1ECLIP  C5333443   6.369   8.000   5.773
    1ECLIP H53R33444   6.296   7.920   5.799
    1ECLIP  O5333445   6.477   7.954   5.693
    1ECLIP  C6133446   6.456   7.843   5.624
    1ECLIP  O6133447   6.347   7.799   5.592
    1ECLIP  C6233448   6.583   7.823   5.539
    1ECLIP H62R33449   6.668   7.802   5.608
    1ECLIP H62S33450   6.601   7.920   5.487
    1ECLIP  C6333451   6.567   7.710   5.436
    1ECLIP H63R33452   6.461   7.704   5.399
    1ECLIP H63S33453   6.588   7.613   5.485
    1ECLIP  C6433454   6.655   7.728   5.311
    1ECLIP H64R33455   6.657   7.631   5.257
    1ECLIP H64S33456   6.759   7.752   5.341
    1ECLIP  C6533457   6.598   7.836   5.219
    1ECLIP H65R33458   6.593   7.932   5.273
    1ECLIP H65S33459   6.494   7.807   5.193
    1ECLIP  C6633460   6.677   7.859   5.089
    1ECLIP H66R33461   6.780   7.889   5.115
    1ECLIP H66S33462   6.630   7.942   5.031
    1ECLIP  C6733463   6.683   7.735   4.998
    1ECLIP H67R33464   6.731   7.654   5.056
    1ECLIP H67S33465   6.748   7.758   4.911
    1ECLIP  C6833466   6.549   7.681   4.945
    1ECLIP H68R33467   6.496   7.759   4.886
    1ECLIP H68S33468   6.484   7.653   5.031
    1ECLIP  C6933469   6.572   7.556   4.858
    1ECLIP H69R33470   6.626   7.482   4.920
    1ECLIP H69S33471   6.639   7.586   4.775
    1ECLIP C61033472   6.447   7.487   4.804
    1ECLIPH610R33473   6.384   7.560   4.748
    1ECLIPH610S33474   6.387   7.450   4.889
    1ECLIP C61133475   6.480   7.367   4.712
    1ECLIPH611R33476   6.541   7.295   4.771
    1ECLIPH611S33477   6.385   7.315   4.686
    1ECLIP C61233478   6.555   7.400   4.582
    1ECLIPH612R33479   6.489   7.453   4.511
    1ECLIPH612S33480   6.644   7.464   4.602
    1ECLIPH612T33481   6.591   7.307   4.533
    1ECLIP  C5433482   6.295   8.116   5.701
    1ECLIP H54R33483   6.365   8.200   5.684
    1ECLIP H54S33484   6.215   8.152   5.770
    1ECLIP  C5533485   6.220   8.082   5.570
    1ECLIP H55R33486   6.139   8.157   5.557
    1ECLIP H55S33487   6.171   7.983   5.579
    1ECLIP  C5633488   6.308   8.088   5.444
    1ECLIP H56R33489   6.379   8.003   5.444
    1ECLIP H56S33490   6.369   8.181   5.446
    1ECLIP  C5733491   6.227   8.080   5.314
    1ECLIP H57R33492   6.158   8.167   5.307
    1ECLIP H57S33493   6.166   7.987   5.318
    1ECLIP  C5833494   6.319   8.076   5.193
    1ECLIP H58R33495   6.381   8.169   5.190
    1ECLIP H58S33496   6.389   7.991   5.205
    1ECLIP  C5933497   6.247   8.059   5.059
    1ECLIP H59R33498   6.172   8.140   5.047
    1ECLIP H59S33499   6.192   7.962   5.059
    1ECLIP C51033500   6.345   8.063   4.941
    1ECLIPH510R33501   6.426   7.989   4.959
    1ECLIPH510S33502   6.391   8.164   4.939
    1ECLIP C51133503   6.280   8.032   4.806
    1ECLIPH511R33504   6.272   7.922   4.794
    1ECLIPH511S33505   6.177   8.074   4.804
    1ECLIP C51233506   6.357   8.091   4.686
    1ECLIPH512R33507   6.312   8.052   4.592
    1ECLIPH512S33508   6.344   8.202   4.686
    1ECLIP C51333509   6.508   8.061   4.688
    1ECLIPH513R33510   6.523   7.952   4.693
    1ECLIPH513S33511   6.554   8.105   4.778
    1ECLIP C51433512   6.580   8.116   4.563
    1ECLIPH514R33513   6.570   8.227   4.559
    1ECLIPH514S33514   6.688   8.090   4.568
    1ECLIPH514T33515   6.536   8.074   4.471
    1ECLIP  C3333516   6.657   7.695   6.056
    1ECLIP H33R33517   6.744   7.668   6.120
    1ECLIP  O3333518   6.571   7.778   6.132
    1ECLIP HO3333519   6.519   7.728   6.195
    1ECLIP  C3433520   6.708   7.773   5.932
    1ECLIP H34R33521   6.620   7.797   5.870
    1ECLIP H34S33522   6.773   7.706   5.872
    1ECLIP  C3533523   6.784   7.905   5.958
    1ECLIP H35R33524   6.883   7.885   6.002
    1ECLIP H35S33525   6.725   7.964   6.031
    1ECLIP  C3633526   6.796   7.987   5.828
    1ECLIP H36R33527   6.697   7.984   5.780
    1ECLIP H36S33528   6.867   7.937   5.759
    1ECLIP  C3733529   6.833   8.135   5.846
    1ECLIP H37R33530   6.943   8.145   5.851
    1ECLIP H37S33531   6.791   8.170   5.943
    1ECLIP  C3833532   6.775   8.226   5.735
    1ECLIP H38R33533   6.665   8.228   5.745
    1ECLIP H38S33534   6.812   8.330   5.749
    1ECLIP  C3933535   6.807   8.179   5.592
    1ECLIP H39R33536   6.765   8.078   5.577
    1ECLIP H39S33537   6.917   8.173   5.578
    1ECLIP C31033538   6.747   8.271   5.484
    1ECLIPH310R33539   6.799   8.370   5.486
    1ECLIPH310S33540   6.640   8.289   5.509
    1ECLIP C31133541   6.756   8.210   5.344
    1ECLIPH311R33542   6.861   8.181   5.323
    1ECLIPH311S33543   6.695   8.118   5.342
    1ECLIP C31233544   6.707   8.305   5.234
    1ECLIPH312R33545   6.606   8.343   5.261
    1ECLIPH312S33546   6.775   8.392   5.227
    1ECLIP C31333547   6.697   8.236   5.097
    1ECLIPH313R33548   6.795   8.188   5.073
    1ECLIPH313S33549   6.622   8.155   5.104
    1ECLIP C31433550   6.658   8.331   4.984
    1ECLIPH314R33551   6.735   8.410   4.971
    1ECLIPH314S33552   6.647   8.276   4.888
    1ECLIPH314T33553   6.561   8.380   5.007
    1ECLIP  C1133554   6.068   7.624   5.733
    1ECLIP  O1133555   6.080   7.745   5.719
    1ECLIP  C1233556   6.001   7.540   5.628
    1ECLIP H12R33557   5.893   7.565   5.634
    1ECLIP H12S33558   6.014   7.432   5.650
    1ECLIP  C1333559   6.053   7.573   5.487
    1ECLIP H13R33560   6.047   7.683   5.470
    1ECLIP  O1333561   5.968   7.508   5.395
    1ECLIP HO1333562   5.991   7.527   5.304
    1ECLIP  C1433563   6.197   7.525   5.458
    1ECLIP H14R33564   6.207   7.421   5.497
    1ECLIP H14S33565   6.267   7.588   5.516
    1ECLIP  C1533566   6.237   7.526   5.309
    1ECLIP H15R33567   6.178   7.447   5.259
    1ECLIP H15S33568   6.343   7.497   5.300
    1ECLIP  C1633569   6.216   7.660   5.236
    1ECLIP H16R33570   6.300   7.727   5.261
    1ECLIP H16S33571   6.124   7.712   5.271
    1ECLIP  C1733572   6.205   7.643   5.084
    1ECLIP H17R33573   6.281   7.570   5.050
    1ECLIP H17S33574   6.227   7.741   5.035
    1ECLIP  C1833575   6.066   7.596   5.039
    1ECLIP H18R33576   6.040   7.504   5.095
    1ECLIP H18S33577   5.990   7.673   5.065
    1ECLIP  C1933578   6.057   7.562   4.889
    1ECLIP H19R33579   5.960   7.513   4.870
    1ECLIP H19S33580   6.137   7.489   4.866
    1ECLIP C11033581   6.071   7.683   4.796
    1ECLIPH110R33582   5.982   7.748   4.808
    1ECLIPH110S33583   6.161   7.743   4.825
    1ECLIP C11133584   6.085   7.639   4.650
    1ECLIPH111R33585   6.183   7.589   4.636
    1ECLIPH111S33586   6.007   7.562   4.630
    1ECLIP C11233587   6.070   7.752   4.547
    1ECLIPH112R33588   5.969   7.797   4.558
    1ECLIPH112S33589   6.146   7.831   4.566
    1ECLIP C11333590   6.086   7.699   4.405
    1ECLIPH113R33591   6.189   7.657   4.392
    1ECLIPH113S33592   6.016   7.614   4.391
    1ECLIP C11433593   6.056   7.799   4.293
    1ECLIPH114R33594   5.950   7.831   4.299
    1ECLIPH114S33595   6.122   7.888   4.304
    1ECLIPH114T33596   6.073   7.753   4.193
    2AKDO    C133597   6.418   8.089   6.823
    2AKDO   O1133598   6.456   8.210   6.822
    2AKDO   O1233599   6.496   7.993   6.800
    2AKDO    C233600   6.273   8.054   6.865
    2AKDO    C633601   6.075   8.132   6.971
    2AKDO    H633602   6.021   8.090   6.884
    2AKDO    O633603   6.210   8.168   6.929
    2AKDO    C333604   6.274   7.934   6.962
    2AKDO   H3133605   6.346   7.947   7.044
    2AKDO   H3233606   6.309   7.846   6.903
    2AKDO    C433607   6.139   7.896   7.016
    2AKDO    H433608   6.073   7.859   6.934
    2AKDO    O433609   6.155   7.797   7.118
    2AKDO    C533610   6.076   8.019   7.082
    2AKDO    H533611   5.970   7.991   7.099
    2AKDO    O533612   6.136   8.056   7.209
    2AKDO    C733613   6.001   8.257   7.013
    2AKDO    H733614   6.051   8.299   7.102
    2AKDO    O733615   5.864   8.224   7.043
    2AKDO   HO733616   5.823   8.190   6.964
    2AKDO    C833617   6.000   8.368   6.910
    2AKDO   H8133618   6.098   8.376   6.856
    2AKDO   H8233619   5.923   8.351   6.830
    2AKDO    O833620   5.974   8.493   6.973
    2AKDO   HO833621   5.914   8.540   6.914
    3AKDO    C133622   6.117   7.598   6.969
    3AKDO   O1133623   6.185   7.579   6.865
    3AKDO   O1233624   6.012   7.535   7.003
    3AKDO    C233625   6.194   7.663   7.090
    3AKDO    C633626   6.419   7.693   7.175
    3AKDO    H633627   6.396   7.800   7.194
    3AKDO    O633628   6.336   7.647   7.068
    3AKDO    C333629   6.161   7.590   7.221
    3AKDO   H3133630   6.175   7.481   7.207
    3AKDO   H3233631   6.053   7.605   7.243
    3AKDO    C433632   6.243   7.637   7.337
    3AKDO    H433633   6.228   7.746   7.351
    3AKDO    O433634   6.203   7.572   7.457
    3AKDO   HO433635   6.126   7.616   7.492
    3AKDO    C533636   6.389   7.614   7.302
    3AKDO    H533637   6.452   7.652   7.386
    3AKDO    O533638   6.421   7.476   7.285
    3AKDO   HO533639   6.373   7.448   7.205
    3AKDO    C733640   6.563   7.684   7.127
    3AKDO    H733641   6.582   7.580   7.092
    3AKDO    O733642   6.654   7.715   7.233
    3AKDO   HO733643   6.693   7.629   7.253
    3AKDO    C833644   6.587   7.778   7.009
    3AKDO   H8133645   6.516   7.752   6.929
    3AKDO   H8233646   6.566   7.882   7.042
    3AKDO    O833647   6.721   7.772   6.955
    3AKDO   HO833648   6.738   7.678   6.946
    4AHEP    C133649   6.048   8.110   7.308
    4AHEP    H133650   6.006   8.204   7.267
    4AHEP    C533651   5.955   7.916   7.413
    4AHEP    H533652   6.035   7.859   7.360
    4AHEP    O533653   5.930   8.034   7.334
    4AHEP    C233654   6.108   8.153   7.444
    4AHEP    H233655   6.206   8.201   7.422
    4AHEP    O233656   6.029   8.254   7.509
    4AHEP   HO233657   5.937   8.227   7.500
    4AHEP    C333658   6.136   8.036   7.535
    4AHEP    H333659   6.214   7.972   7.488
    4AHEP    O333660   6.178   8.084   7.667
    4AHEP    C433661   6.007   7.959   7.550
    4AHEP    H433662   5.930   8.024   7.597
    4AHEP    O433663   6.037   7.843   7.628
    4AHEP    P433664   5.953   7.810   7.766
    4AHEP  OP4233665   6.048   7.718   7.844
    4AHEP  OP4333666   5.825   7.744   7.720
    4AHEP  OP4433667   5.929   7.943   7.835
    4AHEP    C633668   5.832   7.824   7.413
    4AHEP    H633669   5.865   7.723   7.447
    4AHEP    O633670   5.732   7.869   7.506
    4AHEP   HO633671   5.760   7.829   7.589
    4AHEP    C733672   5.770   7.808   7.274
    4AHEP   H7133673   5.696   7.725   7.276
    4AHEP   H7233674   5.849   7.779   7.202
    4AHEP    O733675   5.704   7.925   7.224
    4AHEP   HO733676   5.627   7.938   7.280
    5AHEP    C133677   6.287   8.016   7.726
    5AHEP    H133678   6.300   7.918   7.674
    5AHEP    C533679   6.409   8.216   7.785
    5AHEP    H533680   6.318   8.274   7.761
    5AHEP    O533681   6.408   8.093   7.709
    5AHEP    C233682   6.267   7.984   7.875
    5AHEP    H233683   6.166   7.940   7.886
    5AHEP    O233684   6.359   7.886   7.929
    5AHEP   HO233685   6.322   7.802   7.900
    5AHEP    C333686   6.268   8.107   7.962
    5AHEP    H333687   6.186   8.176   7.933
    5AHEP    O333688   6.255   8.063   8.101
    5AHEP    C433689   6.403   8.176   7.934
    5AHEP    H433690   6.484   8.101   7.934
    5AHEP    O433691   6.431   8.282   8.028
    5AHEP    P433692   6.579   8.293   8.101
    5AHEP  OP4233693   6.567   8.354   8.238
    5AHEP  OP4333694   6.680   8.363   8.016
    5AHEP  OP4433695   6.621   8.151   8.127
    5AHEP    C633696   6.530   8.304   7.748
    5AHEP    H633697   6.519   8.400   7.802
    5AHEP    O633698   6.652   8.240   7.789
    5AHEP   HO633699   6.671   8.288   7.870
    5AHEP    C733700   6.535   8.334   7.599
    5AHEP   H7133701   6.580   8.435   7.589
    5AHEP   H7233702   6.434   8.342   7.556
    5AHEP    O733703   6.622   8.242   7.530
    6AHEP    C133704   6.550   8.159   7.443
    6AHEP    H133705   6.442   8.159   7.466
    6AHEP    C533706   6.706   8.200   7.266
    6AHEP    H533707   6.765   8.268   7.332
    6AHEP    O533708   6.569   8.204   7.309
    6AHEP    C233709   6.600   8.017   7.458
    6AHEP    H233710   6.586   7.986   7.564
    6AHEP    O233711   6.524   7.928   7.377
    6AHEP   HO233712   6.577   7.851   7.355
    6AHEP    C333713   6.747   8.013   7.424
    6AHEP    H333714   6.799   8.087   7.490
    6AHEP    O333715   6.806   7.886   7.450
    6AHEP   HO333716   6.876   7.892   7.516
    6AHEP    C433717   6.763   8.059   7.280
    6AHEP    H433718   6.704   7.990   7.214
    6AHEP    O433719   6.898   8.055   7.234
    6AHEP   HO433720   6.915   7.964   7.209
    6AHEP    C633721   6.715   8.255   7.125
    6AHEP    H633722   6.823   8.262   7.098
    6AHEP    O633723   6.649   8.167   7.033
    6AHEP   HO633724   6.560   8.172   7.068
    6AHEP    C733725   6.656   8.394   7.112
    6AHEP   H7133726   6.695   8.446   7.021
    6AHEP   H7233727   6.686   8.453   7.201
    6AHEP    O733728   6.513   8.395   7.106
    6AHEP   HO733729   6.481   8.369   7.193
    7AGLC    C133730   6.121   8.050   8.148
    7AGLC    H133731   6.055   8.118   8.090
    7AGLC    C533732   6.118   7.815   8.214
    7AGLC    H533733   6.226   7.802   8.189
    7AGLC    O533734   6.063   7.919   8.131
    7AGLC    C233735   6.105   8.085   8.297
    7AGLC    H233736   5.996   8.088   8.319
    7AGLC    O233737   6.159   8.214   8.325
    7AGLC   HO233738   6.112   8.280   8.274
    7AGLC    C333739   6.169   7.980   8.388
    7AGLC    H333740   6.273   7.962   8.355
    7AGLC    O333741   6.169   8.015   8.530
    7AGLC    C433742   6.103   7.848   8.362
    7AGLC    H433743   5.995   7.856   8.387
    7AGLC    O433744   6.163   7.746   8.440
    7AGLC   HO433745   6.096   7.685   8.470
    7AGLC    C633746   6.047   7.685   8.181
    7AGLC   H6133747   6.059   7.663   8.071
    7AGLC   H6233748   6.092   7.600   8.235
    7AGLC    O633749   5.907   7.691   8.210
    7AGLC   HO633750   5.864   7.716   8.129
    8AGLC    C133751   6.298   8.033   8.587
    8AGLC    H133752   6.370   7.961   8.540
    8AGLC    C533753   6.264   8.269   8.625
    8AGLC    H533754   6.160   8.260   8.587
    8AGLC    O533755   6.347   8.166   8.565
    8AGLC    C233756   6.302   8.012   8.737
    8AGLC    H233757   6.407   8.028   8.768
    8AGLC    O233758   6.262   7.883   8.781
    8AGLC    C333759   6.213   8.111   8.809
    8AGLC    H333760   6.110   8.100   8.768
    8AGLC    O333761   6.206   8.076   8.950
    8AGLC    C433762   6.263   8.250   8.776
    8AGLC    H433763   6.368   8.262   8.811
    8AGLC    O433764   6.186   8.349   8.842
    8AGLC   HO433765   6.093   8.338   8.820
    8AGLC    C633766   6.319   8.403   8.582
    8AGLC   H6133767   6.320   8.406   8.470
    8AGLC   H6233768   6.251   8.485   8.615
    8AGLC    O633769   6.451   8.430   8.630
    8AGLC   HO633770   6.488   8.497   8.571
    9AGAL    C133771   6.330   7.769   8.737
    9AGAL    H133772   6.331   7.763   8.627
    9AGAL    C533773   6.472   7.767   8.929
    9AGAL    H533774   6.425   7.862   8.964
    9AGAL    O533775   6.465   7.764   8.786
    9AGAL    C233776   6.246   7.655   8.792
    9AGAL    H233777   6.286   7.558   8.757
    9AGAL    O233778   6.119   7.679   8.727
    9AGAL    C333779   6.249   7.660   8.944
    9AGAL    H333780   6.209   7.758   8.976
    9AGAL    O333781   6.167   7.562   9.006
    9AGAL   HO333782   6.077   7.581   8.979
    9AGAL    C433783   6.394   7.652   8.992
    9AGAL    H433784   6.394   7.665   9.102
    9AGAL    O433785   6.456   7.527   8.964
    9AGAL   HO433786   6.545   7.544   8.933
    9AGAL    C633787   6.618   7.774   8.972
    9AGAL   H6133788   6.664   7.867   8.932
    9AGAL   H6233789   6.624   7.777   9.083
    9AGAL    O633790   6.697   7.664   8.926
    9AGAL   HO633791   6.717   7.674   8.833
   10AGAL    C133792   6.001   7.614   8.766
   10AGAL    H133793   6.019   7.505   8.774
   10AGAL    C533794   5.929   7.809   8.886
   10AGAL    H533795   6.021   7.859   8.849
   10AGAL    O533796   5.953   7.666   8.892
   10AGAL    C233797   5.895   7.640   8.658
   10AGAL    H233798   5.803   7.585   8.688
   10AGAL    O233799   5.938   7.590   8.531
   10AGAL   HO233800   5.864   7.585   8.470
   10AGAL    C333801   5.863   7.789   8.649
   10AGAL    H333802   5.956   7.844   8.622
   10AGAL    O333803   5.763   7.817   8.551
   10AGAL   HO333804   5.801   7.822   8.464
   10AGAL    C433805   5.818   7.840   8.785
   10AGAL    H433806   5.806   7.950   8.780
   10AGAL    O433807   5.693   7.784   8.825
   10AGAL   HO433808   5.634   7.795   8.748
   10AGAL    C633809   5.906   7.866   9.025
   10AGAL   H6133810   5.995   7.847   9.089
   10AGAL   H6233811   5.892   7.976   9.018
   10AGAL    O633812   5.792   7.810   9.090
   10AGAL   HO633813   5.726   7.795   9.023
   11BGLC    C133814   6.302   8.132   9.037
   11BGLC    H133815   6.275   8.238   9.054
   11BGLC    C533816   6.532   8.184   9.066
   11BGLC    H533817   6.502   8.289   9.084
   11BGLC    O533818   6.434   8.121   8.983
   11BGLC    C233819   6.297   8.057   9.170
   11BGLC    H233820   6.321   7.950   9.151
   11BGLC    O233821   6.166   8.062   9.228
   11BGLC   HO233822   6.103   8.061   9.156
   11BGLC    C333823   6.400   8.115   9.266
   11BGLC    H333824   6.374   8.220   9.289
   11BGLC    O333825   6.411   8.036   9.386
   11BGLC    C433826   6.536   8.109   9.200
   11BGLC    H433827   6.563   8.004   9.181
   11BGLC    O433828   6.635   8.167   9.285
   11BGLC   HO433829   6.638   8.114   9.365
   11BGLC    C633830   6.663   8.185   8.988
   11BGLC   H6133831   6.748   8.202   9.057
   11BGLC   H6233832   6.680   8.086   8.940
   11BGLC    O633833   6.665   8.288   8.889
   11BGLC   HO633834   6.590   8.280   8.830
   12BGLCN   C133835   6.351   8.091   9.502
   12BGLCN   H133836   6.242   8.106   9.483
   12BGLCN   C533837   6.357   8.279   9.648
   12BGLCN   H533838   6.249   8.298   9.629
   12BGLCN   O533839   6.415   8.214   9.533
   12BGLCN   C233840   6.373   7.994   9.617
   12BGLCN   H233841   6.482   7.982   9.631
   12BGLCN    N33842   6.313   7.865   9.582
   12BGLCN   HN33843   6.216   7.866   9.561
   12BGLCN    C33844   6.379   7.749   9.570
   12BGLCN    O33845   6.497   7.733   9.598
   12BGLCN   CT33846   6.297   7.632   9.521
   12BGLCN  HT133847   6.301   7.549   9.594
   12BGLCN  HT233848   6.338   7.596   9.424
   12BGLCN  HT333849   6.191   7.662   9.506
   12BGLCN   C333850   6.314   8.053   9.745
   12BGLCN   H333851   6.203   8.057   9.738
   12BGLCN   O333852   6.357   7.970   9.856
   12BGLCN   C433853   6.375   8.190   9.768
   12BGLCN   H433854   6.483   8.178   9.788
   12BGLCN   O433855   6.311   8.253   9.879
   12BGLCN  HO433856   6.308   8.348   9.870
   12BGLCN   C633857   6.430   8.412   9.662
   12BGLCN  H6133858   6.383   8.476   9.740
   12BGLCN  H6233859   6.535   8.394   9.695
   12BGLCN   O633860   6.436   8.487   9.540
   12BGLCN  HO633861   6.355   8.473   9.491
   13AGAL    C133862   6.271   7.955   9.969
   13AGAL    H133863   6.225   8.051   9.998
   13AGAL    C533864   6.217   7.731   9.903
   13AGAL    H533865   6.285   7.744   9.815
   13AGAL    O533866   6.167   7.860   9.939
   13AGAL    C233867   6.348   7.896  10.089
   13AGAL    H233868   6.268   7.870  10.161
   13AGAL    O233869   6.437   7.988  10.156
   13AGAL    C333870   6.412   7.764  10.049
   13AGAL    H333871   6.476   7.781   9.959
   13AGAL    O333872   6.497   7.709  10.149
   13AGAL   HO333873   6.440   7.654  10.203
   13AGAL    C433874   6.301   7.667  10.012
   13AGAL    H433875   6.346   7.574   9.972
   13AGAL    O433876   6.224   7.631  10.127
   13AGAL   HO433877   6.135   7.619  10.094
   13AGAL    C633878   6.100   7.647   9.853
   13AGAL   H6133879   6.043   7.705   9.778
   13AGAL   H6233880   6.138   7.555   9.802
   13AGAL    O633881   6.012   7.607   9.958
   13AGAL   HO633882   5.922   7.600   9.925
   14ARHM    C133883   6.399   8.024  10.288
   14ARHM    H133884   6.288   8.029  10.293
   14ARHM    C533885   6.584   8.168  10.329
   14ARHM    H533886   6.631   8.140  10.233
   14ARHM    O533887   6.442   8.157  10.320
   14ARHM    C233888   6.449   7.924  10.393
   14ARHM    H233889   6.417   7.822  10.361
   14ARHM    O233890   6.402   7.943  10.528
   14ARHM    C333891   6.600   7.930  10.400
   14ARHM    H333892   6.641   7.904  10.300
   14ARHM    O333893   6.654   7.838  10.497
   14ARHM   HO333894   6.625   7.749  10.476
   14ARHM    C433895   6.640   8.073  10.433
   14ARHM    H433896   6.593   8.099  10.531
   14ARHM    O433897   6.780   8.095  10.447
   14ARHM   HO433898   6.791   8.153  10.523
   14ARHM    C633899   6.614   8.315  10.358
   14ARHM   H6133900   6.579   8.378  10.274
   14ARHM   H6233901   6.562   8.348  10.451
   14ARHM   H6333902   6.723   8.331  10.370
   15ARHM    C133903   6.265   7.961  10.554
   15ARHM    H133904   6.204   7.900  10.483
   15ARHM    C533905   6.306   8.183  10.631
   15ARHM    H533906   6.414   8.173  10.606
   15ARHM    O533907   6.228   8.100  10.543
   15ARHM    C233908   6.239   7.917  10.696
   15ARHM    H233909   6.263   7.809  10.705
   15ARHM    O233910   6.099   7.937  10.723
   15ARHM    C333911   6.326   7.996  10.792
   15ARHM    H333912   6.432   7.984  10.759
   15ARHM    O333913   6.314   7.942  10.923
   15ARHM    C433914   6.288   8.142  10.778
   15ARHM    H433915   6.181   8.154  10.806
   15ARHM    O433916   6.363   8.226  10.866
   15ARHM   HO433917   6.304   8.290  10.906
   15ARHM    C633918   6.267   8.327  10.597
   15ARHM   H6133919   6.317   8.399  10.665
   15ARHM   H6233920   6.297   8.350  10.492
   15ARHM   H6333921   6.157   8.341  10.604
   16BMANN   C133922   6.048   7.897  10.848
   16BMANN   H133923   6.077   7.972  10.926
   16BMANN   C533924   6.037   7.730  11.017
   16BMANN   H533925   6.068   7.807  11.092
   16BMANN   O533926   6.091   7.766  10.888
   16BMANN   C233927   5.898   7.899  10.832
   16BMANN   H233928   5.869   8.006  10.818
   16BMANN    N33929   5.856   7.822  10.714
   16BMANN   HN33930   5.887   7.728  10.709
   16BMANN    C33931   5.790   7.876  10.610
   16BMANN    O33932   5.749   7.991  10.611
   16BMANN   CT33933   5.769   7.787  10.490
   16BMANN  HT133934   5.661   7.767  10.477
   16BMANN  HT233935   5.824   7.691  10.503
   16BMANN  HT333936   5.807   7.839  10.400
   16BMANN   C333937   5.834   7.860  10.964
   16BMANN   H333938   5.864   7.935  11.040
   16BMANN   O333939   5.692   7.864  10.953
   16BMANN  HO333940   5.661   7.950  10.984
   16BMANN   C433941   5.885   7.725  11.009
   16BMANN   H433942   5.857   7.648  10.933
   16BMANN   O433943   5.831   7.686  11.134
   16BMANN  HO433944   5.743   7.652  11.116
   16BMANN   C633945   6.095   7.597  11.062
   16BMANN  H6133946   6.065   7.578  11.168
   16BMANN  H6233947   6.053   7.516  11.000
   16BMANN   O633948   6.238   7.594  11.055
   16BMANN  HO633949   6.262   7.617  10.965
   17BGLCN   C133950   6.432   7.944  10.999
   17BGLCN   H133951   6.487   8.038  10.981
   17BGLCN   C533952   6.637   7.836  11.054
   17BGLCN   H533953   6.692   7.930  11.030
   17BGLCN   O533954   6.517   7.831  10.974
   17BGLCN   C233955   6.386   7.938  11.144
   17BGLCN   H233956   6.344   7.837  11.161
   17BGLCN    N33957   6.278   8.033  11.168
   17BGLCN   HN33958   6.267   8.103  11.096
   17BGLCN    C33959   6.188   8.029  11.266
   17BGLCN    O33960   6.183   7.942  11.352
   17BGLCN   CT33961   6.089   8.141  11.267
   17BGLCN  HT133962   6.001   8.115  11.204
   17BGLCN  HT233963   6.136   8.235  11.229
   17BGLCN  HT333964   6.054   8.160  11.371
   17BGLCN   C333965   6.511   7.953  11.232
   17BGLCN   H333966   6.563   8.044  11.196
   17BGLCN   O333967   6.478   7.969  11.371
   17BGLCN   C433968   6.603   7.836  11.203
   17BGLCN   H433969   6.550   7.741  11.227
   17BGLCN   O433970   6.723   7.841  11.279
   17BGLCN  HO433971   6.715   7.781  11.353
   17BGLCN   C633972   6.725   7.719  11.012
   17BGLCN  H6133973   6.817   7.717  11.072
   17BGLCN  H6233974   6.671   7.623  11.029
   17BGLCN   O633975   6.763   7.728  10.874
   17BGLCN  HO633976   6.687   7.705  10.819
   18AGAL    C133977   6.564   8.051  11.449
   18AGAL    H133978   6.660   7.997  11.467
   18AGAL    C533979   6.478   8.255  11.359
   18AGAL    H533980   6.403   8.187  11.312
   18AGAL    O533981   6.596   8.175  11.383
   18AGAL    C233982   6.504   8.086  11.585
   18AGAL    H233983   6.581   8.151  11.631
   18AGAL    O233984   6.485   7.972  11.672
   18AGAL    C333985   6.378   8.169  11.565
   18AGAL    H333986   6.309   8.109  11.502
   18AGAL    O333987   6.308   8.195  11.687
   18AGAL   HO333988   6.228   8.142  11.689
   18AGAL    C433989   6.413   8.297  11.491
   18AGAL    H433990   6.318   8.351  11.467
   18AGAL    O433991   6.497   8.384  11.568
   18AGAL   HO433992   6.461   8.473  11.561
   18AGAL    C633993   6.502   8.357  11.249
   18AGAL   H6133994   6.591   8.328  11.189
   18AGAL   H6233995   6.416   8.356  11.179
   18AGAL    O633996   6.518   8.491  11.295
   18AGAL   HO633997   6.602   8.496  11.342
   19ARHM    C133998   6.523   8.002  11.805
   19ARHM    H133999   6.500   8.109  11.828
   19ARHM    C534000   6.703   7.846  11.814
   19ARHM    H534001   6.673   7.807  11.714
   19ARHM    O534002   6.664   7.984  11.825
   19ARHM    C234003   6.447   7.920  11.908
   19ARHM    H234004   6.341   7.921  11.877
   19ARHM    O234005   6.458   7.976  12.040
   19ARHM    C334006   6.485   7.775  11.904
   19ARHM    H334007   6.461   7.734  11.802
   19ARHM    O334008   6.415   7.698  12.002
   19ARHM   HO334009   6.329   7.670  11.968
   19ARHM    C434010   6.635   7.764  11.923
   19ARHM    H434011   6.661   7.808  12.023
   19ARHM    O434012   6.676   7.628  11.922
   19ARHM   HO434013   6.609   7.581  11.972
   19ARHM    C634014   6.857   7.847  11.821
   19ARHM   H6134015   6.898   7.913  11.741
   19ARHM   H6234016   6.892   7.884  11.919
   19ARHM   H6334017   6.897   7.745  11.804
   20ARHM    C134018   6.365   8.077  12.069
   20ARHM    H134019   6.286   8.082  11.991
   20ARHM    C534020   6.519   8.223  12.179
   20ARHM    H534021   6.600   8.147  12.166
   20ARHM    O534022   6.424   8.208  12.074
   20ARHM    C234023   6.298   8.047  12.201
   20ARHM    H234024   6.259   7.943  12.200
   20ARHM    O234025   6.190   8.138  12.227
   20ARHM    C334026   6.396   8.058  12.316
   20ARHM    H334027   6.477   7.984  12.300
   20ARHM    O334028   6.330   8.031  12.440
   20ARHM    C434029   6.452   8.199  12.314
   20ARHM    H434030   6.368   8.271  12.325
   20ARHM    O434031   6.545   8.223  12.419
   20ARHM   HO434032   6.603   8.294  12.391
   20ARHM    C634033   6.580   8.363  12.165
   20ARHM   H6134034   6.503   8.442  12.180
   20ARHM   H6234035   6.663   8.380  12.238
   20ARHM   H6334036   6.623   8.377  12.064
   21BMANN   C134037   6.073   8.115  12.152
   21BMANN   H134038   6.083   8.024  12.090
   21BMANN   C534039   5.923   8.209  11.991
   21BMANN   H534040   5.939   8.121  11.925
   21BMANN   O534041   6.043   8.229  12.069
   21BMANN   C234042   5.961   8.099  12.250
   21BMANN   H234043   5.985   8.013  12.316
   21BMANN    N34044   5.948   8.220  12.331
   21BMANN   HN34045   5.960   8.305  12.280
   21BMANN    C34046   5.920   8.229  12.460
   21BMANN    O34047   5.911   8.133  12.536
   21BMANN   CT34048   5.897   8.369  12.509
   21BMANN  HT134049   5.789   8.383  12.530
   21BMANN  HT234050   5.925   8.443  12.429
   21BMANN  HT334051   5.957   8.388  12.599
   21BMANN   C334052   5.835   8.067  12.173
   21BMANN   H334053   5.852   7.977  12.110
   21BMANN   O334054   5.727   8.035  12.262
   21BMANN  HO334055   5.692   8.117  12.297
   21BMANN   C434056   5.804   8.183  12.082
   21BMANN   H434057   5.782   8.275  12.141
   21BMANN   O434058   5.691   8.157  11.999
   21BMANN  HO434059   5.614   8.137  12.054
   21BMANN   C634060   5.897   8.330  11.901
   21BMANN  H6134061   5.851   8.295  11.807
   21BMANN  H6234062   5.824   8.396  11.951
   21BMANN   O634063   6.012   8.409  11.871
   21BMANN  HO634064   5.982   8.487  11.824
   22BGLCN   C134065   6.391   7.939  12.529
   22BGLCN   H134066   6.501   7.942  12.519
   22BGLCN   C534067   6.381   7.714  12.606
   22BGLCN   H534068   6.491   7.716  12.611
   22BGLCN   O534069   6.337   7.808  12.506
   22BGLCN   C234070   6.346   7.988  12.665
   22BGLCN   H234071   6.235   7.987  12.663
   22BGLCN    N34072   6.394   8.124  12.689
   22BGLCN   HN34073   6.492   8.138  12.679
   22BGLCN    C34074   6.314   8.227  12.713
   22BGLCN    O34075   6.192   8.216  12.722
   22BGLCN   CT34076   6.379   8.361  12.728
   22BGLCN  HT134077   6.315   8.438  12.679
   22BGLCN  HT234078   6.479   8.362  12.680
   22BGLCN  HT334079   6.388   8.387  12.835
   22BGLCN   C334080   6.389   7.892  12.774
   22BGLCN   H334081   6.500   7.883  12.773
   22BGLCN   O334082   6.351   7.951  12.899
   22BGLCN   C434083   6.328   7.757  12.742
   22BGLCN   H434084   6.218   7.768  12.738
   22BGLCN   O434085   6.357   7.658  12.840
   22BGLCN  HO434086   6.281   7.600  12.849
   22BGLCN   C634087   6.338   7.575  12.561
   22BGLCN  H6134088   6.343   7.503  12.647
   22BGLCN  H6234089   6.234   7.576  12.524
   22BGLCN   O634090   6.426   7.525  12.460
   22BGLCN  HO634091   6.396   7.556  12.373
   23AGAL    C134092   6.404   7.899  13.020
   23AGAL    H134093   6.370   7.795  13.037
   23AGAL    C534094   6.600   8.037  13.009
   23AGAL    H534095   6.564   8.073  12.911
   23AGAL    O534096   6.548   7.904  13.029
   23AGAL    C234097   6.348   7.986  13.130
   23AGAL    H234098   6.388   7.950  13.227
   23AGAL    O234099   6.204   7.976  13.130
   23AGAL    C334100   6.395   8.129  13.110
   23AGAL    H334101   6.363   8.167  13.010
   23AGAL    O334102   6.338   8.214  13.208
   23AGAL   HO334103   6.409   8.241  13.266
   23AGAL    C434104   6.547   8.133  13.116
   23AGAL    H434105   6.579   8.236  13.089
   23AGAL    O434106   6.597   8.106  13.245
   23AGAL   HO434107   6.690   8.089  13.234
   23AGAL    C634108   6.753   8.024  12.998
   23AGAL   H6134109   6.778   7.926  12.953
   23AGAL   H6234110   6.790   8.102  12.927
   23AGAL    O634111   6.828   8.039  13.118
   23AGAL   HO634112   6.914   8.074  13.095
   24ARHM    C134113   6.146   7.895  13.231
   24ARHM    H134114   6.211   7.807  13.245
   24ARHM    C534115   5.919   7.945  13.173
   24ARHM    H534116   5.950   8.011  13.089
   24ARHM    O534117   6.018   7.842  13.193
   24ARHM    C234118   6.136   7.975  13.357
   24ARHM    H234119   6.234   8.021  13.381
   24ARHM    O234120   6.095   7.890  13.465
   24ARHM    C334121   6.037   8.087  13.339
   24ARHM    H334122   6.072   8.152  13.255
   24ARHM    O334123   6.032   8.170  13.454
   24ARHM   HO334124   5.978   8.127  13.522
   24ARHM    C434125   5.902   8.029  13.300
   24ARHM    H434126   5.867   7.963  13.381
   24ARHM    O434127   5.804   8.132  13.280
   24ARHM   HO434128   5.717   8.093  13.280
   24ARHM    C634129   5.791   7.873  13.130
   24ARHM   H6134130   5.711   7.946  13.103
   24ARHM   H6234131   5.810   7.810  13.041
   24ARHM   H6334132   5.752   7.808  13.211
   25ARHM    C134133   6.200   7.817  13.523
   25ARHM    H134134   6.288   7.820  13.454
   25ARHM    C534135   6.067   7.656  13.635
   25ARHM    H534136   5.975   7.709  13.602
   25ARHM    O534137   6.171   7.678  13.540
   25ARHM    C234138   6.239   7.883  13.652
   25ARHM    H234139   6.246   7.993  13.637
   25ARHM    O234140   6.365   7.834  13.700
   25ARHM    C334141   6.131   7.861  13.755
   25ARHM    H334142   6.038   7.908  13.717
   25ARHM    O334143   6.171   7.926  13.874
   25ARHM    C434144   6.109   7.713  13.772
   25ARHM    H434145   6.204   7.665  13.802
   25ARHM    O434146   6.012   7.686  13.873
   25ARHM   HO434147   5.983   7.595  13.866
   25ARHM    C634148   6.037   7.505  13.637
   25ARHM   H6134149   6.006   7.474  13.534
   25ARHM   H6234150   6.127   7.448  13.665
   25ARHM   H6334151   5.954   7.481  13.707
   26BMANN   C134152   6.475   7.888  13.633
   26BMANN   H134153   6.449   7.984  13.583
   26BMANN   C534154   6.640   7.851  13.467
   26BMANN   H534155   6.605   7.947  13.422
   26BMANN   O534156   6.527   7.796  13.536
   26BMANN   C234157   6.582   7.913  13.736
   26BMANN   H234158   6.538   7.987  13.807
   26BMANN    N34159   6.614   7.792  13.811
   26BMANN   HN34160   6.614   7.707  13.759
   26BMANN    C34161   6.639   7.787  13.943
   26BMANN    O34162   6.642   7.887  14.015
   26BMANN   CT34163   6.663   7.650  13.999
   26BMANN  HT134164   6.614   7.573  13.934
   26BMANN  HT234165   6.620   7.644  14.102
   26BMANN  HT334166   6.772   7.630  14.002
   26BMANN   C334167   6.700   7.978  13.668
   26BMANN   H334168   6.666   8.071  13.616
   26BMANN   O334169   6.800   8.017  13.762
   26BMANN  HO334170   6.772   8.094  13.811
   26BMANN   C434171   6.754   7.884  13.561
   26BMANN   H434172   6.790   7.790  13.609
   26BMANN   O434173   6.863   7.942  13.491
   26BMANN  HO434174   6.926   7.974  13.555
   26BMANN   C634175   6.676   7.760  13.350
   26BMANN  H6134176   6.584   7.726  13.298
   26BMANN  H6234177   6.736   7.818  13.276
   26BMANN   O634178   6.753   7.646  13.391
   26BMANN  HO634179   6.840   7.655  13.352
   27BGLCN   C134180   6.066   7.987  13.944
   27BGLCN   H134181   5.970   7.933  13.929
   27BGLCN   C534182   5.954   8.194  13.981
   27BGLCN   H534183   5.858   8.140  13.971
   27BGLCN   O534184   6.055   8.124  13.905
   27BGLCN   C234185   6.111   7.980  14.089
   27BGLCN   H234186   6.207   8.036  14.095
   27BGLCN    N34187   6.137   7.841  14.123
   27BGLCN   HN34188   6.088   7.773  14.071
   27BGLCN    C34189   6.236   7.802  14.206
   27BGLCN    O34190   6.305   7.881  14.267
   27BGLCN   CT34191   6.260   7.654  14.217
   27BGLCN  HT134192   6.188   7.597  14.152
   27BGLCN  HT234193   6.248   7.623  14.322
   27BGLCN  HT334194   6.364   7.632  14.183
   27BGLCN   C334195   6.010   8.051  14.177
   27BGLCN   H334196   5.912   7.999  14.168
   27BGLCN   O334197   6.058   8.039  14.312
   27BGLCN   C434198   5.996   8.194  14.127
   27BGLCN   H434199   6.096   8.242  14.134
   27BGLCN   O434200   5.908   8.272  14.207
   27BGLCN  HO434201   5.817   8.250  14.186
   27BGLCN   C634202   5.936   8.331  13.920
   27BGLCN  H6134203   5.861   8.390  13.977
   27BGLCN  H6234204   6.033   8.387  13.925
   27BGLCN   O634205   5.893   8.324  13.783
   27BGLCN  HO634206   5.926   8.399  13.734
   28AGAL    C134207   5.967   8.056  14.418
   28AGAL    H134208   5.945   8.164  14.431
   28AGAL    C534209   5.855   7.844  14.394
   28AGAL    H534210   5.921   7.817  14.309
   28AGAL    O534211   5.841   7.987  14.398
   28AGAL    C234212   6.028   8.005  14.548
   28AGAL    H234213   5.946   8.021  14.622
   28AGAL    O234214   6.144   8.079  14.593
   28AGAL    C334215   6.054   7.856  14.538
   28AGAL    H334216   6.115   7.837  14.448
   28AGAL    O334217   6.128   7.805  14.649
   28AGAL   HO334218   6.108   7.712  14.662
   28AGAL    C434219   5.919   7.787  14.521
   28AGAL    H434220   5.937   7.678  14.503
   28AGAL    O434221   5.838   7.798  14.637
   28AGAL   HO434222   5.876   7.746  14.708
   28AGAL    C634223   5.718   7.785  14.361
   28AGAL   H6134224   5.691   7.812  14.256
   28AGAL   H6234225   5.721   7.674  14.367
   28AGAL    O634226   5.614   7.833  14.447
   28AGAL   HO634227   5.625   7.928  14.453
   29ARHM    C134228   6.136   8.106  14.732
   29ARHM    H134229   6.072   8.029  14.781
   29ARHM    C534230   6.160   8.342  14.701
   29ARHM    H534231   6.175   8.323  14.592
   29ARHM    O534232   6.079   8.237  14.756
   29ARHM    C234233   6.271   8.099  14.800
   29ARHM    H234234   6.316   8.001  14.775
   29ARHM    O234235   6.255   8.112  14.943
   29ARHM    C334236   6.362   8.208  14.748
   29ARHM    H334237   6.377   8.193  14.639
   29ARHM    O334238   6.491   8.202  14.810
   29ARHM   HO334239   6.543   8.271  14.771
   29ARHM    C434240   6.295   8.342  14.770
   29ARHM    H434241   6.277   8.355  14.879
   29ARHM    O434242   6.376   8.452  14.728
   29ARHM   HO434243   6.387   8.451  14.633
   29ARHM    C634244   6.083   8.475  14.712
   29ARHM   H6134245   5.985   8.466  14.659
   29ARHM   H6234246   6.064   8.501  14.818
   29ARHM   H6334247   6.140   8.557  14.665
   30ARHM    C134248   6.258   7.991  15.014
   30ARHM    H134249   6.346   7.930  14.982
   30ARHM    C534250   6.019   7.979  15.037
   30ARHM    H534251   6.006   8.072  14.979
   30ARHM    O534252   6.139   7.912  14.994
   30ARHM    C234253   6.271   8.025  15.161
   30ARHM    H234254   6.360   8.091  15.174
   30ARHM    O234255   6.287   7.905  15.237
   30ARHM    C334256   6.148   8.099  15.210
   30ARHM    H334257   6.139   8.190  15.147
   30ARHM    O334258   6.168   8.145  15.345
   30ARHM    C434259   6.026   8.014  15.185
   30ARHM    H434260   6.031   7.919  15.243
   30ARHM    O434261   5.907   8.083  15.222
   30ARHM   HO434262   5.896   8.160  15.166
   30ARHM    C634263   5.903   7.884  15.001
   30ARHM   H6134264   5.805   7.929  15.028
   30ARHM   H6234265   5.904   7.864  14.892
   30ARHM   H6334266   5.914   7.788  15.055
   31BMANN   C134267   6.418   7.867  15.268
   31BMANN   H134268   6.482   7.956  15.288
   31BMANN   C534269   6.609   7.742  15.200
   31BMANN   H534270   6.671   7.831  15.222
   31BMANN   O534271   6.476   7.786  15.165
   31BMANN   C234272   6.403   7.782  15.391
   31BMANN   H234273   6.366   7.850  15.471
   31BMANN    N34274   6.304   7.676  15.375
   31BMANN   HN34275   6.288   7.643  15.282
   31BMANN    C34276   6.231   7.626  15.475
   31BMANN    O34277   6.252   7.661  15.591
   31BMANN   CT34278   6.123   7.529  15.439
   31BMANN  HT134279   6.163   7.450  15.372
   31BMANN  HT234280   6.040   7.582  15.387
   31BMANN  HT334281   6.084   7.481  15.531
   31BMANN   C334282   6.540   7.736  15.436
   31BMANN   H334283   6.604   7.826  15.452
   31BMANN   O334284   6.532   7.669  15.562
   31BMANN  HO334285   6.439   7.650  15.577
   31BMANN   C434286   6.605   7.655  15.325
   31BMANN   H434287   6.546   7.563  15.305
   31BMANN   O434288   6.738   7.619  15.360
   31BMANN  HO434289   6.738   7.534  15.406
   31BMANN   C634290   6.669   7.674  15.078
   31BMANN  H6134291   6.766   7.629  15.104
   31BMANN  H6234292   6.601   7.593  15.044
   31BMANN   O634293   6.689   7.768  14.971
   31BMANN  HO634294   6.717   7.719  14.893
   32BGLCN   C134295   6.138   8.056  15.450
   32BGLCN   H134296   6.169   7.952  15.427
   32BGLCN   C534297   5.962   7.970  15.588
   32BGLCN   H534298   5.994   7.866  15.564
   32BGLCN   O534299   5.998   8.059  15.481
   32BGLCN   C234300   6.211   8.107  15.573
   32BGLCN   H234301   6.163   8.204  15.599
   32BGLCN    N34302   6.353   8.132  15.549
   32BGLCN   HN34303   6.404   8.060  15.502
   32BGLCN    C34304   6.414   8.245  15.583
   32BGLCN    O34305   6.357   8.338  15.638
   32BGLCN   CT34306   6.560   8.256  15.549
   32BGLCN  HT134307   6.590   8.180  15.474
   32BGLCN  HT234308   6.621   8.245  15.641
   32BGLCN  HT334309   6.578   8.357  15.507
   32BGLCN   C334310   6.184   8.011  15.688
   32BGLCN   H334311   6.209   7.910  15.650
   32BGLCN   O334312   6.263   8.036  15.807
   32BGLCN   C434313   6.035   8.017  15.713
   32BGLCN   H434314   6.006   8.122  15.732
   32BGLCN   O434315   5.995   7.942  15.827
   32BGLCN  HO434316   5.983   8.005  15.898
   32BGLCN   C634317   5.812   7.974  15.598
   32BGLCN  H6134318   5.777   7.913  15.684
   32BGLCN  H6234319   5.777   8.078  15.615
   32BGLCN   O634320   5.751   7.924  15.478
   32BGLCN  HO634321   5.788   7.970  15.403
   33AGAL    C134322   6.320   7.917  15.857
   33AGAL    H134323   6.250   7.832  15.842
   33AGAL    C534324   6.544   7.988  15.812
   33AGAL    H534325   6.502   8.088  15.789
   33AGAL    O534326   6.443   7.889  15.786
   33AGAL    C234327   6.351   7.922  16.006
   33AGAL    H234328   6.388   7.821  16.035
   33AGAL    O234329   6.230   7.949  16.078
   33AGAL    C334330   6.458   8.024  16.038
   33AGAL    H334331   6.421   8.124  16.008
   33AGAL    O334332   6.489   8.030  16.177
   33AGAL   HO334333   6.533   7.948  16.200
   33AGAL    C434334   6.583   7.991  15.959
   33AGAL    H434335   6.658   8.072  15.975
   33AGAL    O434336   6.642   7.868  15.999
   33AGAL   HO434337   6.677   7.827  15.919
   33AGAL    C634338   6.663   7.968  15.719
   33AGAL   H6134339   6.630   7.984  15.614
   33AGAL   H6234340   6.741   8.043  15.742
   33AGAL    O634341   6.721   7.837  15.728
   33AGAL   HO634342   6.663   7.775  15.684
   34ARHM    C134343   6.214   7.883  16.201
   34ARHM    H134344   6.309   7.885  16.259
   34ARHM    C534345   6.053   7.731  16.113
   34ARHM    H534346   6.065   7.772  16.010
   34ARHM    O534347   6.175   7.746  16.185
   34ARHM    C234348   6.107   7.960  16.275
   34ARHM    H234349   6.139   8.067  16.276
   34ARHM    O234350   6.083   7.920  16.411
   34ARHM    C334351   5.977   7.951  16.198
   34ARHM    H334352   5.992   7.992  16.096
   34ARHM    O334353   5.871   8.026  16.258
   34ARHM   HO334354   5.791   7.985  16.223
   34ARHM    C434355   5.940   7.805  16.183
   34ARHM    H434356   5.928   7.761  16.285
   34ARHM    O434357   5.816   7.788  16.114
   34ARHM   HO434358   5.761   7.730  16.167
   34ARHM    C634359   6.029   7.579  16.100
   34ARHM   H6134360   6.019   7.533  16.200
   34ARHM   H6234361   5.937   7.559  16.041
   34ARHM   H6334362   6.115   7.532  16.048
   35ARHM    C134363   6.192   7.934  16.498
   35ARHM    H134364   6.249   8.027  16.475
   35ARHM    C534365   6.212   7.697  16.519
   35ARHM    H534366   6.126   7.684  16.449
   35ARHM    O534367   6.280   7.821  16.491
   35ARHM    C234368   6.136   7.944  16.638
   35ARHM    H234369   6.061   8.026  16.639
   35ARHM    O234370   6.237   7.970  16.738
   35ARHM    C334371   6.064   7.817  16.676
   35ARHM    H334372   5.978   7.802  16.607
   35ARHM    O334373   6.012   7.826  16.809
   35ARHM   HO334374   6.079   7.865  16.865
   35ARHM    C434375   6.159   7.700  16.662
   35ARHM    H434376   6.246   7.716  16.729
   35ARHM    O434377   6.098   7.575  16.697
   35ARHM   HO434378   6.006   7.590  16.719
   35ARHM    C634379   6.312   7.584  16.490
   35ARHM   H6134380   6.345   7.590  16.385
   35ARHM   H6234381   6.400   7.594  16.558
   35ARHM   H6334382   6.264   7.485  16.507
   36BMANN   C134383   6.270   8.105  16.758
   36BMANN   H134384   6.186   8.173  16.731
   36BMANN   C534385   6.429   8.276  16.712
   36BMANN   H534386   6.344   8.342  16.686
   36BMANN   O534387   6.390   8.140  16.687
   36BMANN   C234388   6.297   8.115  16.908
   36BMANN   H234389   6.197   8.100  16.955
   36BMANN    N34390   6.386   8.011  16.958
   36BMANN   HN34391   6.466   7.989  16.902
   36BMANN    C34392   6.367   7.947  17.074
   36BMANN    O34393   6.273   7.973  17.148
   36BMANN   CT34394   6.466   7.841  17.113
   36BMANN  HT134395   6.556   7.844  17.047
   36BMANN  HT234396   6.417   7.742  17.106
   36BMANN  HT334397   6.498   7.857  17.218
   36BMANN   C334398   6.338   8.258  16.941
   36BMANN   H334399   6.256   8.326  16.913
   36BMANN   O334400   6.360   8.274  17.081
   36BMANN  HO334401   6.277   8.256  17.126
   36BMANN   C434402   6.460   8.296  16.859
   36BMANN   H434403   6.545   8.230  16.888
   36BMANN   O434404   6.501   8.430  16.881
   36BMANN  HO434405   6.591   8.439  16.851
   36BMANN   C634406   6.543   8.313  16.619
   36BMANN  H6134407   6.522   8.275  16.517
   36BMANN  H6234408   6.550   8.424  16.612
   36BMANN   O634409   6.670   8.265  16.664
   36BMANN  HO634410   6.663   8.176  16.697
    1ECLIP HB6S34411   0.962   6.725   6.712
    1ECLIP  OB634412   0.819   6.603   6.801
    1ECLIP  CB634413   0.928   6.619   6.709
    1ECLIP HB6R34414   1.020   6.567   6.740
    1ECLIP  CB534415   0.893   6.566   6.569
    1ECLIP  OB534416   0.758   6.521   6.540
    1ECLIP  HB534417   0.956   6.475   6.562
    1ECLIP  CB134418   0.755   6.443   6.417
    1ECLIP  HB134419   0.813   6.349   6.431
    1ECLIP  OA634420   0.622   6.410   6.384
    1ECLIP  CA634421   0.527   6.517   6.398
    1ECLIP HA6R34422   0.573   6.614   6.424
    1ECLIP HA6S34423   0.456   6.489   6.478
    1ECLIP  CB434424   0.930   6.654   6.450
    1ECLIP  HB434425   0.829   6.694   6.425
    1ECLIP  OB434426   1.015   6.766   6.478
    1ECLIP   PB34427   0.926   6.907   6.495
    1ECLIP OPB434428   1.022   7.010   6.549
    1ECLIP OPB334429   0.816   6.863   6.594
    1ECLIP OPB234430   0.863   6.925   6.354
    1ECLIP  CB334431   0.946   6.571   6.325
    1ECLIP  OB334432   0.994   6.647   6.214
    1ECLIP  HB334433   1.008   6.481   6.344
    1ECLIP  C7134434   1.130   6.654   6.212
    1ECLIP  O7134435   1.201   6.596   6.292
    1ECLIP  C7234436   1.176   6.679   6.069
    1ECLIP H72R34437   1.105   6.633   5.997
    1ECLIP H72S34438   1.276   6.631   6.058
    1ECLIP  CB234439   0.806   6.520   6.295
    1ECLIP  HB234440   0.737   6.607   6.285
    1ECLIP  NB234441   0.796   6.456   6.167
    1ECLIP HNB234442   0.801   6.357   6.163
    1ECLIP  CA434443   0.399   6.413   6.203
    1ECLIP  HA434444   0.489   6.359   6.165
    1ECLIP  OA434445   0.331   6.333   6.300
    1ECLIP HOA434446   0.276   6.270   6.252
    1ECLIP  CA534447   0.449   6.538   6.269
    1ECLIP  HA534448   0.360   6.598   6.299
    1ECLIP  OA534449   0.524   6.614   6.174
    1ECLIP  CA134450   0.440   6.661   6.065
    1ECLIP  HA134451   0.507   6.708   5.990
    1ECLIP  OA134452   0.353   6.762   6.113
    1ECLIP OPA234453   0.327   6.996   6.223
    1ECLIP OPA334454   0.513   6.839   6.302
    1ECLIP OPA434455   0.538   6.937   6.089
    1ECLIP   PA34456   0.429   6.892   6.186
    1ECLIP  CA334457   0.309   6.448   6.087
    1ECLIP  HA334458   0.220   6.502   6.125
    1ECLIP  OA334459   0.268   6.317   6.042
    1ECLIP  C3134460   0.335   6.247   5.951
    1ECLIP  O3134461   0.382   6.292   5.848
    1ECLIP  C3234462   0.350   6.101   5.992
    1ECLIP H32R34463   0.317   6.039   5.906
    1ECLIP H32S34464   0.281   6.080   6.077
    1ECLIP  CA234465   0.383   6.539   5.990
    1ECLIP  HA234466   0.471   6.486   5.948
    1ECLIP  NA234467   0.295   6.575   5.880
    1ECLIP HNA234468   0.202   6.539   5.885
    1ECLIP  C7334469   1.188   6.830   6.049
    1ECLIP H73R34470   1.245   6.873   6.134
    1ECLIP  O7334471   1.054   6.880   6.046
    1ECLIP  C8134472   1.043   7.012   6.061
    1ECLIP  O8134473   1.135   7.090   6.078
    1ECLIP  C8234474   0.902   7.052   6.018
    1ECLIP H82R34475   0.899   7.163   6.017
    1ECLIP H82S34476   0.830   7.017   6.096
    1ECLIP  C8334477   0.865   6.997   5.878
    1ECLIP H83R34478   0.865   6.886   5.878
    1ECLIP H83S34479   0.943   7.030   5.806
    1ECLIP  C8434480   0.730   7.047   5.826
    1ECLIP H84R34481   0.728   7.158   5.829
    1ECLIP H84S34482   0.648   7.011   5.892
    1ECLIP  C8534483   0.700   7.000   5.683
    1ECLIP H85R34484   0.693   6.889   5.684
    1ECLIP H85S34485   0.784   7.029   5.617
    1ECLIP  C8634486   0.568   7.055   5.627
    1ECLIP H86R34487   0.579   7.164   5.610
    1ECLIP H86S34488   0.489   7.041   5.704
    1ECLIP  C8734489   0.522   6.987   5.497
    1ECLIP H87R34490   0.434   7.041   5.457
    1ECLIP H87S34491   0.489   6.884   5.523
    1ECLIP  C8834492   0.632   6.977   5.391
    1ECLIP H88R34493   0.711   6.910   5.429
    1ECLIP H88S34494   0.678   7.077   5.373
    1ECLIP  C8934495   0.584   6.918   5.256
    1ECLIP H89R34496   0.507   6.840   5.275
    1ECLIP H89S34497   0.671   6.866   5.212
    1ECLIP C81034498   0.530   7.023   5.157
    1ECLIPH810R34499   0.571   7.122   5.183
    1ECLIPH810S34500   0.420   7.029   5.169
    1ECLIP C81134501   0.564   6.992   5.009
    1ECLIPH811R34502   0.513   7.067   4.945
    1ECLIPH811S34503   0.524   6.892   4.984
    1ECLIP C81234504   0.715   6.993   4.976
    1ECLIPH812R34505   0.729   6.959   4.870
    1ECLIPH812S34506   0.768   6.919   5.039
    1ECLIP C81334507   0.783   7.130   4.992
    1ECLIPH813R34508   0.753   7.196   4.908
    1ECLIPH813S34509   0.748   7.177   5.087
    1ECLIP C81434510   0.936   7.121   4.999
    1ECLIPH814R34511   0.977   7.072   4.908
    1ECLIPH814S34512   0.967   7.062   5.087
    1ECLIPH814T34513   0.981   7.222   5.007
    1ECLIP  C7434514   1.266   6.865   5.920
    1ECLIP H74R34515   1.368   6.822   5.926
    1ECLIP H74S34516   1.279   6.975   5.917
    1ECLIP  C7534517   1.201   6.823   5.786
    1ECLIP H75R34518   1.225   6.902   5.714
    1ECLIP H75S34519   1.090   6.818   5.795
    1ECLIP  C7634520   1.255   6.691   5.727
    1ECLIP H76R34521   1.217   6.604   5.785
    1ECLIP H76S34522   1.366   6.691   5.733
    1ECLIP  C7734523   1.215   6.678   5.580
    1ECLIP H77R34524   1.245   6.772   5.530
    1ECLIP H77S34525   1.104   6.671   5.573
    1ECLIP  C7834526   1.279   6.560   5.505
    1ECLIP H78R34527   1.389   6.575   5.506
    1ECLIP H78S34528   1.258   6.466   5.559
    1ECLIP  C7934529   1.232   6.547   5.359
    1ECLIP H79R34530   1.131   6.502   5.358
    1ECLIP H79S34531   1.300   6.477   5.306
    1ECLIP C71034532   1.226   6.681   5.285
    1ECLIPH710R34533   1.151   6.746   5.332
    1ECLIPH710S34534   1.325   6.731   5.292
    1ECLIP C71134535   1.188   6.666   5.137
    1ECLIPH711R34536   1.265   6.603   5.087
    1ECLIPH711S34537   1.090   6.613   5.129
    1ECLIP C71234538   1.177   6.803   5.068
    1ECLIPH712R34539   1.277   6.850   5.068
    1ECLIPH712S34540   1.109   6.868   5.127
    1ECLIP C71334541   1.123   6.794   4.925
    1ECLIPH713R34542   1.017   6.760   4.929
    1ECLIPH713S34543   1.125   6.895   4.880
    1ECLIP C71434544   1.203   6.698   4.837
    1ECLIPH714R34545   1.310   6.728   4.832
    1ECLIPH714S34546   1.197   6.594   4.878
    1ECLIPH714T34547   1.162   6.695   4.734
    1ECLIP  C5134548   0.785   6.526   6.052
    1ECLIP  O5134549   0.769   6.650   6.052
    1ECLIP  C5234550   0.794   6.439   5.929
    1ECLIP H52R34551   0.899   6.403   5.918
    1ECLIP H52S34552   0.731   6.350   5.950
    1ECLIP  C5334553   0.748   6.499   5.795
    1ECLIP H53R34554   0.653   6.555   5.808
    1ECLIP  O5334555   0.733   6.384   5.712
    1ECLIP  C6134556   0.622   6.374   5.641
    1ECLIP  O6134557   0.551   6.468   5.608
    1ECLIP  C6234558   0.635   6.246   5.556
    1ECLIP H62R34559   0.647   6.160   5.625
    1ECLIP H62S34560   0.729   6.256   5.497
    1ECLIP  C6334561   0.515   6.222   5.462
    1ECLIP H63R34562   0.475   6.319   5.424
    1ECLIP H63S34563   0.433   6.174   5.520
    1ECLIP  C6434564   0.548   6.136   5.339
    1ECLIP H64R34565   0.453   6.108   5.290
    1ECLIP H64S34566   0.598   6.043   5.374
    1ECLIP  C6534567   0.639   6.208   5.237
    1ECLIP H65R34568   0.737   6.228   5.285
    1ECLIP H65S34569   0.593   6.307   5.214
    1ECLIP  C6634570   0.663   6.131   5.105
    1ECLIP H66R34571   0.717   6.037   5.129
    1ECLIP H66S34572   0.730   6.192   5.042
    1ECLIP  C6734573   0.536   6.098   5.025
    1ECLIP H67R34574   0.474   6.027   5.084
    1ECLIP H67S34575   0.566   6.046   4.931
    1ECLIP  C6834576   0.450   6.220   4.990
    1ECLIP H68R34577   0.510   6.291   4.931
    1ECLIP H68S34578   0.422   6.271   5.085
    1ECLIP  C6934579   0.320   6.185   4.917
    1ECLIP H69R34580   0.261   6.112   4.976
    1ECLIP H69S34581   0.344   6.136   4.819
    1ECLIP C61034582   0.236   6.311   4.893
    1ECLIPH610R34583   0.305   6.395   4.870
    1ECLIPH610S34584   0.184   6.335   4.988
    1ECLIP C61134585   0.133   6.303   4.780
    1ECLIPH611R34586   0.080   6.205   4.783
    1ECLIPH611S34587   0.057   6.382   4.799
    1ECLIP C61234588   0.191   6.325   4.641
    1ECLIPH612R34589   0.276   6.396   4.644
    1ECLIPH612S34590   0.228   6.228   4.601
    1ECLIPH612T34591   0.114   6.365   4.572
    1ECLIP  C5434592   0.857   6.591   5.735
    1ECLIP H54R34593   0.951   6.533   5.723
    1ECLIP H54S34594   0.877   6.671   5.811
    1ECLIP  C5534595   0.820   6.657   5.602
    1ECLIP H55R34596   0.878   6.752   5.591
    1ECLIP H55S34597   0.712   6.683   5.603
    1ECLIP  C5634598   0.851   6.570   5.479
    1ECLIP H56R34599   0.797   6.473   5.486
    1ECLIP H56S34600   0.959   6.546   5.476
    1ECLIP  C5734601   0.808   6.638   5.349
    1ECLIP H57R34602   0.870   6.728   5.332
    1ECLIP H57S34603   0.702   6.670   5.359
    1ECLIP  C5834604   0.819   6.542   5.230
    1ECLIP H58R34605   0.922   6.502   5.226
    1ECLIP H58S34606   0.750   6.457   5.247
    1ECLIP  C5934607   0.784   6.612   5.099
    1ECLIP H59R34608   0.851   6.701   5.089
    1ECLIP H59S34609   0.680   6.650   5.103
    1ECLIP C51034610   0.804   6.521   4.978
    1ECLIPH510R34611   0.734   6.435   4.983
    1ECLIPH510S34612   0.907   6.481   4.983
    1ECLIP C51134613   0.786   6.599   4.848
    1ECLIPH511R34614   0.679   6.596   4.815
    1ECLIPH511S34615   0.810   6.706   4.867
    1ECLIP C51234616   0.879   6.550   4.737
    1ECLIPH512R34617   0.886   6.629   4.660
    1ECLIPH512S34618   0.982   6.536   4.778
    1ECLIP C51334619   0.832   6.422   4.670
    1ECLIPH513R34620   0.722   6.415   4.677
    1ECLIPH513S34621   0.874   6.335   4.724
    1ECLIP C51434622   0.873   6.421   4.523
    1ECLIPH514R34623   0.981   6.440   4.511
    1ECLIPH514S34624   0.849   6.323   4.476
    1ECLIPH514T34625   0.817   6.500   4.469
    1ECLIP  C3334626   0.495   6.060   6.030
    1ECLIP H33R34627   0.499   5.951   6.049
    1ECLIP  O3334628   0.532   6.126   6.149
    1ECLIP HO3334629   0.502   6.084   6.230
    1ECLIP  C3434630   0.599   6.097   5.922
    1ECLIP H34R34631   0.594   6.206   5.900
    1ECLIP H34S34632   0.571   6.044   5.828
    1ECLIP  C3534633   0.747   6.066   5.957
    1ECLIP H35R34634   0.758   5.959   5.985
    1ECLIP H35S34635   0.779   6.127   6.043
    1ECLIP  C3634636   0.838   6.096   5.837
    1ECLIP H36R34637   0.823   6.203   5.807
    1ECLIP H36S34638   0.803   6.035   5.749
    1ECLIP  C3734639   0.989   6.078   5.856
    1ECLIP H37R34640   1.013   5.970   5.865
    1ECLIP H37S34641   1.020   6.126   5.951
    1ECLIP  C3834642   1.072   6.138   5.740
    1ECLIP H38R34643   1.060   6.249   5.743
    1ECLIP H38S34644   1.179   6.115   5.757
    1ECLIP  C3934645   1.030   6.089   5.601
    1ECLIP H39R34646   0.923   6.113   5.584
    1ECLIP H39S34647   1.041   5.978   5.596
    1ECLIP C31034648   1.111   6.153   5.486
    1ECLIPH310R34649   1.216   6.115   5.490
    1ECLIPH310S34650   1.113   6.263   5.502
    1ECLIP C31134651   1.049   6.124   5.349
    1ECLIPH311R34652   1.044   6.014   5.333
    1ECLIPH311S34653   0.945   6.162   5.349
    1ECLIP C31234654   1.126   6.189   5.233
    1ECLIPH312R34655   1.147   6.295   5.259
    1ECLIPH312S34656   1.223   6.137   5.219
    1ECLIP C31334657   1.047   6.188   5.101
    1ECLIPH313R34658   1.022   6.082   5.076
    1ECLIPH313S34659   0.951   6.241   5.118
    1ECLIP C31434660   1.121   6.253   4.985
    1ECLIPH314R34661   1.215   6.197   4.964
    1ECLIPH314S34662   1.058   6.253   4.893
    1ECLIPH314T34663   1.148   6.358   5.010
    1ECLIP  C1134664   0.327   6.652   5.774
    1ECLIP  O1134665   0.440   6.697   5.756
    1ECLIP  C1234666   0.214   6.686   5.679
    1ECLIP H12R34667   0.192   6.794   5.693
    1ECLIP H12S34668   0.123   6.627   5.703
    1ECLIP  C1334669   0.254   6.661   5.531
    1ECLIP H13R34670   0.356   6.701   5.514
    1ECLIP  O1334671   0.163   6.733   5.450
    1ECLIP HO1334672   0.182   6.721   5.356
    1ECLIP  C1434673   0.248   6.513   5.487
    1ECLIP H14R34674   0.149   6.472   5.517
    1ECLIP H14S34675   0.325   6.456   5.543
    1ECLIP  C1534676   0.265   6.489   5.335
    1ECLIP H15R34677   0.176   6.530   5.283
    1ECLIP H15S34678   0.265   6.379   5.316
    1ECLIP  C1634679   0.393   6.549   5.273
    1ECLIP H16R34680   0.479   6.484   5.296
    1ECLIP H16S34681   0.416   6.649   5.314
    1ECLIP  C1734682   0.380   6.563   5.120
    1ECLIP H17R34683   0.326   6.473   5.082
    1ECLIP H17S34684   0.480   6.564   5.072
    1ECLIP  C1834685   0.303   6.690   5.079
    1ECLIP H18R34686   0.220   6.704   5.151
    1ECLIP H18S34687   0.370   6.778   5.090
    1ECLIP  C1934688   0.242   6.686   4.939
    1ECLIP H19R34689   0.179   6.777   4.926
    1ECLIP H19S34690   0.174   6.598   4.932
    1ECLIP C11034691   0.341   6.681   4.822
    1ECLIPH110R34692   0.412   6.767   4.828
    1ECLIPH110S34693   0.402   6.588   4.828
    1ECLIP C11134694   0.266   6.685   4.688
    1ECLIPH111R34695   0.196   6.599   4.686
    1ECLIPH111S34696   0.205   6.778   4.684
    1ECLIP C11234697   0.357   6.681   4.566
    1ECLIPH112R34698   0.415   6.776   4.562
    1ECLIPH112S34699   0.429   6.597   4.575
    1ECLIP C11334700   0.279   6.667   4.436
    1ECLIPH113R34701   0.227   6.568   4.434
    1ECLIPH113S34702   0.200   6.745   4.433
    1ECLIP C11434703   0.365   6.682   4.311
    1ECLIPH114R34704   0.400   6.787   4.299
    1ECLIPH114S34705   0.455   6.618   4.318
    1ECLIPH114T34706   0.307   6.654   4.219
    2AKDO    C134707   0.924   6.408   6.893
    2AKDO   O1134708   1.046   6.394   6.919
    2AKDO   O1234709   0.850   6.335   6.822
    2AKDO    C234710   0.864   6.548   6.924
    2AKDO    C634711   0.901   6.764   7.019
    2AKDO    H634712   0.855   6.806   6.927
    2AKDO    O634713   0.959   6.636   6.987
    2AKDO    C334714   0.745   6.532   7.018
    2AKDO   H3134715   0.779   6.480   7.110
    2AKDO   H3234716   0.670   6.468   6.969
    2AKDO    C434717   0.684   6.662   7.056
    2AKDO    H434718   0.654   6.718   6.964
    2AKDO    O434719   0.570   6.642   7.141
    2AKDO    C534720   0.787   6.752   7.122
    2AKDO    H534721   0.738   6.851   7.128
    2AKDO    O534722   0.822   6.705   7.254
    2AKDO    C734723   1.014   6.860   7.051
    2AKDO    H734724   1.073   6.818   7.136
    2AKDO    O734725   0.965   6.991   7.084
    2AKDO   HO734726   1.010   7.046   7.020
    2AKDO    C834727   1.105   6.873   6.931
    2AKDO   H8134728   1.143   6.773   6.900
    2AKDO   H8234729   1.049   6.914   6.844
    2AKDO    O834730   1.218   6.958   6.957
    2AKDO   HO834731   1.251   6.981   6.870
    3AKDO    C134732   0.415   6.671   6.950
    3AKDO   O1134733   0.472   6.629   6.844
    3AKDO   O1234734   0.383   6.792   6.969
    3AKDO    C234735   0.448   6.594   7.084
    3AKDO    C634736   0.483   6.371   7.174
    3AKDO    H634737   0.586   6.398   7.204
    3AKDO    O634738   0.446   6.451   7.061
    3AKDO    C334739   0.354   6.620   7.203
    3AKDO   H3134740   0.251   6.591   7.174
    3AKDO   H3234741   0.353   6.729   7.226
    3AKDO    C434742   0.394   6.543   7.327
    3AKDO    H434743   0.498   6.569   7.356
    3AKDO    O434744   0.309   6.580   7.434
    3AKDO   HO434745   0.298   6.504   7.492
    3AKDO    C534746   0.391   6.394   7.295
    3AKDO    H534747   0.435   6.340   7.381
    3AKDO    O534748   0.258   6.343   7.278
    3AKDO   HO534749   0.261   6.249   7.255
    3AKDO    C734750   0.484   6.224   7.131
    3AKDO    H734751   0.381   6.192   7.106
    3AKDO    O734752   0.537   6.141   7.235
    3AKDO   HO734753   0.581   6.076   7.181
    3AKDO    C834754   0.571   6.201   7.009
    3AKDO   H8134755   0.534   6.262   6.924
    3AKDO   H8234756   0.677   6.229   7.028
    3AKDO    O834757   0.563   6.062   6.973
    3AKDO   HO834758   0.595   6.051   6.884
    4AHEP    C134759   0.859   6.809   7.342
    4AHEP    H134760   0.954   6.851   7.306
    4AHEP    C534761   0.643   6.880   7.406
    4AHEP    H534762   0.607   6.786   7.359
    4AHEP    O534763   0.766   6.918   7.344
    4AHEP    C234764   0.888   6.765   7.485
    4AHEP    H234765   0.945   6.670   7.476
    4AHEP    O234766   0.975   6.856   7.554
    4AHEP   HO234767   1.063   6.838   7.520
    4AHEP    C334768   0.761   6.729   7.562
    4AHEP    H334769   0.713   6.639   7.518
    4AHEP    O334770   0.788   6.712   7.703
    4AHEP    C434771   0.668   6.848   7.556
    4AHEP    H434772   0.723   6.934   7.599
    4AHEP    O434773   0.547   6.818   7.627
    4AHEP    P434774   0.478   6.930   7.724
    4AHEP  OP4234775   0.406   6.871   7.844
    4AHEP  OP4334776   0.381   7.014   7.642
    4AHEP  OP4434777   0.584   7.026   7.773
    4AHEP    C634778   0.536   6.983   7.377
    4AHEP    H634779   0.439   6.936   7.406
    4AHEP    O634780   0.558   7.101   7.457
    4AHEP   HO634781   0.528   7.069   7.542
    4AHEP    C734782   0.524   7.021   7.229
    4AHEP   H7134783   0.430   7.079   7.212
    4AHEP   H7234784   0.515   6.927   7.169
    4AHEP    O734785   0.635   7.097   7.181
    4AHEP   HO734786   0.712   7.049   7.214
    5AHEP    C134787   0.772   6.583   7.759
    5AHEP    H134788   0.687   6.530   7.712
    5AHEP    C534789   1.008   6.577   7.799
    5AHEP    H534790   1.021   6.672   7.745
    5AHEP    O534791   0.893   6.507   7.745
    5AHEP    C234792   0.748   6.600   7.907
    5AHEP    H234793   0.655   6.659   7.919
    5AHEP    O234794   0.729   6.473   7.970
    5AHEP   HO234795   0.802   6.418   7.940
    5AHEP    C334796   0.862   6.678   7.972
    5AHEP    H334797   0.865   6.780   7.927
    5AHEP    O334798   0.850   6.685   8.115
    5AHEP    C434799   0.990   6.604   7.948
    5AHEP    H434800   0.995   6.511   8.009
    5AHEP    O434801   1.093   6.697   7.981
    5AHEP    P434802   1.210   6.681   8.092
    5AHEP  OP4234803   1.296   6.804   8.070
    5AHEP  OP4334804   1.292   6.560   8.054
    5AHEP  OP4434805   1.148   6.678   8.230
    5AHEP    C634806   1.127   6.486   7.768
    5AHEP    H634807   1.219   6.538   7.802
    5AHEP    O634808   1.113   6.361   7.837
    5AHEP   HO634809   1.062   6.311   7.773
    5AHEP    C734810   1.134   6.459   7.618
    5AHEP   H7134811   1.241   6.446   7.589
    5AHEP   H7234812   1.096   6.545   7.561
    5AHEP    O734813   1.067   6.336   7.587
    6AHEP    C134814   0.963   6.355   7.492
    6AHEP    H134815   0.916   6.454   7.504
    6AHEP    C534816   1.068   6.213   7.332
    6AHEP    H534817   1.156   6.199   7.399
    6AHEP    O534818   1.010   6.342   7.358
    6AHEP    C234819   0.858   6.251   7.525
    6AHEP    H234820   0.834   6.260   7.634
    6AHEP    O234821   0.736   6.275   7.455
    6AHEP   HO234822   0.677   6.200   7.467
    6AHEP    C334823   0.916   6.113   7.503
    6AHEP    H334824   1.003   6.098   7.571
    6AHEP    O334825   0.821   6.011   7.531
    6AHEP   HO334826   0.857   5.932   7.490
    6AHEP    C434827   0.966   6.103   7.361
    6AHEP    H434828   0.880   6.113   7.292
    6AHEP    O434829   1.027   5.976   7.340
    6AHEP   HO434830   0.983   5.934   7.266
    6AHEP    C634831   1.121   6.202   7.188
    6AHEP    H634832   1.170   6.103   7.176
    6AHEP    O634833   1.009   6.202   7.098
    6AHEP   HO634834   1.023   6.266   7.030
    6AHEP    C734835   1.224   6.308   7.148
    6AHEP   H7134836   1.257   6.286   7.044
    6AHEP   H7234837   1.313   6.296   7.214
    6AHEP    O734838   1.181   6.444   7.155
    6AHEP   HO734839   1.117   6.450   7.083
    7AGLC    C134840   0.793   6.801   8.169
    7AGLC    H134841   0.844   6.890   8.127
    7AGLC    C534842   0.582   6.693   8.194
    7AGLC    H534843   0.635   6.600   8.161
    7AGLC    O534844   0.652   6.807   8.141
    7AGLC    C234845   0.812   6.799   8.321
    7AGLC    H234846   0.764   6.891   8.360
    7AGLC    O234847   0.950   6.809   8.359
    7AGLC   HO234848   1.005   6.750   8.307
    7AGLC    C334849   0.740   6.681   8.387
    7AGLC    H334850   0.782   6.588   8.344
    7AGLC    O334851   0.755   6.677   8.532
    7AGLC    C434852   0.593   6.693   8.347
    7AGLC    H434853   0.554   6.791   8.384
    7AGLC    O434854   0.510   6.593   8.405
    7AGLC   HO434855   0.466   6.544   8.334
    7AGLC    C634856   0.444   6.681   8.131
    7AGLC   H6134857   0.455   6.690   8.021
    7AGLC   H6234858   0.402   6.580   8.150
    7AGLC    O634859   0.351   6.779   8.176
    7AGLC   HO634860   0.287   6.791   8.106
    8AGLC    C134861   0.805   6.554   8.582
    8AGLC    H134862   0.757   6.469   8.530
    8AGLC    C534863   1.022   6.645   8.630
    8AGLC    H534864   0.982   6.744   8.601
    8AGLC    O534865   0.947   6.544   8.562
    8AGLC    C234866   0.781   6.537   8.733
    8AGLC    H234867   0.820   6.436   8.761
    8AGLC    O234868   0.644   6.545   8.774
    8AGLC    C334869   0.857   6.641   8.814
    8AGLC    H334870   0.822   6.740   8.780
    8AGLC    O334871   0.823   6.630   8.955
    8AGLC    C434872   1.005   6.630   8.781
    8AGLC    H434873   1.042   6.529   8.809
    8AGLC    O434874   1.083   6.727   8.849
    8AGLC   HO434875   1.173   6.713   8.820
    8AGLC    C634876   1.166   6.640   8.582
    8AGLC   H6134877   1.168   6.621   8.471
    8AGLC   H6234878   1.214   6.739   8.596
    8AGLC    O634879   1.245   6.541   8.649
    8AGLC   HO634880   1.215   6.456   8.616
    9AGAL    C134881   0.551   6.457   8.714
    9AGAL    H134882   0.556   6.465   8.603
    9AGAL    C534883   0.565   6.297   8.891
    9AGAL    H534884   0.639   6.363   8.941
    9AGAL    O534885   0.574   6.320   8.750
    9AGAL    C234886   0.413   6.502   8.759
    9AGAL    H234887   0.337   6.440   8.707
    9AGAL    O234888   0.404   6.637   8.710
    9AGAL    C334889   0.399   6.479   8.910
    9AGAL    H334890   0.475   6.542   8.962
    9AGAL    O334891   0.271   6.518   8.960
    9AGAL   HO334892   0.207   6.453   8.929
    9AGAL    C434893   0.426   6.333   8.943
    9AGAL    H434894   0.427   6.323   9.054
    9AGAL    O434895   0.324   6.246   8.895
    9AGAL   HO434896   0.358   6.201   8.818
    9AGAL    C634897   0.610   6.154   8.917
    9AGAL   H6134898   0.717   6.144   8.888
    9AGAL   H6234899   0.602   6.132   9.025
    9AGAL    O634900   0.535   6.056   8.844
    9AGAL   HO634901   0.561   6.057   8.752
   10AGAL    C134902   0.318   6.733   8.766
   10AGAL    H134903   0.214   6.692   8.768
   10AGAL    C534904   0.493   6.831   8.898
   10AGAL    H534905   0.561   6.757   8.852
   10AGAL    O534906   0.359   6.777   8.898
   10AGAL    C234907   0.322   6.853   8.670
   10AGAL    H234908   0.251   6.927   8.712
   10AGAL    O234909   0.278   6.823   8.537
   10AGAL   HO234910   0.304   6.734   8.514
   10AGAL    C334911   0.461   6.915   8.669
   10AGAL    H334912   0.534   6.839   8.634
   10AGAL    O334913   0.473   7.028   8.582
   10AGAL   HO334914   0.476   6.998   8.490
   10AGAL    C434915   0.496   6.955   8.811
   10AGAL    H434916   0.600   6.996   8.811
   10AGAL    O434917   0.407   7.054   8.862
   10AGAL   HO434918   0.338   7.006   8.910
   10AGAL    C634919   0.543   6.851   9.040
   10AGAL   H6134920   0.549   6.752   9.090
   10AGAL   H6234921   0.645   6.893   9.036
   10AGAL    O634922   0.460   6.938   9.120
   10AGAL   HO634923   0.381   6.889   9.141
   11BGLC    C134924   0.904   6.554   9.042
   11BGLC    H134925   1.001   6.606   9.057
   11BGLC    C534926   1.014   6.345   9.076
   11BGLC    H534927   1.110   6.399   9.091
   11BGLC    O534928   0.927   6.422   8.991
   11BGLC    C234929   0.831   6.541   9.176
   11BGLC    H234930   0.737   6.486   9.157
   11BGLC    O234931   0.797   6.669   9.230
   11BGLC   HO234932   0.790   6.730   9.156
   11BGLC    C334933   0.915   6.462   9.273
   11BGLC    H334934   1.010   6.515   9.295
   11BGLC    O334935   0.844   6.434   9.396
   11BGLC    C434936   0.946   6.327   9.212
   11BGLC    H434937   0.850   6.272   9.195
   11BGLC    O434938   1.026   6.250   9.299
   11BGLC   HO434939   0.992   6.257   9.388
   11BGLC    C634940   1.047   6.213   9.006
   11BGLC   H6134941   1.105   6.148   9.075
   11BGLC   H6234942   0.952   6.161   8.981
   11BGLC    O634943   1.123   6.232   8.886
   11BGLC   HO634944   1.099   6.166   8.821
   12BGLCN   C134945   0.878   6.511   9.509
   12BGLCN   H134946   0.860   6.618   9.490
   12BGLCN   C534947   1.050   6.561   9.667
   12BGLCN   H534948   1.029   6.669   9.649
   12BGLCN   O534949   1.013   6.488   9.549
   12BGLCN   C234950   0.786   6.459   9.620
   12BGLCN   H234951   0.809   6.352   9.634
   12BGLCN    N34952   0.647   6.471   9.575
   12BGLCN   HN34953   0.629   6.541   9.506
   12BGLCN    C34954   0.550   6.384   9.603
   12BGLCN    O34955   0.565   6.291   9.682
   12BGLCN   CT34956   0.418   6.407   9.535
   12BGLCN  HT134957   0.336   6.366   9.597
   12BGLCN  HT234958   0.417   6.355   9.436
   12BGLCN  HT334959   0.400   6.516   9.518
   12BGLCN   C334960   0.816   6.531   9.752
   12BGLCN   H334961   0.792   6.639   9.740
   12BGLCN   O334962   0.737   6.475   9.860
   12BGLCN   C434963   0.964   6.511   9.782
   12BGLCN   H434964   0.982   6.402   9.794
   12BGLCN   O434965   1.005   6.575   9.903
   12BGLCN  HO434966   1.016   6.669   9.889
   12BGLCN   C634967   1.199   6.546   9.691
   12BGLCN  H6134968   1.228   6.600   9.783
   12BGLCN  H6234969   1.222   6.438   9.707
   12BGLCN   O634970   1.280   6.595   9.584
   12BGLCN  HO634971   1.245   6.679   9.554
   13AGAL    C134972   0.702   6.561   9.967
   13AGAL    H134973   0.786   6.629   9.993
   13AGAL    C534974   0.469   6.564   9.907
   13AGAL    H534975   0.494   6.488   9.830
   13AGAL    O534976   0.588   6.642   9.932
   13AGAL    C234977   0.663   6.485  10.095
   13AGAL    H234978   0.629   6.562  10.167
   13AGAL    O234979   0.774   6.416  10.157
   13AGAL    C334980   0.542   6.396  10.070
   13AGAL    H334981   0.566   6.329   9.984
   13AGAL    O334982   0.512   6.312  10.181
   13AGAL   HO334983   0.520   6.220  10.155
   13AGAL    C434984   0.426   6.486  10.031
   13AGAL    H434985   0.339   6.421  10.004
   13AGAL    O434986   0.383   6.574  10.135
   13AGAL   HO434987   0.452   6.639  10.153
   13AGAL    C634988   0.362   6.652   9.844
   13AGAL   H6134989   0.399   6.692   9.748
   13AGAL   H6234990   0.272   6.590   9.822
   13AGAL    O634991   0.325   6.761   9.929
   13AGAL   HO634992   0.281   6.723  10.005
   14ARHM    C134993   0.814   6.462  10.285
   14ARHM    H134994   0.796   6.572  10.292
   14ARHM    C534995   0.994   6.309  10.302
   14ARHM    H534996   0.967   6.266  10.203
   14ARHM    O534997   0.955   6.447  10.306
   14ARHM    C234998   0.737   6.392  10.396
   14ARHM    H234999   0.628   6.404  10.377
   14ARHM    O235000   0.761   6.439  10.530
   14ARHM    C335001   0.772   6.245  10.396
   14ARHM    H335002   0.743   6.199  10.299
   14ARHM    O335003   0.700   6.179  10.500
   14ARHM   HO335004   0.700   6.242  10.573
   14ARHM    C435005   0.923   6.232  10.413
   14ARHM    H435006   0.952   6.280  10.509
   14ARHM    O435007   0.966   6.096  10.421
   14ARHM   HO435008   0.942   6.048  10.341
   14ARHM    C635009   1.147   6.310  10.313
   14ARHM   H6135010   1.191   6.369  10.229
   14ARHM   H6235011   1.180   6.355  10.410
   14ARHM   H6335012   1.186   6.206  10.306
   15ARHM    C135013   0.736   6.574  10.558
   15ARHM    H135014   0.664   6.617  10.486
   15ARHM    C535015   0.956   6.599  10.651
   15ARHM    H535016   0.980   6.494  10.624
   15ARHM    O535017   0.858   6.651  10.559
   15ARHM    C235018   0.677   6.578  10.698
   15ARHM    H235019   0.583   6.519  10.698
   15ARHM    O235020   0.645   6.716  10.723
   15ARHM    C335021   0.774   6.520  10.797
   15ARHM    H335022   0.799   6.417  10.764
   15ARHM    O335023   0.713   6.512  10.926
   15ARHM    C435024   0.900   6.603  10.794
   15ARHM    H435025   0.876   6.708  10.819
   15ARHM    O435026   0.996   6.557  10.891
   15ARHM   HO435027   1.083   6.588  10.866
   15ARHM    C635028   1.084   6.682  10.632
   15ARHM   H6135029   1.167   6.642  10.694
   15ARHM   H6235030   1.116   6.678  10.526
   15ARHM   H6335031   1.067   6.789  10.660
   16BMANN   C135032   0.585   6.750  10.846
   16BMANN   H135033   0.659   6.745  10.929
   16BMANN   C535034   0.406   6.713  10.999
   16BMANN   H535035   0.480   6.707  11.082
   16BMANN   O535036   0.469   6.670  10.877
   16BMANN   C235037   0.542   6.892  10.823
   16BMANN   H235038   0.635   6.951  10.807
   16BMANN    N35039   0.459   6.903  10.704
   16BMANN   HN35040   0.393   6.829  10.690
   16BMANN    C35041   0.473   6.997  10.611
   16BMANN    O35042   0.556   7.087  10.618
   16BMANN   CT35043   0.381   6.987  10.493
   16BMANN  HT135044   0.376   7.086  10.443
   16BMANN  HT235045   0.279   6.958  10.526
   16BMANN  HT335046   0.420   6.912  10.422
   16BMANN   C335047   0.478   6.944  10.950
   16BMANN   H335048   0.552   6.936  11.031
   16BMANN   O335049   0.444   7.082  10.936
   16BMANN  HO335050   0.471   7.126  11.017
   16BMANN   C435051   0.358   6.857  10.985
   16BMANN   H435052   0.283   6.863  10.905
   16BMANN   O435053   0.296   6.900  11.106
   16BMANN  HO435054   0.314   6.993  11.120
   16BMANN   C635055   0.294   6.616  11.031
   16BMANN  H6135056   0.241   6.648  11.123
   16BMANN  H6235057   0.220   6.616  10.949
   16BMANN   O635058   0.342   6.483  11.051
   16BMANN  HO635059   0.396   6.460  10.974
   17BGLCN   C135060   0.749   6.399  11.000
   17BGLCN   H135061   0.852   6.366  10.977
   17BGLCN   C535062   0.688   6.177  11.058
   17BGLCN   H535063   0.790   6.143  11.033
   17BGLCN   O535064   0.656   6.293  10.981
   17BGLCN   C235065   0.742   6.443  11.144
   17BGLCN   H235066   0.635   6.465  11.166
   17BGLCN    N35067   0.816   6.567  11.165
   17BGLCN   HN35068   0.891   6.583  11.100
   17BGLCN    C35069   0.783   6.660  11.255
   17BGLCN    O35070   0.685   6.650  11.328
   17BGLCN   CT35071   0.871   6.782  11.262
   17BGLCN  HT135072   0.815   6.870  11.224
   17BGLCN  HT235073   0.964   6.768  11.203
   17BGLCN  HT335074   0.897   6.802  11.368
   17BGLCN   C335075   0.785   6.326  11.231
   17BGLCN   H335076   0.884   6.292  11.196
   17BGLCN   O335077   0.799   6.367  11.370
   17BGLCN   C435078   0.685   6.214  11.207
   17BGLCN   H435079   0.583   6.252  11.231
   17BGLCN   O435080   0.709   6.099  11.286
   17BGLCN  HO435081   0.640   6.092  11.354
   17BGLCN   C635082   0.593   6.065  11.022
   17BGLCN  H6135083   0.625   5.970  11.069
   17BGLCN  H6235084   0.491   6.089  11.058
   17BGLCN   O635085   0.588   6.045  10.880
   17BGLCN  HO635086   0.554   6.126  10.839
   18AGAL    C135087   0.894   6.297  11.446
   18AGAL    H135088   0.864   6.190  11.457
   18AGAL    C535089   1.080   6.433  11.378
   18AGAL    H535090   1.012   6.492  11.314
   18AGAL    O535091   1.027   6.300  11.390
   18AGAL    C235092   0.904   6.359  11.585
   18AGAL    H235093   0.987   6.303  11.633
   18AGAL    O235094   0.787   6.339  11.665
   18AGAL    C335095   0.948   6.505  11.575
   18AGAL    H335096   0.876   6.559  11.509
   18AGAL    O335097   0.947   6.568  11.703
   18AGAL   HO335098   0.932   6.663  11.696
   18AGAL    C435099   1.087   6.506  11.515
   18AGAL    H435100   1.114   6.612  11.492
   18AGAL    O435101   1.184   6.457  11.606
   18AGAL   HO435102   1.141   6.450  11.691
   18AGAL    C635103   1.213   6.424  11.304
   18AGAL   H6135104   1.193   6.397  11.199
   18AGAL   H6235105   1.262   6.524  11.304
   18AGAL    O635106   1.303   6.328  11.359
   18AGAL   HO635107   1.273   6.240  11.332
   19ARHM    C135108   0.822   6.305  11.797
   19ARHM    H135109   0.918   6.354  11.826
   19ARHM    C535110   0.718   6.091  11.786
   19ARHM    H535111   0.683   6.114  11.683
   19ARHM    O535112   0.839   6.163  11.814
   19ARHM    C235113   0.715   6.354  11.892
   19ARHM    H235114   0.693   6.459  11.863
   19ARHM    O235115   0.756   6.353  12.031
   19ARHM    C335116   0.585   6.280  11.871
   19ARHM    H335117   0.547   6.301  11.769
   19ARHM    O335118   0.489   6.325  11.967
   19ARHM   HO335119   0.534   6.326  12.051
   19ARHM    C435120   0.610   6.131  11.887
   19ARHM    H435121   0.649   6.110  11.988
   19ARHM    O435122   0.492   6.054  11.868
   19ARHM   HO435123   0.439   6.095  11.798
   19ARHM    C635124   0.753   5.941  11.791
   19ARHM   H6135125   0.825   5.917  11.710
   19ARHM   H6235126   0.798   5.915  11.888
   19ARHM   H6335127   0.662   5.879  11.776
   20ARHM    C135128   0.846   6.457  12.061
   20ARHM    H135129   0.845   6.535  11.982
   20ARHM    C535130   1.001   6.318  12.179
   20ARHM    H535131   0.937   6.229  12.161
   20ARHM    O535132   0.982   6.412  12.074
   20ARHM    C235133   0.803   6.521  12.191
   20ARHM    H235134   0.694   6.542  12.186
   20ARHM    O235135   0.873   6.644  12.215
   20ARHM    C335136   0.820   6.425  12.307
   20ARHM    H335137   0.754   6.337  12.290
   20ARHM    O335138   0.780   6.496  12.425
   20ARHM    C435139   0.964   6.381  12.314
   20ARHM    H435140   1.028   6.470  12.329
   20ARHM    O435141   0.987   6.289  12.422
   20ARHM   HO435142   1.079   6.261  12.416
   20ARHM    C635143   1.149   6.274  12.170
   20ARHM   H6135144   1.216   6.361  12.189
   20ARHM   H6235145   1.172   6.194  12.245
   20ARHM   H6335146   1.171   6.236  12.069
   21BMANN   C135147   0.820   6.752  12.141
   21BMANN   H135148   0.734   6.718  12.081
   21BMANN   C535149   0.857   6.909  11.968
   21BMANN   H535150   0.773   6.864  11.911
   21BMANN   O535151   0.917   6.808  12.052
   21BMANN   C235152   0.772   6.859  12.238
   21BMANN   H235153   0.695   6.811  12.301
   21BMANN    N35154   0.879   6.905  12.325
   21BMANN   HN35155   0.971   6.881  12.294
   21BMANN    C35156   0.863   6.969  12.441
   21BMANN    O35157   0.753   7.000  12.485
   21BMANN   CT35158   0.989   7.001  12.517
   21BMANN  HT135159   1.023   7.104  12.491
   21BMANN  HT235160   1.069   6.928  12.493
   21BMANN  HT335161   0.968   6.998  12.627
   21BMANN   C335162   0.704   6.966  12.154
   21BMANN   H335163   0.622   6.918  12.095
   21BMANN   O335164   0.642   7.062  12.238
   21BMANN  HO335165   0.698   7.075  12.315
   21BMANN   C435166   0.803   7.024  12.054
   21BMANN   H435167   0.887   7.073  12.106
   21BMANN   O435168   0.741   7.120  11.968
   21BMANN  HO435169   0.737   7.206  12.012
   21BMANN   C635170   0.962   6.950  11.866
   21BMANN  H6135171   0.919   7.023  11.793
   21BMANN  H6235172   1.047   7.000  11.918
   21BMANN   O635173   1.010   6.836  11.793
   21BMANN  HO635174   1.055   6.780  11.857
   22BGLCN   C135175   0.716   6.420  12.523
   22BGLCN   H135176   0.755   6.316  12.526
   22BGLCN   C535177   0.506   6.356  12.613
   22BGLCN   H535178   0.544   6.252  12.623
   22BGLCN   O535179   0.574   6.423  12.506
   22BGLCN   C235180   0.752   6.495  12.649
   22BGLCN   H235181   0.709   6.597  12.640
   22BGLCN    N35182   0.896   6.510  12.662
   22BGLCN   HN35183   0.951   6.445  12.611
   22BGLCN    C35184   0.958   6.612  12.724
   22BGLCN    O35185   0.898   6.704  12.780
   22BGLCN   CT35186   1.108   6.609  12.721
   22BGLCN  HT135187   1.145   6.669  12.635
   22BGLCN  HT235188   1.145   6.504  12.710
   22BGLCN  HT335189   1.148   6.651  12.815
   22BGLCN   C335190   0.685   6.427  12.767
   22BGLCN   H335191   0.719   6.321  12.769
   22BGLCN   O335192   0.731   6.491  12.888
   22BGLCN   C435193   0.535   6.430  12.743
   22BGLCN   H435194   0.503   6.535  12.731
   22BGLCN   O435195   0.461   6.375  12.852
   22BGLCN  HO435196   0.432   6.447  12.908
   22BGLCN   C635197   0.358   6.349  12.578
   22BGLCN  H6135198   0.301   6.305  12.662
   22BGLCN  H6235199   0.318   6.451  12.559
   22BGLCN   O635200   0.337   6.267  12.463
   22BGLCN  HO635201   0.360   6.318  12.384
   23AGAL    C135202   0.716   6.423  13.010
   23AGAL    H135203   0.609   6.421  13.040
   23AGAL    C535204   0.905   6.278  12.981
   23AGAL    H535205   0.926   6.330  12.884
   23AGAL    O535206   0.764   6.287  13.006
   23AGAL    C235207   0.790   6.500  13.118
   23AGAL    H235208   0.769   6.452  13.217
   23AGAL    O235209   0.746   6.638  13.120
   23AGAL    C335210   0.940   6.495  13.095
   23AGAL    H335211   0.961   6.544  12.998
   23AGAL    O335212   1.010   6.567  13.196
   23AGAL   HO335213   1.030   6.505  13.266
   23AGAL    C435214   0.986   6.350  13.089
   23AGAL    H435215   1.093   6.348  13.059
   23AGAL    O435216   0.976   6.285  13.215
   23AGAL   HO435217   0.962   6.192  13.196
   23AGAL    C635218   0.943   6.132  12.960
   23AGAL   H6135219   0.881   6.091  12.877
   23AGAL   H6235220   1.049   6.125  12.929
   23AGAL    O635221   0.922   6.050  13.075
   23AGAL   HO635222   0.888   5.964  13.050
   24ARHM    C135223   0.644   6.670  13.210
   24ARHM    H135224   0.576   6.583  13.220
   24ARHM    C535225   0.638   6.900  13.149
   24ARHM    H535226   0.718   6.884  13.075
   24ARHM    O535227   0.563   6.778  13.162
   24ARHM    C235228   0.706   6.702  13.345
   24ARHM    H235229   0.774   6.620  13.374
   24ARHM    O235230   0.604   6.720  13.446
   24ARHM    C335231   0.791   6.827  13.332
   24ARHM    H335232   0.869   6.808  13.255
   24ARHM    O335233   0.859   6.856  13.453
   24ARHM   HO335234   0.850   6.950  13.471
   24ARHM    C435235   0.702   6.940  13.283
   24ARHM    H435236   0.621   6.956  13.356
   24ARHM    O435237   0.774   7.063  13.270
   24ARHM   HO435238   0.711   7.135  13.286
   24ARHM    C635239   0.540   7.005  13.095
   24ARHM   H6135240   0.594   7.100  13.075
   24ARHM   H6235241   0.496   6.971  12.998
   24ARHM   H6335242   0.459   7.025  13.168
   25ARHM    C135243   0.561   6.600  13.503
   25ARHM    H135244   0.585   6.517  13.433
   25ARHM    C535245   0.372   6.683  13.620
   25ARHM    H535246   0.398   6.787  13.589
   25ARHM    O535247   0.419   6.591  13.520
   25ARHM    C235248   0.636   6.575  13.633
   25ARHM    H235249   0.743   6.596  13.616
   25ARHM    O235250   0.620   6.440  13.679
   25ARHM    C335251   0.588   6.670  13.738
   25ARHM    H335252   0.611   6.774  13.706
   25ARHM    O335253   0.660   6.639  13.857
   25ARHM    C435254   0.439   6.653  13.755
   25ARHM    H435255   0.418   6.547  13.781
   25ARHM    O435256   0.386   6.736  13.857
   25ARHM   HO435257   0.291   6.726  13.859
   25ARHM    C635258   0.219   6.669  13.620
   25ARHM   H6135259   0.180   6.690  13.519
   25ARHM   H6235260   0.189   6.566  13.648
   25ARHM   H6335261   0.173   6.742  13.689
   26BMANN   C135262   0.700   6.349  13.609
   26BMANN   H135263   0.793   6.398  13.572
   26BMANN   C535264   0.712   6.204  13.422
   26BMANN   H535265   0.799   6.264  13.388
   26BMANN   O535266   0.628   6.292  13.498
   26BMANN   C235267   0.739   6.238  13.703
   26BMANN   H235268   0.796   6.285  13.786
   26BMANN    N35269   0.620   6.173  13.759
   26BMANN   HN35270   0.547   6.154  13.693
   26BMANN    C35271   0.601   6.146  13.888
   26BMANN    O35272   0.684   6.170  13.975
   26BMANN   CT35273   0.470   6.082  13.925
   26BMANN  HT135274   0.389   6.123  13.860
   26BMANN  HT235275   0.446   6.104  14.030
   26BMANN  HT335276   0.477   5.972  13.911
   26BMANN   C335277   0.834   6.146  13.628
   26BMANN   H335278   0.922   6.204  13.593
   26BMANN   O335279   0.883   6.042  13.714
   26BMANN  HO335280   0.950   6.076  13.773
   26BMANN   C435281   0.762   6.090  13.508
   26BMANN   H435282   0.678   6.025  13.541
   26BMANN   O435283   0.849   6.014  13.423
   26BMANN  HO435284   0.861   5.926  13.458
   26BMANN   C635285   0.635   6.159  13.300
   26BMANN  H6135286   0.585   6.246  13.252
   26BMANN  H6235287   0.707   6.119  13.224
   26BMANN   O635288   0.538   6.058  13.328
   26BMANN  HO635289   0.585   5.974  13.335
   27BGLCN   C135290   0.692   6.750  13.936
   27BGLCN   H135291   0.612   6.828  13.929
   27BGLCN   C535292   0.854   6.918  13.981
   27BGLCN   H535293   0.776   6.996  13.968
   27BGLCN   O535294   0.819   6.805  13.901
   27BGLCN   C235295   0.698   6.697  14.078
   27BGLCN   H235296   0.784   6.627  14.083
   27BGLCN    N35297   0.579   6.619  14.107
   27BGLCN   HN35298   0.505   6.631  14.043
   27BGLCN    C35299   0.571   6.517  14.196
   27BGLCN    O35300   0.655   6.491  14.280
   27BGLCN   CT35301   0.448   6.431  14.183
   27BGLCN  HT135302   0.366   6.486  14.133
   27BGLCN  HT235303   0.415   6.400  14.284
   27BGLCN  HT335304   0.474   6.340  14.124
   27BGLCN   C335305   0.727   6.814  14.172
   27BGLCN   H335306   0.647   6.890  14.158
   27BGLCN   O335307   0.722   6.763  14.307
   27BGLCN   C435308   0.860   6.875  14.128
   27BGLCN   H435309   0.938   6.797  14.137
   27BGLCN   O435310   0.900   6.985  14.210
   27BGLCN  HO435311   0.981   6.959  14.252
   27BGLCN   C635312   0.986   6.977  13.932
   27BGLCN  H6135313   1.003   7.076  13.981
   27BGLCN  H6235314   1.067   6.909  13.967
   27BGLCN   O635315   0.998   6.991  13.790
   27BGLCN  HO635316   0.937   7.057  13.758
   28AGAL    C135317   0.725   6.854  14.413
   28AGAL    H135318   0.828   6.894  14.425
   28AGAL    C535319   0.495   6.921  14.389
   28AGAL    H535320   0.481   6.851  14.304
   28AGAL    O535321   0.633   6.963  14.393
   28AGAL    C235322   0.689   6.785  14.544
   28AGAL    H235323   0.690   6.868  14.618
   28AGAL    O235324   0.783   6.684  14.585
   28AGAL    C335325   0.547   6.731  14.538
   28AGAL    H335326   0.539   6.661  14.452
   28AGAL    O335327   0.513   6.659  14.657
   28AGAL   HO335328   0.512   6.565  14.640
   28AGAL    C435329   0.453   6.847  14.517
   28AGAL    H435330   0.351   6.806  14.499
   28AGAL    O435331   0.444   6.932  14.632
   28AGAL   HO435332   0.439   6.872  14.707
   28AGAL    C635333   0.413   7.046  14.363
   28AGAL   H6135334   0.435   7.085  14.260
   28AGAL   H6235335   0.304   7.021  14.367
   28AGAL    O635336   0.441   7.149  14.458
   28AGAL   HO635337   0.463   7.103  14.539
   29ARHM    C135338   0.824   6.699  14.719
   29ARHM    H135339   0.746   6.754  14.776
   29ARHM    C535340   1.057   6.701  14.665
   29ARHM    H535341   1.033   6.686  14.557
   29ARHM    O535342   0.949   6.771  14.728
   29ARHM    C235343   0.840   6.564  14.786
   29ARHM    H235344   0.745   6.508  14.771
   29ARHM    O235345   0.864   6.582  14.928
   29ARHM    C335346   0.952   6.485  14.723
   29ARHM    H335347   0.927   6.470  14.615
   29ARHM    O335348   0.964   6.356  14.783
   29ARHM   HO335349   1.023   6.364  14.858
   29ARHM    C435350   1.080   6.566  14.731
   29ARHM    H435351   1.103   6.585  14.839
   29ARHM    O435352   1.192   6.498  14.676
   29ARHM   HO435353   1.178   6.479  14.583
   29ARHM    C635354   1.179   6.793  14.675
   29ARHM   H6135355   1.158   6.891  14.626
   29ARHM   H6235356   1.205   6.810  14.781
   29ARHM   H6335357   1.268   6.747  14.625
   30ARHM    C135358   0.750   6.562  15.007
   30ARHM    H135359   0.704   6.465  14.980
   30ARHM    C535360   0.699   6.795  15.032
   30ARHM    H535361   0.789   6.824  14.975
   30ARHM    O535362   0.652   6.666  14.991
   30ARHM    C235363   0.790   6.556  15.154
   30ARHM    H235364   0.872   6.481  15.165
   30ARHM    O235365   0.676   6.520  15.232
   30ARHM    C335366   0.842   6.690  15.203
   30ARHM    H335367   0.929   6.717  15.138
   30ARHM    O335368   0.893   6.682  15.338
   30ARHM    C435369   0.735   6.795  15.180
   30ARHM    H435370   0.643   6.769  15.237
   30ARHM    O435371   0.780   6.924  15.222
   30ARHM   HO435372   0.815   6.910  15.310
   30ARHM    C635373   0.586   6.893  14.996
   30ARHM   H6135374   0.614   6.997  15.022
   30ARHM   H6235375   0.565   6.888  14.887
   30ARHM   H6335376   0.492   6.866  15.050
   31BMANN   C135377   0.657   6.384  15.256
   31BMANN   H135378   0.754   6.331  15.269
   31BMANN   C535379   0.554   6.184  15.177
   31BMANN   H535380   0.652   6.133  15.189
   31BMANN   O535381   0.578   6.324  15.153
   31BMANN   C235382   0.576   6.378  15.385
   31BMANN   H235383   0.641   6.419  15.465
   31BMANN    N35384   0.456   6.461  15.377
   31BMANN   HN35385   0.423   6.481  15.285
   31BMANN    C35386   0.391   6.511  15.481
   31BMANN    O35387   0.427   6.492  15.596
   31BMANN   CT35388   0.270   6.595  15.451
   31BMANN  HT135389   0.206   6.541  15.378
   31BMANN  HT235390   0.301   6.693  15.408
   31BMANN  HT335391   0.212   6.612  15.545
   31BMANN   C335392   0.551   6.233  15.419
   31BMANN   H335393   0.649   6.181  15.428
   31BMANN   O335394   0.487   6.220  15.545
   31BMANN  HO335395   0.447   6.304  15.569
   31BMANN   C435396   0.474   6.167  15.306
   31BMANN   H435397   0.375   6.216  15.294
   31BMANN   O435398   0.453   6.029  15.333
   31BMANN  HO435399   0.424   6.022  15.424
   31BMANN   C635400   0.486   6.126  15.054
   31BMANN  H6135401   0.468   6.017  15.069
   31BMANN  H6235402   0.387   6.175  15.042
   31BMANN   O635403   0.562   6.146  14.934
   31BMANN  HO635404   0.636   6.085  14.932
   32BGLCN   C135405   0.801   6.689  15.444
   32BGLCN   H135406   0.712   6.626  15.422
   32BGLCN   C535407   0.650   6.825  15.565
   32BGLCN   H535408   0.568   6.758  15.532
   32BGLCN   O535409   0.755   6.822  15.468
   32BGLCN   C235410   0.863   6.637  15.573
   32BGLCN   H235411   0.937   6.712  15.606
   32BGLCN    N35412   0.937   6.513  15.550
   32BGLCN   HN35413   0.924   6.469  15.462
   32BGLCN    C35414   1.035   6.469  15.629
   32BGLCN    O35415   1.064   6.523  15.735
   32BGLCN   CT35416   1.108   6.346  15.582
   32BGLCN  HT135417   1.068   6.311  15.484
   32BGLCN  HT235418   1.096   6.265  15.657
   32BGLCN  HT335419   1.216   6.368  15.571
   32BGLCN   C335420   0.751   6.631  15.678
   32BGLCN   H335421   0.668   6.572  15.633
   32BGLCN   O335422   0.786   6.566  15.802
   32BGLCN   C435423   0.702   6.774  15.698
   32BGLCN   H435424   0.787   6.838  15.730
   32BGLCN   O435425   0.600   6.785  15.796
   32BGLCN  HO435426   0.643   6.793  15.882
   32BGLCN   C635427   0.593   6.965  15.563
   32BGLCN  H6135428   0.513   6.976  15.640
   32BGLCN  H6235429   0.672   7.040  15.587
   32BGLCN   O635430   0.537   6.994  15.435
   32BGLCN  HO635431   0.608   7.015  15.374
   33AGAL    C135432   0.682   6.486  15.856
   33AGAL    H135433   0.584   6.537  15.843
   33AGAL    C535434   0.791   6.276  15.815
   33AGAL    H535435   0.879   6.334  15.779
   33AGAL    O535436   0.674   6.357  15.793
   33AGAL    C235437   0.704   6.464  16.005
   33AGAL    H235438   0.618   6.402  16.039
   33AGAL    O235439   0.699   6.589  16.074
   33AGAL    C335440   0.831   6.386  16.030
   33AGAL    H335441   0.916   6.442  15.984
   33AGAL    O335442   0.861   6.372  16.169
   33AGAL   HO335443   0.849   6.280  16.192
   33AGAL    C435444   0.819   6.251  15.963
   33AGAL    H435445   0.917   6.200  15.970
   33AGAL    O435446   0.724   6.165  16.026
   33AGAL   HO435447   0.635   6.201  16.021
   33AGAL    C635448   0.788   6.150  15.730
   33AGAL   H6135449   0.817   6.176  15.626
   33AGAL   H6235450   0.864   6.079  15.769
   33AGAL    O635451   0.661   6.084  15.725
   33AGAL   HO635452   0.596   6.142  15.686
   34ARHM    C135453   0.629   6.582  16.196
   34ARHM    H135454   0.656   6.488  16.250
   34ARHM    C535455   0.442   6.702  16.109
   34ARHM    H535456   0.488   6.705  16.008
   34ARHM    O535457   0.487   6.584  16.176
   34ARHM    C235458   0.671   6.702  16.278
   34ARHM    H235459   0.782   6.700  16.286
   34ARHM    O235460   0.615   6.703  16.410
   34ARHM    C335461   0.631   6.829  16.207
   34ARHM    H335462   0.680   6.832  16.108
   34ARHM    O335463   0.674   6.945  16.279
   34ARHM   HO335464   0.632   7.020  16.237
   34ARHM    C435465   0.481   6.827  16.187
   34ARHM    H435466   0.431   6.823  16.286
   34ARHM    O435467   0.436   6.943  16.118
   34ARHM   HO435468   0.348   6.967  16.149
   34ARHM    C635469   0.290   6.684  16.091
   34ARHM   H6135470   0.240   6.677  16.190
   34ARHM   H6235471   0.247   6.770  16.034
   34ARHM   H6335472   0.268   6.591  16.035
   35ARHM    C135473   0.657   6.599  16.495
   35ARHM    H135474   0.763   6.573  16.475
   35ARHM    C535475   0.437   6.506  16.505
   35ARHM    H535476   0.400   6.583  16.434
   35ARHM    O535477   0.576   6.481  16.481
   35ARHM    C235478   0.643   6.653  16.635
   35ARHM    H235479   0.698   6.750  16.640
   35ARHM    O235480   0.696   6.567  16.737
   35ARHM    C335481   0.499   6.683  16.666
   35ARHM    H335482   0.461   6.759  16.594
   35ARHM    O335483   0.486   6.738  16.796
   35ARHM   HO335484   0.508   6.669  16.860
   35ARHM    C435485   0.416   6.556  16.648
   35ARHM    H435486   0.454   6.478  16.717
   35ARHM    O435487   0.278   6.578  16.676
   35ARHM   HO435488   0.272   6.630  16.756
   35ARHM    C635489   0.364   6.375  16.473
   35ARHM   H6135490   0.384   6.346  16.368
   35ARHM   H6235491   0.400   6.294  16.540
   35ARHM   H6335492   0.254   6.388  16.486
   36BMANN   C135493   0.836   6.554  16.737
   36BMANN   H135494   0.884   6.646  16.697
   36BMANN   C535495   1.018   6.422  16.659
   36BMANN   H535496   1.063   6.515  16.618
   36BMANN   O535497   0.876   6.439  16.660
   36BMANN   C235498   0.877   6.532  16.881
   36BMANN   H235499   0.850   6.626  16.935
   36BMANN    N35500   0.805   6.422  16.945
   36BMANN   HN35501   0.779   6.347  16.884
   36BMANN    C35502   0.775   6.417  17.075
   36BMANN    O35503   0.798   6.508  17.154
   36BMANN   CT35504   0.710   6.289  17.122
   36BMANN  HT135505   0.757   6.202  17.073
   36BMANN  HT235506   0.602   6.291  17.097
   36BMANN  HT335507   0.722   6.280  17.232
   36BMANN   C335508   1.028   6.519  16.886
   36BMANN   H335509   1.073   6.611  16.842
   36BMANN   O335510   1.077   6.509  17.019
   36BMANN  HO335511   1.094   6.596  17.054
   36BMANN   C435512   1.071   6.402  16.800
   36BMANN   H435513   1.026   6.309  16.842
   36BMANN   O435514   1.212   6.386  16.797
   36BMANN  HO435515   1.237   6.342  16.879
   36BMANN   C635516   1.054   6.310  16.562
   36BMANN  H6135517   0.998   6.323  16.468
   36BMANN  H6235518   1.163   6.316  16.537
   36BMANN   O635519   1.028   6.180  16.615
   36BMANN  HO635520   1.099   6.155  16.674
    1ECLIP HB6S35521   0.349   1.193   6.649
    1ECLIP  OB635522   0.208   1.100   6.770
    1ECLIP  CB635523   0.320   1.090   6.679
    1ECLIP HB6R35524   0.408   1.043   6.726
    1ECLIP  CB535525   0.288   1.013   6.551
    1ECLIP  OB535526   0.167   1.073   6.500
    1ECLIP  HB535527   0.268   0.907   6.577
    1ECLIP  CB135528   0.120   1.004   6.384
    1ECLIP  HB135529   0.108   0.897   6.408
    1ECLIP  OA635530  -0.007   1.050   6.342
    1ECLIP  CA635531  -0.023   1.192   6.344
    1ECLIP HA6R35532   0.073   1.244   6.326
    1ECLIP HA6S35533  -0.057   1.222   6.446
    1ECLIP  CB435534   0.400   1.021   6.446
    1ECLIP  HB435535   0.426   1.127   6.427
    1ECLIP  OB435536   0.511   0.947   6.498
    1ECLIP   PB35537   0.672   0.977   6.484
    1ECLIP OPB435538   0.751   0.859   6.538
    1ECLIP OPB335539   0.705   1.111   6.547
    1ECLIP OPB235540   0.709   1.001   6.339
    1ECLIP  CB335541   0.351   0.954   6.318
    1ECLIP  OB335542   0.443   0.980   6.212
    1ECLIP  HB335543   0.332   0.847   6.337
    1ECLIP  C7135544   0.515   0.877   6.165
    1ECLIP  O7135545   0.496   0.761   6.197
    1ECLIP  C7235546   0.572   0.915   6.028
    1ECLIP H72R35547   0.488   0.925   5.957
    1ECLIP H72S35548   0.637   0.830   5.997
    1ECLIP  CB235549   0.221   1.017   6.273
    1ECLIP  HB235550   0.241   1.125   6.255
    1ECLIP  NB235551   0.171   0.955   6.151
    1ECLIP HNB235552   0.144   0.859   6.156
    1ECLIP  CA435553  -0.201   1.123   6.171
    1ECLIP  HA435554  -0.125   1.062   6.120
    1ECLIP  OA435555  -0.268   1.043   6.268
    1ECLIP HOA435556  -0.203   1.027   6.337
    1ECLIP  CA535557  -0.127   1.237   6.241
    1ECLIP  HA535558  -0.200   1.302   6.292
    1ECLIP  OA535559  -0.055   1.315   6.145
    1ECLIP  CA135560  -0.136   1.370   6.042
    1ECLIP  HA135561  -0.066   1.420   5.971
    1ECLIP  OA135562  -0.229   1.461   6.096
    1ECLIP OPA235563  -0.370   1.670   6.118
    1ECLIP OPA335564  -0.139   1.700   6.127
    1ECLIP OPA435565  -0.229   1.647   5.910
    1ECLIP   PA35566  -0.244   1.616   6.057
    1ECLIP  CA335567  -0.295   1.181   6.065
    1ECLIP  HA335568  -0.357   1.256   6.118
    1ECLIP  OA335569  -0.393   1.092   6.009
    1ECLIP  C3135570  -0.360   0.987   5.932
    1ECLIP  O3135571  -0.400   0.981   5.816
    1ECLIP  C3235572  -0.398   0.864   6.017
    1ECLIP H32R35573  -0.481   0.814   5.962
    1ECLIP H32S35574  -0.439   0.897   6.115
    1ECLIP  CA235575  -0.209   1.259   5.965
    1ECLIP  HA235576  -0.132   1.188   5.927
    1ECLIP  NA235577  -0.278   1.312   5.851
    1ECLIP HNA235578  -0.376   1.327   5.859
    1ECLIP  C7335579   0.655   1.044   6.033
    1ECLIP H73R35580   0.724   1.040   6.120
    1ECLIP  O7335581   0.564   1.153   6.038
    1ECLIP  C8135582   0.588   1.254   6.117
    1ECLIP  O8135583   0.678   1.261   6.202
    1ECLIP  C8235584   0.497   1.371   6.073
    1ECLIP H82R35585   0.546   1.467   6.103
    1ECLIP H82S35586   0.401   1.360   6.128
    1ECLIP  C8335587   0.467   1.371   5.920
    1ECLIP H83R35588   0.419   1.275   5.893
    1ECLIP H83S35589   0.563   1.378   5.865
    1ECLIP  C8435590   0.373   1.482   5.870
    1ECLIP H84R35591   0.422   1.581   5.880
    1ECLIP H84S35592   0.280   1.482   5.931
    1ECLIP  C8535593   0.334   1.458   5.723
    1ECLIP H85R35594   0.275   1.363   5.719
    1ECLIP H85S35595   0.427   1.442   5.664
    1ECLIP  C8635596   0.251   1.569   5.655
    1ECLIP H86R35597   0.318   1.656   5.638
    1ECLIP H86S35598   0.170   1.600   5.724
    1ECLIP  C8735599   0.190   1.527   5.520
    1ECLIP H87R35600   0.143   1.616   5.472
    1ECLIP H87S35601   0.109   1.453   5.539
    1ECLIP  C8835602   0.291   1.465   5.424
    1ECLIP H88R35603   0.329   1.371   5.469
    1ECLIP H88S35604   0.378   1.533   5.411
    1ECLIP  C8935605   0.235   1.429   5.285
    1ECLIP H89R35606   0.134   1.382   5.294
    1ECLIP H89S35607   0.304   1.353   5.241
    1ECLIP C81035608   0.229   1.547   5.188
    1ECLIPH810R35609   0.322   1.606   5.200
    1ECLIPH810S35610   0.143   1.611   5.217
    1ECLIP C81135611   0.213   1.507   5.040
    1ECLIPH811R35612   0.190   1.600   4.984
    1ECLIPH811S35613   0.126   1.438   5.031
    1ECLIP C81235614   0.336   1.441   4.976
    1ECLIPH812R35615   0.310   1.408   4.874
    1ECLIPH812S35616   0.364   1.350   5.033
    1ECLIP C81335617   0.460   1.532   4.967
    1ECLIPH813R35618   0.434   1.623   4.910
    1ECLIPH813S35619   0.489   1.565   5.069
    1ECLIP C81435620   0.580   1.463   4.903
    1ECLIPH814R35621   0.557   1.433   4.799
    1ECLIPH814S35622   0.607   1.372   4.959
    1ECLIPH814T35623   0.668   1.531   4.901
    1ECLIP  C7435624   0.744   1.065   5.910
    1ECLIP H74R35625   0.821   0.984   5.905
    1ECLIP H74S35626   0.799   1.160   5.924
    1ECLIP  C7535627   0.673   1.075   5.773
    1ECLIP H75R35628   0.735   1.141   5.708
    1ECLIP H75S35629   0.574   1.124   5.783
    1ECLIP  C7635630   0.660   0.941   5.698
    1ECLIP H76R35631   0.584   0.876   5.748
    1ECLIP H76S35632   0.757   0.889   5.702
    1ECLIP  C7735633   0.622   0.961   5.551
    1ECLIP H77R35634   0.695   1.030   5.505
    1ECLIP H77S35635   0.521   1.008   5.545
    1ECLIP  C7835636   0.621   0.829   5.471
    1ECLIP H78R35637   0.725   0.790   5.469
    1ECLIP H78S35638   0.558   0.755   5.523
    1ECLIP  C7935639   0.570   0.844   5.326
    1ECLIP H79R35640   0.461   0.867   5.328
    1ECLIP H79S35641   0.583   0.746   5.274
    1ECLIP C71035642   0.641   0.953   5.245
    1ECLIPH710R35643   0.623   1.052   5.292
    1ECLIPH710S35644   0.750   0.934   5.247
    1ECLIP C71135645   0.594   0.959   5.098
    1ECLIPH711R35646   0.609   0.859   5.052
    1ECLIPH711S35647   0.486   0.982   5.096
    1ECLIP C71235648   0.671   1.065   5.018
    1ECLIPH712R35649   0.778   1.037   5.016
    1ECLIPH712S35650   0.664   1.162   5.072
    1ECLIP C71335651   0.621   1.085   4.874
    1ECLIPH713R35652   0.516   1.123   4.879
    1ECLIPH713S35653   0.682   1.164   4.826
    1ECLIP C71435654   0.624   0.959   4.787
    1ECLIPH714R35655   0.727   0.919   4.781
    1ECLIPH714S35656   0.558   0.880   4.829
    1ECLIPH714T35657   0.589   0.982   4.684
    1ECLIP  C5135658   0.164   1.016   6.032
    1ECLIP  O5135659   0.192   1.134   6.017
    1ECLIP  C5235660   0.117   0.929   5.918
    1ECLIP H52R35661   0.181   0.839   5.911
    1ECLIP H52S35662   0.012   0.898   5.941
    1ECLIP  C5335663   0.119   1.005   5.785
    1ECLIP H53R35664   0.068   1.102   5.794
    1ECLIP  O5335665   0.058   0.918   5.689
    1ECLIP  C6135666  -0.066   0.949   5.656
    1ECLIP  O6135667  -0.139   1.023   5.720
    1ECLIP  C6235668  -0.115   0.846   5.554
    1ECLIP H62R35669  -0.156   0.759   5.610
    1ECLIP H62S35670  -0.027   0.812   5.495
    1ECLIP  C6335671  -0.224   0.902   5.460
    1ECLIP H63R35672  -0.185   0.992   5.410
    1ECLIP H63S35673  -0.312   0.933   5.520
    1ECLIP  C6435674  -0.269   0.802   5.352
    1ECLIP H64R35675  -0.348   0.852   5.292
    1ECLIP H64S35676  -0.315   0.713   5.400
    1ECLIP  C6535677  -0.155   0.757   5.259
    1ECLIP H65R35678  -0.083   0.696   5.318
    1ECLIP H65S35679  -0.101   0.846   5.222
    1ECLIP  C6635680  -0.200   0.672   5.139
    1ECLIP H66R35681  -0.246   0.578   5.176
    1ECLIP H66S35682  -0.110   0.644   5.080
    1ECLIP  C6735683  -0.299   0.742   5.044
    1ECLIP H67R35684  -0.397   0.756   5.094
    1ECLIP H67S35685  -0.316   0.675   4.957
    1ECLIP  C6835686  -0.249   0.878   4.993
    1ECLIP H68R35687  -0.146   0.864   4.955
    1ECLIP H68S35688  -0.244   0.952   5.076
    1ECLIP  C6935689  -0.336   0.933   4.880
    1ECLIP H69R35690  -0.431   0.974   4.921
    1ECLIP H69S35691  -0.364   0.850   4.812
    1ECLIP C61035692  -0.263   1.040   4.799
    1ECLIPH610R35693  -0.163   1.003   4.769
    1ECLIPH610S35694  -0.248   1.129   4.863
    1ECLIP C61135695  -0.339   1.083   4.672
    1ECLIPH611R35696  -0.446   1.055   4.683
    1ECLIPH611S35697  -0.336   1.194   4.667
    1ECLIP C61235698  -0.282   1.027   4.542
    1ECLIPH612R35699  -0.173   1.044   4.536
    1ECLIPH612S35700  -0.301   0.917   4.535
    1ECLIPH612T35701  -0.331   1.075   4.454
    1ECLIP  C5435702   0.262   1.032   5.734
    1ECLIP H54R35703   0.318   0.936   5.724
    1ECLIP H54S35704   0.316   1.094   5.811
    1ECLIP  C5535705   0.265   1.108   5.601
    1ECLIP H55R35706   0.364   1.158   5.589
    1ECLIP H55S35707   0.188   1.188   5.603
    1ECLIP  C5635708   0.242   1.018   5.479
    1ECLIP H56R35709   0.146   0.963   5.486
    1ECLIP H56S35710   0.322   0.942   5.472
    1ECLIP  C5735711   0.235   1.101   5.351
    1ECLIP H57R35712   0.334   1.147   5.333
    1ECLIP H57S35713   0.160   1.182   5.366
    1ECLIP  C5835714   0.193   1.018   5.230
    1ECLIP H58R35715   0.262   0.932   5.219
    1ECLIP H58S35716   0.090   0.978   5.245
    1ECLIP  C5935717   0.198   1.105   5.104
    1ECLIP H59R35718   0.299   1.151   5.101
    1ECLIP H59S35719   0.124   1.187   5.110
    1ECLIP C51035720   0.178   1.024   4.976
    1ECLIPH510R35721   0.073   0.988   4.967
    1ECLIPH510S35722   0.244   0.934   4.981
    1ECLIP C51135723   0.219   1.106   4.854
    1ECLIPH511R35724   0.143   1.185   4.833
    1ECLIPH511S35725   0.314   1.159   4.877
    1ECLIP C51235726   0.242   1.018   4.733
    1ECLIPH512R35727   0.298   1.079   4.657
    1ECLIPH512S35728   0.306   0.931   4.757
    1ECLIP C51335729   0.111   0.974   4.668
    1ECLIPH513R35730   0.034   1.050   4.691
    1ECLIPH513S35731   0.079   0.881   4.720
    1ECLIP C51435732   0.120   0.956   4.517
    1ECLIPH514R35733   0.194   0.877   4.491
    1ECLIPH514S35734   0.021   0.927   4.476
    1ECLIPH514T35735   0.151   1.051   4.469
    1ECLIP  C3335736  -0.286   0.761   6.038
    1ECLIP H33R35737  -0.326   0.673   6.094
    1ECLIP  O3335738  -0.186   0.822   6.117
    1ECLIP HO3335739  -0.220   0.880   6.186
    1ECLIP  C3435740  -0.220   0.712   5.907
    1ECLIP H34R35741  -0.180   0.801   5.855
    1ECLIP H34S35742  -0.298   0.667   5.841
    1ECLIP  C3535743  -0.104   0.612   5.927
    1ECLIP H35R35744  -0.142   0.514   5.964
    1ECLIP H35S35745  -0.037   0.652   6.006
    1ECLIP  C3635746  -0.020   0.596   5.800
    1ECLIP H36R35747   0.003   0.698   5.763
    1ECLIP H36S35748  -0.078   0.544   5.721
    1ECLIP  C3735749   0.117   0.529   5.820
    1ECLIP H37R35750   0.106   0.418   5.828
    1ECLIP H37S35751   0.161   0.564   5.917
    1ECLIP  C3835752   0.216   0.562   5.707
    1ECLIP H38R35753   0.242   0.670   5.714
    1ECLIP H38S35754   0.310   0.505   5.723
    1ECLIP  C3935755   0.162   0.533   5.566
    1ECLIP H39R35756   0.072   0.596   5.549
    1ECLIP H39S35757   0.132   0.427   5.559
    1ECLIP C31035758   0.264   0.565   5.455
    1ECLIPH310R35759   0.344   0.488   5.455
    1ECLIPH310S35760   0.312   0.663   5.476
    1ECLIP C31135761   0.197   0.571   5.318
    1ECLIPH311R35762   0.138   0.478   5.300
    1ECLIPH311S35763   0.126   0.657   5.318
    1ECLIP C31235764   0.295   0.591   5.201
    1ECLIPH312R35765   0.361   0.677   5.224
    1ECLIPH312S35766   0.360   0.501   5.193
    1ECLIP C31335767   0.224   0.618   5.068
    1ECLIPH313R35768   0.155   0.533   5.047
    1ECLIPH313S35769   0.161   0.709   5.079
    1ECLIP C31435770   0.320   0.636   4.951
    1ECLIPH314R35771   0.380   0.544   4.936
    1ECLIPH314S35772   0.264   0.658   4.858
    1ECLIPH314T35773   0.390   0.720   4.970
    1ECLIP  C1135774  -0.211   1.359   5.743
    1ECLIP  O1135775  -0.091   1.338   5.726
    1ECLIP  C1235776  -0.286   1.448   5.648
    1ECLIP H12R35777  -0.254   1.552   5.668
    1ECLIP H12S35778  -0.395   1.439   5.665
    1ECLIP  C1335779  -0.250   1.411   5.503
    1ECLIP H13R35780  -0.140   1.412   5.490
    1ECLIP  O1335781  -0.306   1.512   5.421
    1ECLIP HO1335782  -0.281   1.503   5.328
    1ECLIP  C1435783  -0.307   1.275   5.460
    1ECLIP H14R35784  -0.412   1.269   5.497
    1ECLIP H14S35785  -0.250   1.195   5.511
    1ECLIP  C1535786  -0.308   1.249   5.308
    1ECLIP H15R35787  -0.371   1.326   5.259
    1ECLIP H15S35788  -0.357   1.151   5.288
    1ECLIP  C1635789  -0.169   1.247   5.242
    1ECLIP H16R35790  -0.122   1.148   5.261
    1ECLIP H16S35791  -0.102   1.324   5.285
    1ECLIP  C1735792  -0.178   1.271   5.090
    1ECLIP H17R35793  -0.268   1.219   5.052
    1ECLIP H17S35794  -0.089   1.225   5.042
    1ECLIP  C1835795  -0.184   1.420   5.054
    1ECLIP H18R35796  -0.266   1.468   5.109
    1ECLIP H18S35797  -0.089   1.469   5.083
    1ECLIP  C1935798  -0.208   1.445   4.903
    1ECLIP H19R35799  -0.215   1.555   4.885
    1ECLIP H19S35800  -0.306   1.400   4.875
    1ECLIP C11035801  -0.099   1.388   4.811
    1ECLIPH110R35802  -0.001   1.436   4.832
    1ECLIPH110S35803  -0.088   1.279   4.830
    1ECLIP C11135804  -0.135   1.405   4.662
    1ECLIPH111R35805  -0.242   1.379   4.648
    1ECLIPH111S35806  -0.124   1.512   4.632
    1ECLIP C11235807  -0.051   1.315   4.571
    1ECLIPH112R35808   0.055   1.349   4.570
    1ECLIPH112S35809  -0.052   1.212   4.613
    1ECLIP C11335810  -0.108   1.308   4.429
    1ECLIPH113R35811  -0.210   1.264   4.436
    1ECLIPH113S35812  -0.118   1.412   4.391
    1ECLIP C11435813  -0.028   1.226   4.328
    1ECLIPH114R35814   0.079   1.258   4.330
    1ECLIPH114S35815  -0.032   1.118   4.353
    1ECLIPH114T35816  -0.068   1.240   4.226
    2AKDO    C135817   0.214   0.874   6.852
    2AKDO   O1135818   0.301   0.796   6.899
    2AKDO   O1235819   0.103   0.840   6.802
    2AKDO    C235820   0.227   1.026   6.889
    2AKDO    C635821   0.362   1.199   6.987
    2AKDO    H635822   0.336   1.258   6.896
    2AKDO    O635823   0.353   1.058   6.952
    2AKDO    C335824   0.116   1.064   6.988
    2AKDO   H3135825   0.124   0.995   7.075
    2AKDO   H3235826   0.018   1.044   6.939
    2AKDO    C435827   0.119   1.207   7.032
    2AKDO    H435828   0.107   1.272   6.943
    2AKDO    O435829   0.013   1.232   7.127
    2AKDO    C535830   0.257   1.239   7.094
    2AKDO    H535831   0.259   1.350   7.101
    2AKDO    O535832   0.280   1.186   7.227
    2AKDO    C735833   0.508   1.232   7.014
    2AKDO    H735834   0.545   1.169   7.097
    2AKDO    O735835   0.523   1.371   7.046
    2AKDO   HO735836   0.598   1.396   6.992
    2AKDO    C835837   0.593   1.203   6.891
    2AKDO   H8135838   0.587   1.095   6.865
    2AKDO   H8235839   0.559   1.262   6.804
    2AKDO    O835840   0.730   1.235   6.920
    2AKDO   HO835841   0.783   1.199   6.848
    3AKDO    C135842  -0.133   1.363   6.971
    3AKDO   O1135843  -0.208   1.335   6.873
    3AKDO   O1235844  -0.106   1.479   7.012
    3AKDO    C235845  -0.121   1.251   7.082
    3AKDO    C635846  -0.196   1.027   7.145
    3AKDO    H635847  -0.092   1.003   7.176
    3AKDO    O635848  -0.189   1.128   7.040
    3AKDO    C335849  -0.195   1.304   7.205
    3AKDO   H3135850  -0.298   1.332   7.175
    3AKDO   H3235851  -0.145   1.396   7.241
    3AKDO    C435852  -0.203   1.207   7.316
    3AKDO    H435853  -0.100   1.185   7.353
    3AKDO    O435854  -0.279   1.269   7.419
    3AKDO   HO435855  -0.255   1.238   7.506
    3AKDO    C535856  -0.271   1.081   7.267
    3AKDO    H535857  -0.262   1.007   7.349
    3AKDO    O535858  -0.410   1.102   7.242
    3AKDO   HO535859  -0.430   1.183   7.288
    3AKDO    C735860  -0.261   0.897   7.095
    3AKDO    H735861  -0.365   0.921   7.062
    3AKDO    O735862  -0.267   0.802   7.203
    3AKDO   HO735863  -0.177   0.769   7.208
    3AKDO    C835864  -0.187   0.834   6.979
    3AKDO   H8135865  -0.171   0.908   6.898
    3AKDO   H8235866  -0.086   0.798   7.009
    3AKDO    O835867  -0.262   0.723   6.927
    3AKDO   HO835868  -0.265   0.734   6.832
    4AHEP    C135869   0.366   1.264   7.312
    4AHEP    H135870   0.467   1.265   7.267
    4AHEP    C535871   0.199   1.415   7.391
    4AHEP    H535872   0.124   1.350   7.339
    4AHEP    O535873   0.324   1.401   7.321
    4AHEP    C235874   0.386   1.210   7.455
    4AHEP    H235875   0.412   1.102   7.445
    4AHEP    O235876   0.495   1.271   7.524
    4AHEP   HO235877   0.481   1.253   7.617
    4AHEP    C335878   0.260   1.221   7.537
    4AHEP    H335879   0.183   1.156   7.490
    4AHEP    O335880   0.290   1.178   7.674
    4AHEP    C435881   0.212   1.366   7.537
    4AHEP    H435882   0.282   1.430   7.595
    4AHEP    O435883   0.082   1.360   7.594
    4AHEP    P435884   0.012   1.468   7.695
    4AHEP  OP4235885  -0.137   1.445   7.676
    4AHEP  OP4335886   0.052   1.607   7.653
    4AHEP  OP4435887   0.052   1.435   7.837
    4AHEP    C635888   0.150   1.560   7.372
    4AHEP    H635889   0.043   1.562   7.401
    4AHEP    O635890   0.222   1.649   7.457
    4AHEP   HO635891   0.171   1.643   7.538
    4AHEP    C735892   0.157   1.615   7.228
    4AHEP   H7135893   0.101   1.710   7.224
    4AHEP   H7235894   0.105   1.543   7.161
    4AHEP    O735895   0.291   1.637   7.177
    4AHEP   HO735896   0.335   1.557   7.209
    5AHEP    C135897   0.197   1.088   7.733
    5AHEP    H135898   0.101   1.101   7.677
    5AHEP    C535899   0.345   0.913   7.809
    5AHEP    H535900   0.425   0.988   7.793
    5AHEP    O535901   0.237   0.949   7.720
    5AHEP    C235902   0.160   1.113   7.878
    5AHEP    H235903   0.147   1.222   7.889
    5AHEP    O235904   0.036   1.050   7.912
    5AHEP   HO235905  -0.027   1.122   7.915
    5AHEP    C335906   0.272   1.075   7.972
    5AHEP    H335907   0.363   1.131   7.943
    5AHEP    O335908   0.241   1.097   8.111
    5AHEP    C435909   0.298   0.928   7.953
    5AHEP    H435910   0.203   0.871   7.964
    5AHEP    O435911   0.397   0.883   8.046
    5AHEP    P435912   0.357   0.776   8.164
    5AHEP  OP4235913   0.433   0.814   8.288
    5AHEP  OP4335914   0.403   0.638   8.122
    5AHEP  OP4435915   0.207   0.770   8.193
    5AHEP    C635916   0.414   0.781   7.776
    5AHEP    H635917   0.506   0.774   7.839
    5AHEP    O635918   0.332   0.667   7.804
    5AHEP   HO635919   0.363   0.606   7.738
    5AHEP    C735920   0.452   0.783   7.629
    5AHEP   H7135921   0.557   0.747   7.622
    5AHEP   H7235922   0.453   0.886   7.587
    5AHEP    O735923   0.371   0.695   7.552
    6AHEP    C135924   0.256   0.754   7.497
    6AHEP    H135925   0.251   0.864   7.514
    6AHEP    C535926   0.278   0.596   7.323
    6AHEP    H535927   0.370   0.558   7.373
    6AHEP    O535928   0.259   0.735   7.356
    6AHEP    C235929   0.134   0.683   7.554
    6AHEP    H235930   0.137   0.699   7.662
    6AHEP    O235931   0.009   0.735   7.507
    6AHEP   HO235932   0.011   0.739   7.411
    6AHEP    C335933   0.146   0.535   7.526
    6AHEP    H335934   0.235   0.494   7.577
    6AHEP    O335935   0.029   0.472   7.582
    6AHEP   HO335936   0.029   0.381   7.550
    6AHEP    C435937   0.160   0.513   7.375
    6AHEP    H435938   0.066   0.540   7.323
    6AHEP    O435939   0.186   0.375   7.353
    6AHEP   HO435940   0.181   0.355   7.259
    6AHEP    C635941   0.312   0.592   7.174
    6AHEP    H635942   0.348   0.489   7.150
    6AHEP    O635943   0.198   0.623   7.094
    6AHEP   HO635944   0.232   0.680   7.023
    6AHEP    C735945   0.429   0.685   7.141
    6AHEP   H7135946   0.467   0.661   7.038
    6AHEP   H7235947   0.512   0.663   7.212
    6AHEP    O735948   0.402   0.826   7.148
    6AHEP   HO735949   0.375   0.851   7.059
    7AGLC    C135950   0.305   1.210   8.167
    7AGLC    H135951   0.400   1.234   8.115
    7AGLC    C535952   0.093   1.298   8.224
    7AGLC    H535953   0.049   1.205   8.181
    7AGLC    O535954   0.217   1.323   8.157
    7AGLC    C235955   0.336   1.186   8.313
    7AGLC    H235956   0.379   1.281   8.351
    7AGLC    O235957   0.440   1.089   8.332
    7AGLC   HO235958   0.415   1.000   8.304
    7AGLC    C335959   0.211   1.157   8.393
    7AGLC    H335960   0.164   1.064   8.354
    7AGLC    O335961   0.242   1.144   8.535
    7AGLC    C435962   0.119   1.276   8.372
    7AGLC    H435963   0.170   1.367   8.410
    7AGLC    O435964  -0.006   1.266   8.440
    7AGLC   HO435965  -0.008   1.339   8.502
    7AGLC    C635966  -0.007   1.407   8.194
    7AGLC   H6135967  -0.004   1.428   8.085
    7AGLC   H6235968  -0.109   1.369   8.217
    7AGLC    O635969   0.015   1.528   8.266
    7AGLC   HO635970   0.031   1.595   8.200
    8AGLC    C135971   0.227   1.016   8.594
    8AGLC    H135972   0.138   0.965   8.551
    8AGLC    C535973   0.465   0.988   8.627
    8AGLC    H535974   0.480   1.088   8.580
    8AGLC    O535975   0.342   0.932   8.575
    8AGLC    C235976   0.210   1.035   8.743
    8AGLC    H235977   0.189   0.936   8.788
    8AGLC    O235978   0.104   1.127   8.778
    8AGLC    C335979   0.334   1.093   8.806
    8AGLC    H335980   0.354   1.192   8.759
    8AGLC    O335981   0.303   1.119   8.944
    8AGLC    C435982   0.453   1.006   8.778
    8AGLC    H435983   0.443   0.904   8.822
    8AGLC    O435984   0.571   1.067   8.829
    8AGLC   HO435985   0.593   1.142   8.773
    8AGLC    C635986   0.583   0.902   8.582
    8AGLC   H6135987   0.579   0.888   8.472
    8AGLC   H6235988   0.677   0.957   8.605
    8AGLC    O635989   0.589   0.774   8.648
    8AGLC   HO635990   0.682   0.752   8.658
    9AGAL    C135991  -0.022   1.110   8.720
    9AGAL    H135992  -0.016   1.111   8.609
    9AGAL    C535993  -0.089   0.965   8.896
    9AGAL    H535994   0.011   0.980   8.941
    9AGAL    O535995  -0.080   0.984   8.754
    9AGAL    C235996  -0.109   1.225   8.771
    9AGAL    H235997  -0.210   1.214   8.726
    9AGAL    O235998  -0.053   1.349   8.719
    9AGAL    C335999  -0.124   1.208   8.924
    9AGAL    H336000  -0.022   1.214   8.967
    9AGAL    O336001  -0.203   1.310   8.985
    9AGAL   HO336002  -0.159   1.392   8.964
    9AGAL    C436003  -0.182   1.071   8.954
    9AGAL    H436004  -0.185   1.058   9.064
    9AGAL    O436005  -0.317   1.057   8.907
    9AGAL   HO436006  -0.314   1.008   8.825
    9AGAL    C636007  -0.125   0.820   8.920
    9AGAL   H6136008  -0.046   0.757   8.874
    9AGAL   H6236009  -0.127   0.799   9.030
    9AGAL    O636010  -0.251   0.782   8.863
    9AGAL   HO636011  -0.241   0.779   8.768
   10AGAL    C136012  -0.099   1.471   8.775
   10AGAL    H136013  -0.210   1.464   8.785
   10AGAL    C536014   0.100   1.513   8.900
   10AGAL    H536015   0.146   1.434   8.839
   10AGAL    O536016  -0.042   1.489   8.906
   10AGAL    C236017  -0.073   1.597   8.693
   10AGAL    H236018  -0.128   1.681   8.740
   10AGAL    O236019  -0.128   1.580   8.561
   10AGAL   HO236020  -0.060   1.594   8.495
   10AGAL    C336021   0.074   1.632   8.688
   10AGAL    H336022   0.127   1.549   8.635
   10AGAL    O336023   0.101   1.750   8.611
   10AGAL   HO336024   0.195   1.752   8.592
   10AGAL    C436025   0.126   1.645   8.829
   10AGAL    H436026   0.236   1.662   8.826
   10AGAL    O436027   0.067   1.753   8.903
   10AGAL   HO436028   0.113   1.834   8.879
   10AGAL    C636029   0.167   1.498   9.036
   10AGAL   H6136030   0.168   1.390   9.062
   10AGAL   H6236031   0.273   1.532   9.030
   10AGAL    O636032   0.100   1.569   9.141
   10AGAL   HO636033   0.097   1.662   9.117
   11BGLC    C136034   0.349   1.033   9.045
   11BGLC    H136035   0.458   1.047   9.061
   11BGLC    C536036   0.366   0.806   9.118
   11BGLC    H536037   0.475   0.822   9.135
   11BGLC    O536038   0.320   0.896   9.016
   11BGLC    C236039   0.272   1.071   9.171
   11BGLC    H236040   0.165   1.052   9.146
   11BGLC    O236041   0.283   1.209   9.208
   11BGLC   HO236042   0.358   1.245   9.161
   11BGLC    C336043   0.312   0.982   9.286
   11BGLC    H336044   0.418   1.000   9.311
   11BGLC    O336045   0.226   1.007   9.399
   11BGLC    C436046   0.290   0.839   9.247
   11BGLC    H436047   0.182   0.824   9.226
   11BGLC    O436048   0.327   0.752   9.352
   11BGLC   HO436049   0.390   0.797   9.408
   11BGLC    C636050   0.345   0.664   9.068
   11BGLC   H6136051   0.361   0.592   9.151
   11BGLC   H6236052   0.241   0.653   9.031
   11BGLC    O636053   0.437   0.630   8.964
   11BGLC   HO636054   0.388   0.607   8.884
   12BGLCN   C136055   0.292   1.048   9.517
   12BGLCN   H136056   0.337   1.148   9.502
   12BGLCN   C536057   0.460   0.985   9.674
   12BGLCN   H536058   0.504   1.086   9.661
   12BGLCN   O536059   0.391   0.950   9.552
   12BGLCN   C236060   0.186   1.052   9.627
   12BGLCN   H236061   0.147   0.949   9.638
   12BGLCN    N36062   0.077   1.142   9.591
   12BGLCN   HN36063   0.103   1.237   9.580
   12BGLCN    C36064  -0.052   1.107   9.580
   12BGLCN    O36065  -0.092   0.993   9.603
   12BGLCN   CT36066  -0.149   1.214   9.540
   12BGLCN  HT136067  -0.219   1.236   9.624
   12BGLCN  HT236068  -0.208   1.181   9.453
   12BGLCN  HT336069  -0.095   1.307   9.512
   12BGLCN   C336070   0.250   1.088   9.760
   12BGLCN   H336071   0.293   1.190   9.754
   12BGLCN   O336072   0.153   1.080   9.867
   12BGLCN   C436073   0.359   0.986   9.786
   12BGLCN   H436074   0.311   0.886   9.790
   12BGLCN   O436075   0.424   1.006   9.911
   12BGLCN  HO436076   0.480   1.083   9.905
   12BGLCN   C636077   0.574   0.888   9.698
   12BGLCN  H6136078   0.628   0.917   9.792
   12BGLCN  H6236079   0.532   0.786   9.714
   12BGLCN   O636080   0.668   0.881   9.592
   12BGLCN  HO636081   0.715   0.964   9.579
   13AGAL    C136082   0.167   1.177   9.969
   13AGAL    H136083   0.275   1.199   9.988
   13AGAL    C536084  -0.039   1.279   9.900
   13AGAL    H536085  -0.049   1.196   9.826
   13AGAL    O536086   0.101   1.300   9.929
   13AGAL    C236087   0.102   1.129  10.098
   13AGAL    H236088   0.110   1.214  10.170
   13AGAL    O236089   0.172   1.015  10.156
   13AGAL    C336090  -0.046   1.104  10.075
   13AGAL    H336091  -0.055   1.026   9.997
   13AGAL    O336092  -0.116   1.058  10.188
   13AGAL   HO336093  -0.209   1.074  10.171
   13AGAL    C436094  -0.111   1.232  10.024
   13AGAL    H436095  -0.215   1.209   9.995
   13AGAL    O436096  -0.117   1.335  10.124
   13AGAL   HO436097  -0.028   1.365  10.146
   13AGAL    C636098  -0.106   1.399   9.837
   13AGAL   H6136099  -0.069   1.413   9.733
   13AGAL   H6236100  -0.216   1.381   9.829
   13AGAL    O636101  -0.084   1.521   9.907
   13AGAL   HO636102  -0.056   1.500   9.997
   14ARHM    C136103   0.230   1.034  10.285
   14ARHM    H136104   0.273   1.135  10.290
   14ARHM    C536105   0.297   0.806  10.312
   14ARHM    H536106   0.263   0.778  10.209
   14ARHM    O536107   0.338   0.943  10.312
   14ARHM    C236108   0.123   1.018  10.391
   14ARHM    H236109   0.042   1.092  10.372
   14ARHM    O236110   0.165   1.031  10.528
   14ARHM    C336111   0.072   0.878  10.381
   14ARHM    H336112   0.039   0.858  10.278
   14ARHM    O336113  -0.042   0.860  10.464
   14ARHM   HO336114  -0.022   0.899  10.550
   14ARHM    C436115   0.185   0.783  10.413
   14ARHM    H436116   0.227   0.805  10.514
   14ARHM    O436117   0.142   0.646  10.417
   14ARHM   HO436118   0.095   0.635  10.499
   14ARHM    C636119   0.425   0.728  10.344
   14ARHM   H6136120   0.503   0.752  10.268
   14ARHM   H6236121   0.464   0.756  10.443
   14ARHM   H6336122   0.407   0.618  10.342
   15ARHM    C136123   0.218   1.154  10.568
   15ARHM    H136124   0.183   1.235  10.500
   15ARHM    C536125   0.414   1.050  10.658
   15ARHM    H536126   0.380   0.950  10.624
   15ARHM    O536127   0.362   1.151  10.569
   15ARHM    C236128   0.167   1.181  10.707
   15ARHM    H236129   0.056   1.176  10.702
   15ARHM    O236130   0.203   1.317  10.734
   15ARHM    C336131   0.215   1.075  10.802
   15ARHM    H336132   0.182   0.977  10.763
   15ARHM    O336133   0.152   1.095  10.930
   15ARHM    C436134   0.367   1.074  10.802
   15ARHM    H436135   0.404   1.173  10.835
   15ARHM    O436136   0.418   0.973  10.890
   15ARHM   HO436137   0.512   0.984  10.902
   15ARHM    C636138   0.567   1.056  10.641
   15ARHM   H6136139   0.617   0.977  10.701
   15ARHM   H6236140   0.595   1.041  10.535
   15ARHM   H6336141   0.606   1.155  10.674
   16BMANN   C136142   0.180   1.376  10.860
   16BMANN   H136143   0.231   1.320  10.940
   16BMANN   C536144   0.025   1.474  11.016
   16BMANN   H536145   0.067   1.413  11.099
   16BMANN   O536146   0.040   1.402  10.891
   16BMANN   C236147   0.248   1.510  10.840
   16BMANN   H236148   0.355   1.489  10.819
   16BMANN    N36149   0.189   1.583  10.726
   16BMANN   HN36150   0.091   1.599  10.731
   16BMANN    C36151   0.257   1.621  10.617
   16BMANN    O36152   0.377   1.605  10.603
   16BMANN   CT36153   0.176   1.686  10.509
   16BMANN  HT136154   0.205   1.793  10.498
   16BMANN  HT236155   0.067   1.678  10.530
   16BMANN  HT336156   0.197   1.635  10.412
   16BMANN   C336157   0.241   1.586  10.970
   16BMANN   H336158   0.291   1.526  11.050
   16BMANN   O336159   0.313   1.708  10.957
   16BMANN  HO336160   0.406   1.688  10.970
   16BMANN   C436161   0.097   1.608  11.009
   16BMANN   H436162   0.048   1.674  10.933
   16BMANN   O436163   0.087   1.671  11.137
   16BMANN  HO436164   0.026   1.745  11.134
   16BMANN   C636165  -0.123   1.498  11.041
   16BMANN  H6136166  -0.137   1.556  11.135
   16BMANN  H6236167  -0.165   1.559  10.958
   16BMANN   O636168  -0.200   1.379  11.054
   16BMANN  HO636169  -0.290   1.397  11.027
   17BGLCN   C136170   0.124   0.978  11.003
   17BGLCN   H136171   0.198   0.899  10.978
   17BGLCN   C536172  -0.038   0.809  11.054
   17BGLCN   H536173   0.034   0.731  11.023
   17BGLCN   O536174  -0.010   0.930  10.981
   17BGLCN   C236175   0.135   1.014  11.151
   17BGLCN   H236176   0.048   1.079  11.172
   17BGLCN    N36177   0.254   1.093  11.180
   17BGLCN   HN36178   0.333   1.083  11.120
   17BGLCN    C36179   0.258   1.185  11.277
   17BGLCN    O36180   0.160   1.212  11.346
   17BGLCN   CT36181   0.388   1.256  11.300
   17BGLCN  HT136182   0.392   1.349  11.238
   17BGLCN  HT236183   0.474   1.191  11.270
   17BGLCN  HT336184   0.399   1.284  11.406
   17BGLCN   C336185   0.117   0.886  11.231
   17BGLCN   H336186   0.191   0.813  11.189
   17BGLCN   O336187   0.146   0.907  11.370
   17BGLCN   C436188  -0.021   0.832  11.203
   17BGLCN   H436189  -0.096   0.907  11.238
   17BGLCN   O436190  -0.045   0.709  11.270
   17BGLCN  HO436191  -0.138   0.706  11.297
   17BGLCN   C636192  -0.178   0.761  11.020
   17BGLCN  H6136193  -0.200   0.668  11.076
   17BGLCN  H6236194  -0.253   0.837  11.052
   17BGLCN   O636195  -0.196   0.732  10.883
   17BGLCN  HO636196  -0.189   0.814  10.832
   18AGAL    C136197   0.194   0.795  11.443
   18AGAL    H136198   0.111   0.722  11.458
   18AGAL    C536199   0.415   0.816  11.354
   18AGAL    H536200   0.383   0.903  11.293
   18AGAL    O536201   0.303   0.728  11.377
   18AGAL    C236202   0.242   0.840  11.578
   18AGAL    H236203   0.284   0.749  11.627
   18AGAL    O236204   0.131   0.885  11.659
   18AGAL    C336205   0.355   0.940  11.559
   18AGAL    H336206   0.318   1.024  11.498
   18AGAL    O336207   0.395   0.995  11.686
   18AGAL   HO336208   0.459   1.066  11.675
   18AGAL    C436209   0.470   0.872  11.486
   18AGAL    H436210   0.545   0.950  11.460
   18AGAL    O436211   0.540   0.774  11.564
   18AGAL   HO436212   0.505   0.774  11.652
   18AGAL    C636213   0.515   0.738  11.270
   18AGAL   H6136214   0.469   0.715  11.172
   18AGAL   H6236215   0.605   0.799  11.252
   18AGAL    O636216   0.552   0.614  11.332
   18AGAL   HO636217   0.584   0.636  11.419
   19ARHM    C136218   0.145   0.851  11.795
   19ARHM    H136219   0.252   0.858  11.825
   19ARHM    C536220  -0.034   0.690  11.807
   19ARHM    H536221  -0.059   0.702  11.699
   19ARHM    O536222   0.105   0.716  11.826
   19ARHM    C236223   0.063   0.948  11.878
   19ARHM    H236224   0.087   1.051  11.845
   19ARHM    O236225   0.092   0.938  12.019
   19ARHM    C336226  -0.085   0.928  11.853
   19ARHM    H336227  -0.105   0.942  11.745
   19ARHM    O336228  -0.163   1.026  11.922
   19ARHM   HO336229  -0.154   1.017  12.016
   19ARHM    C436230  -0.119   0.785  11.891
   19ARHM    H436231  -0.090   0.770  11.996
   19ARHM    O436232  -0.258   0.753  11.883
   19ARHM   HO436233  -0.282   0.734  11.791
   19ARHM    C636234  -0.054   0.543  11.845
   19ARHM   H6136235   0.011   0.477  11.784
   19ARHM   H6236236  -0.025   0.529  11.951
   19ARHM   H6336237  -0.160   0.511  11.832
   20ARHM    C136238   0.225   0.976  12.047
   20ARHM    H136239   0.262   1.043  11.967
   20ARHM    C536240   0.288   0.775  12.161
   20ARHM    H536241   0.184   0.738  12.151
   20ARHM    O536242   0.317   0.866  12.054
   20ARHM    C236243   0.228   1.051  12.179
   20ARHM    H236244   0.143   1.123  12.177
   20ARHM    O236245   0.348   1.126  12.194
   20ARHM    C336246   0.202   0.960  12.294
   20ARHM    H336247   0.100   0.915  12.286
   20ARHM    O336248   0.211   1.040  12.411
   20ARHM    C436249   0.303   0.848  12.293
   20ARHM    H436250   0.406   0.891  12.298
   20ARHM    O436251   0.286   0.760  12.405
   20ARHM   HO436252   0.330   0.677  12.385
   20ARHM    C636253   0.382   0.654  12.144
   20ARHM   H6136254   0.488   0.685  12.152
   20ARHM   H6236255   0.360   0.575  12.218
   20ARHM   H6336256   0.368   0.610  12.043
   21BMANN   C136257   0.355   1.238  12.110
   21BMANN   H136258   0.262   1.251  12.050
   21BMANN   C536259   0.478   1.337  11.932
   21BMANN   H536260   0.383   1.349  11.875
   21BMANN   O536261   0.466   1.225  12.022
   21BMANN   C236262   0.372   1.358  12.200
   21BMANN   H236263   0.278   1.369  12.258
   21BMANN    N36264   0.479   1.336  12.297
   21BMANN   HN36265   0.537   1.258  12.276
   21BMANN    C36266   0.495   1.403  12.411
   21BMANN    O36267   0.426   1.501  12.439
   21BMANN   CT36268   0.600   1.352  12.505
   21BMANN  HT136269   0.694   1.411  12.492
   21BMANN  HT236270   0.621   1.244  12.485
   21BMANN  HT336271   0.565   1.362  12.609
   21BMANN   C336272   0.386   1.481  12.110
   21BMANN   H336273   0.295   1.489  12.048
   21BMANN   O336274   0.394   1.601  12.186
   21BMANN  HO336275   0.430   1.579  12.273
   21BMANN   C436276   0.503   1.462  12.016
   21BMANN   H436277   0.595   1.445  12.075
   21BMANN   O436278   0.525   1.575  11.933
   21BMANN  HO436279   0.509   1.653  11.986
   21BMANN   C636280   0.588   1.312  11.832
   21BMANN  H6136281   0.576   1.378  11.743
   21BMANN  H6236282   0.686   1.337  11.878
   21BMANN   O636283   0.591   1.175  11.787
   21BMANN  HO636284   0.580   1.121  11.866
   22BGLCN   C136285   0.118   1.007  12.510
   22BGLCN   H136286   0.099   0.898  12.516
   22BGLCN   C536287  -0.097   1.062  12.596
   22BGLCN   H536288  -0.114   0.953  12.610
   22BGLCN   O536289  -0.002   1.080  12.489
   22BGLCN   C236290   0.187   1.055  12.635
   22BGLCN   H236291   0.207   1.164  12.624
   22BGLCN    N36292   0.315   0.988  12.651
   22BGLCN   HN36293   0.327   0.906  12.595
   22BGLCN    C36294   0.418   1.036  12.720
   22BGLCN    O36295   0.413   1.143  12.780
   22BGLCN   CT36296   0.543   0.952  12.721
   22BGLCN  HT136297   0.608   0.980  12.637
   22BGLCN  HT236298   0.517   0.844  12.715
   22BGLCN  HT336299   0.598   0.970  12.816
   22BGLCN   C336300   0.091   1.036  12.752
   22BGLCN   H336301   0.062   0.929  12.750
   22BGLCN   O336302   0.161   1.064  12.875
   22BGLCN   C436303  -0.034   1.118  12.724
   22BGLCN   H436304  -0.003   1.223  12.703
   22BGLCN   O436305  -0.128   1.122  12.829
   22BGLCN  HO436306  -0.181   1.201  12.816
   22BGLCN   C636307  -0.230   1.121  12.557
   22BGLCN  H6136308  -0.306   1.099  12.634
   22BGLCN  H6236309  -0.222   1.231  12.547
   22BGLCN   O636310  -0.275   1.066  12.432
   22BGLCN  HO636311  -0.212   1.087  12.363
   23AGAL    C136312   0.111   1.001  12.991
   23AGAL    H136313   0.018   1.052  13.022
   23AGAL    C536314   0.194   0.784  12.937
   23AGAL    H536315   0.251   0.834  12.856
   23AGAL    O536316   0.077   0.863  12.967
   23AGAL    C236317   0.207   1.010  13.109
   23AGAL    H236318   0.155   0.972  13.200
   23AGAL    O236319   0.248   1.147  13.127
   23AGAL    C336320   0.330   0.924  13.086
   23AGAL    H336321   0.387   0.965  13.000
   23AGAL    O336322   0.415   0.925  13.200
   23AGAL   HO336323   0.377   0.862  13.262
   23AGAL    C436324   0.287   0.780  13.057
   23AGAL    H436325   0.377   0.721  13.031
   23AGAL    O436326   0.223   0.717  13.168
   23AGAL   HO436327   0.174   0.645  13.130
   23AGAL    C636328   0.154   0.650  12.877
   23AGAL   H6136329   0.095   0.669  12.786
   23AGAL   H6236330   0.245   0.594  12.846
   23AGAL    O636331   0.076   0.569  12.965
   23AGAL   HO636332   0.026   0.506  12.911
   24ARHM    C136333   0.178   1.222  13.221
   24ARHM    H136334   0.074   1.182  13.227
   24ARHM    C536335   0.288   1.430  13.182
   24ARHM    H536336   0.354   1.383  13.106
   24ARHM    O536337   0.163   1.360  13.186
   24ARHM    C236338   0.244   1.208  13.356
   24ARHM    H236339   0.262   1.100  13.377
   24ARHM    O236340   0.159   1.263  13.457
   24ARHM    C336341   0.378   1.278  13.354
   24ARHM    H336342   0.443   1.231  13.277
   24ARHM    O336343   0.445   1.264  13.479
   24ARHM   HO336344   0.517   1.327  13.481
   24ARHM    C436345   0.357   1.423  13.318
   24ARHM    H436346   0.291   1.470  13.394
   24ARHM    O436347   0.480   1.496  13.315
   24ARHM   HO436348   0.463   1.590  13.319
   24ARHM    C636349   0.256   1.573  13.135
   24ARHM   H6136350   0.350   1.630  13.118
   24ARHM   H6236351   0.200   1.571  13.040
   24ARHM   H6336352   0.195   1.627  13.211
   25ARHM    C136353   0.057   1.178  13.500
   25ARHM    H136354   0.044   1.094  13.429
   25ARHM    C536355  -0.067   1.352  13.604
   25ARHM    H536356   0.012   1.426  13.578
   25ARHM    O536357  -0.069   1.247  13.505
   25ARHM    C236358   0.096   1.119  13.634
   25ARHM    H236359   0.198   1.076  13.625
   25ARHM    O236360   0.004   1.018  13.679
   25ARHM    C336361   0.100   1.230  13.734
   25ARHM    H336362   0.174   1.306  13.700
   25ARHM    O336363   0.143   1.178  13.859
   25ARHM    C436364  -0.037   1.294  13.741
   25ARHM    H436365  -0.112   1.215  13.765
   25ARHM    O436366  -0.046   1.391  13.845
   25ARHM   HO436367  -0.138   1.415  13.857
   25ARHM    C636368  -0.202   1.425  13.595
   25ARHM   H6136369  -0.224   1.456  13.491
   25ARHM   H6236370  -0.285   1.359  13.628
   25ARHM   H6336371  -0.201   1.516  13.658
   26BMANN   C136372   0.023   0.891  13.621
   26BMANN   H136373   0.130   0.873  13.595
   26BMANN   C536374  -0.046   0.746  13.446
   26BMANN   H536375   0.061   0.734  13.416
   26BMANN   O536376  -0.061   0.875  13.506
   26BMANN   C236377  -0.024   0.789  13.724
   26BMANN   H236378   0.043   0.799  13.811
   26BMANN    N36379  -0.163   0.811  13.762
   26BMANN   HN36380  -0.225   0.834  13.687
   26BMANN    C36381  -0.215   0.792  13.883
   26BMANN    O36382  -0.146   0.768  13.981
   26BMANN   CT36383  -0.364   0.803  13.894
   26BMANN  HT136384  -0.412   0.770  13.800
   26BMANN  HT236385  -0.391   0.909  13.913
   26BMANN  HT336386  -0.400   0.739  13.977
   26BMANN   C336387  -0.000   0.649  13.668
   26BMANN   H336388   0.107   0.639  13.640
   26BMANN   O336389  -0.027   0.550  13.766
   26BMANN  HO336390   0.027   0.569  13.842
   26BMANN   C436391  -0.084   0.635  13.544
   26BMANN   H436392  -0.191   0.645  13.572
   26BMANN   O436393  -0.070   0.506  13.484
   26BMANN  HO436394  -0.133   0.447  13.526
   26BMANN   C636395  -0.128   0.746  13.318
   26BMANN  H6136396  -0.134   0.850  13.277
   26BMANN  H6236397  -0.077   0.685  13.241
   26BMANN   O636398  -0.260   0.695  13.338
   26BMANN  HO636399  -0.252   0.605  13.370
   27BGLCN   C136400   0.233   1.261  13.927
   27BGLCN   H136401   0.211   1.368  13.908
   27BGLCN   C536402   0.462   1.309  13.963
   27BGLCN   H536403   0.436   1.416  13.950
   27BGLCN   O536404   0.366   1.230  13.891
   27BGLCN   C236405   0.210   1.229  14.072
   27BGLCN   H236406   0.230   1.121  14.089
   27BGLCN    N36407   0.067   1.254  14.096
   27BGLCN   HN36408   0.023   1.300  14.019
   27BGLCN    C36409  -0.013   1.189  14.182
   27BGLCN    O36410   0.026   1.129  14.281
   27BGLCN   CT36411  -0.159   1.191  14.148
   27BGLCN  HT136412  -0.191   1.291  14.111
   27BGLCN  HT236413  -0.219   1.164  14.238
   27BGLCN  HT336414  -0.179   1.116  14.068
   27BGLCN   C336415   0.309   1.308  14.156
   27BGLCN   H336416   0.292   1.416  14.140
   27BGLCN   O336417   0.280   1.274  14.293
   27BGLCN   C436418   0.451   1.276  14.110
   27BGLCN   H436419   0.469   1.167  14.123
   27BGLCN   O436420   0.552   1.345  14.182
   27BGLCN  HO436421   0.540   1.440  14.175
   27BGLCN   C636422   0.598   1.290  13.898
   27BGLCN  H6136423   0.676   1.346  13.954
   27BGLCN  H6236424   0.626   1.182  13.898
   27BGLCN   O636425   0.595   1.339  13.763
   27BGLCN  HO636426   0.678   1.321  13.718
   28AGAL    C136427   0.346   1.344  14.396
   28AGAL    H136428   0.450   1.307  14.407
   28AGAL    C536429   0.215   1.544  14.365
   28AGAL    H536430   0.160   1.492  14.283
   28AGAL    O536431   0.348   1.487  14.372
   28AGAL    C236432   0.274   1.317  14.527
   28AGAL    H236433   0.326   1.381  14.601
   28AGAL    O236434   0.276   1.180  14.573
   28AGAL    C336435   0.132   1.369  14.513
   28AGAL    H336436   0.087   1.322  14.423
   28AGAL    O336437   0.050   1.329  14.621
   28AGAL   HO336438   0.062   1.234  14.628
   28AGAL    C436439   0.134   1.519  14.492
   28AGAL    H436440   0.030   1.552  14.473
   28AGAL    O436441   0.182   1.592  14.604
   28AGAL   HO436442   0.129   1.671  14.612
   28AGAL    C636443   0.221   1.690  14.323
   28AGAL   H6136444   0.249   1.695  14.215
   28AGAL   H6236445   0.121   1.737  14.333
   28AGAL    O636446   0.317   1.766  14.396
   28AGAL   HO636447   0.323   1.733  14.486
   29ARHM    C136448   0.313   1.172  14.710
   29ARHM    H136449   0.263   1.256  14.763
   29ARHM    C536450   0.527   1.078  14.664
   29ARHM    H536451   0.501   1.074  14.556
   29ARHM    O536452   0.454   1.185  14.726
   29ARHM    C236453   0.267   1.042  14.777
   29ARHM    H236454   0.159   1.028  14.754
   29ARHM    O236455   0.284   1.045  14.921
   29ARHM    C336456   0.340   0.925  14.716
   29ARHM    H336457   0.315   0.919  14.608
   29ARHM    O336458   0.300   0.802  14.777
   29ARHM   HO336459   0.357   0.733  14.743
   29ARHM    C436460   0.490   0.946  14.730
   29ARHM    H436461   0.516   0.952  14.838
   29ARHM    O436462   0.564   0.837  14.673
   29ARHM   HO436463   0.615   0.870  14.599
   29ARHM    C636464   0.676   1.114  14.676
   29ARHM   H6136465   0.694   1.215  14.633
   29ARHM   H6236466   0.705   1.115  14.783
   29ARHM   H6336467   0.740   1.041  14.622
   30ARHM    C136468   0.178   1.101  14.994
   30ARHM    H136469   0.082   1.055  14.961
   30ARHM    C536470   0.296   1.308  15.016
   30ARHM    H536471   0.381   1.265  14.959
   30ARHM    O536472   0.173   1.244  14.977
   30ARHM    C236473   0.196   1.072  15.143
   30ARHM    H236474   0.210   0.962  15.154
   30ARHM    O236475   0.077   1.113  15.215
   30ARHM    C336476   0.325   1.139  15.191
   30ARHM    H336477   0.407   1.095  15.131
   30ARHM    O336478   0.356   1.107  15.329
   30ARHM    C436479   0.323   1.287  15.164
   30ARHM    H436480   0.245   1.338  15.224
   30ARHM    O436481   0.449   1.345  15.194
   30ARHM   HO436482   0.506   1.280  15.236
   30ARHM    C636483   0.282   1.457  14.977
   30ARHM   H6136484   0.375   1.512  15.003
   30ARHM   H6236485   0.266   1.466  14.867
   30ARHM   H6336486   0.198   1.505  15.030
   31BMANN   C136487  -0.012   1.010  15.255
   31BMANN   H136488   0.045   0.918  15.283
   31BMANN   C536489  -0.203   0.875  15.197
   31BMANN   H536490  -0.146   0.782  15.217
   31BMANN   O536491  -0.112   0.980  15.156
   31BMANN   C236492  -0.087   1.062  15.376
   31BMANN   H236493  -0.011   1.081  15.455
   31BMANN    N36494  -0.163   1.185  15.350
   31BMANN   HN36495  -0.233   1.182  15.279
   31BMANN    C36496  -0.157   1.294  15.427
   31BMANN    O36497  -0.069   1.309  15.511
   31BMANN   CT36498  -0.262   1.400  15.406
   31BMANN  HT136499  -0.333   1.368  15.328
   31BMANN  HT236500  -0.215   1.496  15.376
   31BMANN  HT336501  -0.317   1.415  15.501
   31BMANN   C336502  -0.178   0.953  15.430
   31BMANN   H336503  -0.116   0.864  15.454
   31BMANN   O336504  -0.240   0.996  15.551
   31BMANN  HO336505  -0.257   0.922  15.609
   31BMANN   C436506  -0.278   0.917  15.323
   31BMANN   H436507  -0.342   1.005  15.300
   31BMANN   O436508  -0.365   0.812  15.367
   31BMANN  HO436509  -0.442   0.808  15.311
   31BMANN   C636510  -0.299   0.850  15.082
   31BMANN  H6136511  -0.384   0.787  15.117
   31BMANN  H6236512  -0.342   0.946  15.046
   31BMANN   O636513  -0.239   0.781  14.973
   31BMANN  HO636514  -0.170   0.832  14.930
   32BGLCN   C136515   0.290   1.176  15.432
   32BGLCN   H136516   0.181   1.179  15.413
   32BGLCN   C536517   0.264   1.378  15.558
   32BGLCN   H536518   0.157   1.383  15.530
   32BGLCN   O536519   0.337   1.310  15.455
   32BGLCN   C236520   0.317   1.101  15.561
   32BGLCN   H236521   0.423   1.127  15.585
   32BGLCN    N36522   0.314   0.956  15.543
   32BGLCN   HN36523   0.252   0.919  15.474
   32BGLCN    C36524   0.407   0.875  15.597
   32BGLCN    O36525   0.491   0.913  15.677
   32BGLCN   CT36526   0.402   0.731  15.553
   32BGLCN  HT136527   0.336   0.720  15.464
   32BGLCN  HT236528   0.363   0.667  15.636
   32BGLCN  HT336529   0.504   0.698  15.526
   32BGLCN   C336530   0.232   1.160  15.673
   32BGLCN   H336531   0.126   1.159  15.639
   32BGLCN   O336532   0.242   1.085  15.795
   32BGLCN   C436533   0.277   1.304  15.691
   32BGLCN   H436534   0.383   1.305  15.724
   32BGLCN   O436535   0.198   1.370  15.789
   32BGLCN  HO436536   0.251   1.435  15.835
   32BGLCN   C636537   0.316   1.522  15.565
   32BGLCN  H6136538   0.261   1.579  15.643
   32BGLCN  H6236539   0.424   1.520  15.595
   32BGLCN   O636540   0.305   1.591  15.441
   32BGLCN  HO636541   0.213   1.592  15.411
   33AGAL    C136542   0.119   1.067  15.863
   33AGAL    H136543   0.060   1.161  15.861
   33AGAL    C536544   0.110   0.834  15.810
   33AGAL    H536545   0.208   0.849  15.761
   33AGAL    O536546   0.041   0.961  15.805
   33AGAL    C236547   0.144   1.029  16.008
   33AGAL    H236548   0.043   1.008  16.050
   33AGAL    O236549   0.200   1.138  16.083
   33AGAL    C336550   0.224   0.900  16.016
   33AGAL    H336551   0.316   0.915  15.956
   33AGAL    O336552   0.268   0.869  16.148
   33AGAL   HO336553   0.192   0.851  16.204
   33AGAL    C436554   0.142   0.789  15.953
   33AGAL    H436555   0.204   0.697  15.949
   33AGAL    O436556   0.024   0.759  16.028
   33AGAL   HO436557  -0.030   0.705  15.970
   33AGAL    C636558   0.037   0.733  15.723
   33AGAL   H6136559  -0.001   0.783  15.631
   33AGAL   H6236560   0.111   0.657  15.689
   33AGAL    O636561  -0.071   0.665  15.788
   33AGAL   HO636562  -0.152   0.714  15.776
   34ARHM    C136563   0.130   1.161  16.202
   34ARHM    H136564   0.115   1.065  16.255
   34ARHM    C536565   0.011   1.345  16.106
   34ARHM    H536566   0.061   1.329  16.008
   34ARHM    O536567   0.002   1.221  16.177
   34ARHM    C236568   0.212   1.255  16.289
   34ARHM    H236569   0.312   1.210  16.303
   34ARHM    O236570   0.154   1.277  16.420
   34ARHM    C336571   0.230   1.387  16.216
   34ARHM    H336572   0.282   1.369  16.120
   34ARHM    O336573   0.308   1.479  16.291
   34ARHM   HO336574   0.264   1.564  16.281
   34ARHM    C436575   0.093   1.444  16.187
   34ARHM    H436576   0.041   1.459  16.284
   34ARHM    O436577   0.100   1.572  16.123
   34ARHM   HO436578   0.021   1.622  16.146
   34ARHM    C636579  -0.134   1.388  16.082
   34ARHM   H6136580  -0.187   1.400  16.179
   34ARHM   H6236581  -0.138   1.484  16.027
   34ARHM   H6336582  -0.188   1.311  16.023
   35ARHM    C136583   0.129   1.161  16.497
   35ARHM    H136584   0.205   1.083  16.475
   35ARHM    C536585  -0.105   1.206  16.495
   35ARHM    H536586  -0.086   1.292  16.428
   35ARHM    O536587  -0.003   1.108  16.474
   35ARHM    C236588   0.139   1.202  16.643
   35ARHM    H236589   0.236   1.253  16.657
   35ARHM    O236590   0.132   1.090  16.734
   35ARHM    C336591   0.033   1.306  16.675
   35ARHM    H336592   0.053   1.397  16.614
   35ARHM    O336593   0.039   1.342  16.813
   35ARHM   HO336594   0.048   1.437  16.825
   35ARHM    C436595  -0.104   1.251  16.641
   35ARHM    H436596  -0.126   1.163  16.706
   35ARHM    O436597  -0.204   1.351  16.663
   35ARHM   HO436598  -0.197   1.377  16.756
   35ARHM    C636599  -0.239   1.145  16.450
   35ARHM   H6136600  -0.231   1.109  16.345
   35ARHM   H6236601  -0.266   1.058  16.514
   35ARHM   H6336602  -0.321   1.220  16.455
   36BMANN   C136603   0.248   1.011  16.734
   36BMANN   H136604   0.333   1.067  16.689
   36BMANN   C536605   0.349   0.811  16.656
   36BMANN   H536606   0.427   0.874  16.609
   36BMANN   O536607   0.228   0.889  16.662
   36BMANN   C236608   0.282   0.976  16.877
   36BMANN   H236609   0.301   1.074  16.927
   36BMANN    N36610   0.175   0.910  16.950
   36BMANN   HN36611   0.104   0.865  16.896
   36BMANN    C36612   0.168   0.906  17.084
   36BMANN    O36613   0.247   0.968  17.155
   36BMANN   CT36614   0.062   0.821  17.147
   36BMANN  HT136615   0.048   0.728  17.088
   36BMANN  HT236616  -0.034   0.876  17.153
   36BMANN  HT336617   0.093   0.793  17.249
   36BMANN   C336618   0.414   0.899  16.876
   36BMANN   H336619   0.491   0.962  16.827
   36BMANN   O336620   0.460   0.875  17.009
   36BMANN  HO336621   0.396   0.913  17.070
   36BMANN   C436622   0.396   0.772  16.796
   36BMANN   H436623   0.319   0.708  16.844
   36BMANN   O436624   0.518   0.697  16.788
   36BMANN  HO436625   0.556   0.692  16.876
   36BMANN   C636626   0.325   0.695  16.561
   36BMANN  H6136627   0.280   0.732  16.467
   36BMANN  H6236628   0.424   0.651  16.534
   36BMANN   O636629   0.243   0.592  16.617
   36BMANN  HO636630   0.268   0.509  16.576
    1ECLIP HB6S36631   1.420   0.173   6.667
    1ECLIP  OB636632   1.573   0.215   6.800
    1ECLIP  CB636633   1.478   0.262   6.701
    1ECLIP HB6R36634   1.406   0.333   6.747
    1ECLIP  CB536635   1.531   0.331   6.575
    1ECLIP  OB536636   1.640   0.254   6.526
    1ECLIP  HB536637   1.566   0.433   6.602
    1ECLIP  CB136638   1.701   0.308   6.408
    1ECLIP  HB136639   1.738   0.410   6.431
    1ECLIP  OA636640   1.811   0.229   6.366
    1ECLIP  CA636641   1.795   0.089   6.395
    1ECLIP HA6R36642   1.697   0.064   6.441
    1ECLIP HA6S36643   1.873   0.058   6.469
    1ECLIP  CB436644   1.425   0.336   6.464
    1ECLIP  HB436645   1.404   0.229   6.441
    1ECLIP  OB436646   1.309   0.406   6.512
    1ECLIP   PB36647   1.156   0.346   6.499
    1ECLIP OPB436648   1.086   0.379   6.630
    1ECLIP OPB336649   1.171   0.196   6.470
    1ECLIP OPB236650   1.086   0.423   6.389
    1ECLIP  CB336651   1.483   0.399   6.339
    1ECLIP  OB336652   1.384   0.402   6.233
    1ECLIP  HB336653   1.519   0.499   6.370
    1ECLIP  C7136654   1.393   0.510   6.155
    1ECLIP  O7136655   1.475   0.599   6.168
    1ECLIP  C7236656   1.318   0.499   6.023
    1ECLIP H72R36657   1.392   0.469   5.944
    1ECLIP H72S36658   1.286   0.603   5.999
    1ECLIP  CB236659   1.602   0.314   6.293
    1ECLIP  HB236660   1.563   0.211   6.278
    1ECLIP  NB236661   1.667   0.354   6.167
    1ECLIP HNB236662   1.749   0.409   6.175
    1ECLIP  CA436663   1.926   0.000   6.191
    1ECLIP  HA436664   1.934   0.099   6.142
    1ECLIP  OA436665   2.040  -0.016   6.275
    1ECLIP HOA436666   2.034  -0.101   6.320
    1ECLIP  CA536667   1.800   0.003   6.273
    1ECLIP  HA536668   1.781  -0.101   6.308
    1ECLIP  OA536669   1.693   0.039   6.186
    1ECLIP  CA136670   1.665  -0.061   6.087
    1ECLIP  HA136671   1.596  -0.014   6.013
    1ECLIP  OA136672   1.596  -0.170   6.151
    1ECLIP OPA236673   1.436  -0.109   6.365
    1ECLIP OPA336674   1.419   0.016   6.169
    1ECLIP OPA436675   1.335  -0.214   6.164
    1ECLIP   PA36676   1.446  -0.126   6.214
    1ECLIP  CA336677   1.913  -0.107   6.084
    1ECLIP  HA336678   1.893  -0.204   6.134
    1ECLIP  OA336679   2.039  -0.120   6.016
    1ECLIP  C3136680   2.087  -0.017   5.939
    1ECLIP  O3136681   2.109  -0.035   5.820
    1ECLIP  C3236682   2.204   0.048   6.018
    1ECLIP H32R36683   2.291   0.033   5.951
    1ECLIP H32S36684   2.225  -0.011   6.110
    1ECLIP  CA236685   1.791  -0.076   5.997
    1ECLIP  HA236686   1.809   0.024   5.951
    1ECLIP  NA236687   1.771  -0.173   5.888
    1ECLIP HNA236688   1.792  -0.268   5.911
    1ECLIP  C7336689   1.196   0.407   6.016
    1ECLIP H73R36690   1.147   0.401   6.116
    1ECLIP  O7336691   1.235   0.281   5.964
    1ECLIP  C8136692   1.232   0.175   6.040
    1ECLIP  O8136693   1.193   0.169   6.156
    1ECLIP  C8236694   1.251   0.050   5.953
    1ECLIP H82R36695   1.220  -0.036   6.016
    1ECLIP H82S36696   1.360   0.040   5.934
    1ECLIP  C8336697   1.176   0.042   5.819
    1ECLIP H83R36698   1.222   0.113   5.747
    1ECLIP H83S36699   1.069   0.071   5.833
    1ECLIP  C8436700   1.184  -0.102   5.767
    1ECLIP H84R36701   1.083  -0.147   5.761
    1ECLIP H84S36702   1.243  -0.163   5.839
    1ECLIP  C8536703   1.254  -0.110   5.631
    1ECLIP H85R36704   1.356  -0.068   5.641
    1ECLIP H85S36705   1.197  -0.048   5.559
    1ECLIP  C8636706   1.265  -0.255   5.580
    1ECLIP H86R36707   1.162  -0.293   5.561
    1ECLIP H86S36708   1.310  -0.318   5.660
    1ECLIP  C8736709   1.349  -0.267   5.452
    1ECLIP H87R36710   1.330  -0.366   5.405
    1ECLIP H87S36711   1.456  -0.264   5.481
    1ECLIP  C8836712   1.323  -0.154   5.353
    1ECLIP H88R36713   1.360  -0.059   5.398
    1ECLIP H88S36714   1.214  -0.143   5.337
    1ECLIP  C8936715   1.394  -0.171   5.219
    1ECLIP H89R36716   1.500  -0.197   5.234
    1ECLIP H89S36717   1.391  -0.070   5.171
    1ECLIP C81036718   1.325  -0.273   5.127
    1ECLIPH810R36719   1.216  -0.275   5.151
    1ECLIPH810S36720   1.364  -0.374   5.151
    1ECLIP C81136721   1.341  -0.247   4.976
    1ECLIPH811R36722   1.286  -0.325   4.920
    1ECLIPH811S36723   1.449  -0.258   4.951
    1ECLIP C81236724   1.294  -0.108   4.927
    1ECLIPH812R36725   1.315  -0.098   4.819
    1ECLIPH812S36726   1.354  -0.029   4.978
    1ECLIP C81336727   1.145  -0.079   4.952
    1ECLIPH813R36728   1.085  -0.128   4.872
    1ECLIPH813S36729   1.113  -0.123   5.049
    1ECLIP C81436730   1.114   0.071   4.958
    1ECLIPH814R36731   1.158   0.123   4.872
    1ECLIPH814S36732   1.157   0.115   5.050
    1ECLIPH814T36733   1.004   0.088   4.960
    1ECLIP  C7436734   1.093   0.460   5.912
    1ECLIP H74R36735   1.069   0.566   5.936
    1ECLIP H74S36736   1.001   0.400   5.929
    1ECLIP  C7536737   1.131   0.445   5.762
    1ECLIP H75R36738   1.036   0.445   5.704
    1ECLIP H75S36739   1.178   0.346   5.747
    1ECLIP  C7636740   1.222   0.553   5.700
    1ECLIP H76R36741   1.319   0.556   5.753
    1ECLIP H76S36742   1.174   0.652   5.712
    1ECLIP  C7736743   1.249   0.525   5.551
    1ECLIP H77R36744   1.152   0.508   5.499
    1ECLIP H77S36745   1.308   0.431   5.543
    1ECLIP  C7836746   1.325   0.637   5.479
    1ECLIP H78R36747   1.261   0.727   5.473
    1ECLIP H78S36748   1.415   0.664   5.538
    1ECLIP  C7936749   1.372   0.600   5.337
    1ECLIP H79R36750   1.455   0.526   5.344
    1ECLIP H79S36751   1.414   0.691   5.288
    1ECLIP C71036752   1.263   0.540   5.247
    1ECLIPH710R36753   1.228   0.444   5.289
    1ECLIPH710S36754   1.176   0.610   5.242
    1ECLIP C71136755   1.312   0.514   5.102
    1ECLIPH711R36756   1.347   0.610   5.058
    1ECLIPH711S36757   1.399   0.445   5.108
    1ECLIP C71236758   1.204   0.452   5.013
    1ECLIPH712R36759   1.121   0.525   5.000
    1ECLIPH712S36760   1.162   0.363   5.065
    1ECLIP C71336761   1.255   0.407   4.875
    1ECLIPH713R36762   1.330   0.327   4.891
    1ECLIPH713S36763   1.171   0.363   4.818
    1ECLIP C71436764   1.320   0.518   4.792
    1ECLIPH714R36765   1.248   0.601   4.776
    1ECLIPH714S36766   1.410   0.558   4.842
    1ECLIPH714T36767   1.351   0.479   4.693
    1ECLIP  C5136768   1.624   0.316   6.044
    1ECLIP  O5136769   1.522   0.251   6.030
    1ECLIP  C5236770   1.706   0.361   5.924
    1ECLIP H52R36771   1.689   0.470   5.910
    1ECLIP H52S36772   1.812   0.343   5.950
    1ECLIP  C5336773   1.673   0.283   5.795
    1ECLIP H53R36774   1.675   0.174   5.818
    1ECLIP  O5336775   1.767   0.320   5.693
    1ECLIP  C6136776   1.867   0.234   5.672
    1ECLIP  O6136777   1.909   0.158   5.757
    1ECLIP  C6236778   1.955   0.291   5.559
    1ECLIP H62R36779   2.035   0.352   5.606
    1ECLIP H62S36780   1.892   0.357   5.497
    1ECLIP  C6336781   2.022   0.183   5.470
    1ECLIP H63R36782   1.943   0.120   5.424
    1ECLIP H63S36783   2.084   0.117   5.535
    1ECLIP  C6436784   2.109   0.239   5.356
    1ECLIP H64R36785   2.169   0.156   5.313
    1ECLIP H64S36786   2.181   0.313   5.398
    1ECLIP  C6536787   2.027   0.303   5.243
    1ECLIP H65R36788   1.967   0.386   5.288
    1ECLIP H65S36789   1.954   0.229   5.204
    1ECLIP  C6636790   2.109   0.362   5.128
    1ECLIP H66R36791   2.183   0.435   5.170
    1ECLIP H66S36792   2.041   0.420   5.062
    1ECLIP  C6736793   2.184   0.259   5.042
    1ECLIP H67R36794   2.265   0.212   5.101
    1ECLIP H67S36795   2.232   0.314   4.957
    1ECLIP  C6836796   2.093   0.150   4.984
    1ECLIP H68R36797   2.000   0.196   4.944
    1ECLIP H68S36798   2.064   0.080   5.065
    1ECLIP  C6936799   2.161   0.072   4.870
    1ECLIP H69R36800   2.258   0.032   4.907
    1ECLIP H69S36801   2.183   0.144   4.789
    1ECLIP C61036802   2.078  -0.045   4.816
    1ECLIPH610R36803   1.973  -0.012   4.802
    1ECLIPH610S36804   2.077  -0.126   4.892
    1ECLIP C61136805   2.130  -0.101   4.683
    1ECLIPH611R36806   2.238  -0.125   4.695
    1ECLIPH611S36807   2.077  -0.196   4.662
    1ECLIP C61236808   2.110  -0.005   4.565
    1ECLIPH612R36809   2.002   0.017   4.551
    1ECLIPH612S36810   2.165   0.090   4.582
    1ECLIPH612T36811   2.149  -0.052   4.472
    1ECLIP  C5436812   1.533   0.314   5.735
    1ECLIP H54R36813   1.529   0.422   5.708
    1ECLIP H54S36814   1.455   0.295   5.811
    1ECLIP  C5536815   1.496   0.228   5.612
    1ECLIP H55R36816   1.386   0.235   5.597
    1ECLIP H55S36817   1.519   0.122   5.634
    1ECLIP  C5636818   1.565   0.272   5.483
    1ECLIP H56R36819   1.674   0.252   5.488
    1ECLIP H56S36820   1.551   0.381   5.469
    1ECLIP  C5736821   1.514   0.198   5.358
    1ECLIP H57R36822   1.404   0.214   5.348
    1ECLIP H57S36823   1.532   0.089   5.372
    1ECLIP  C5836824   1.585   0.245   5.231
    1ECLIP H58R36825   1.570   0.354   5.220
    1ECLIP H58S36826   1.695   0.228   5.242
    1ECLIP  C5936827   1.535   0.172   5.108
    1ECLIP H59R36828   1.424   0.181   5.101
    1ECLIP H59S36829   1.560   0.064   5.117
    1ECLIP C51036830   1.597   0.226   4.978
    1ECLIPH510R36831   1.707   0.221   4.988
    1ECLIPH510S36832   1.569   0.333   4.966
    1ECLIP C51136833   1.551   0.146   4.856
    1ECLIPH511R36834   1.585   0.041   4.870
    1ECLIPH511S36835   1.440   0.144   4.851
    1ECLIP C51236836   1.607   0.199   4.724
    1ECLIPH512R36837   1.575   0.131   4.642
    1ECLIPH512S36838   1.564   0.300   4.704
    1ECLIP C51336839   1.759   0.209   4.724
    1ECLIPH513R36840   1.801   0.113   4.762
    1ECLIPH513S36841   1.792   0.289   4.794
    1ECLIP C51436842   1.818   0.237   4.587
    1ECLIPH514R36843   1.782   0.334   4.547
    1ECLIPH514S36844   1.929   0.240   4.594
    1ECLIPH514T36845   1.790   0.157   4.514
    1ECLIP  C3336846   2.198   0.202   6.047
    1ECLIP H33R36847   2.298   0.244   6.021
    1ECLIP  O3336848   2.175   0.223   6.188
    1ECLIP HO3336849   2.111   0.160   6.221
    1ECLIP  C3436850   2.093   0.276   5.962
    1ECLIP H34R36851   1.993   0.228   5.976
    1ECLIP H34S36852   2.123   0.260   5.856
    1ECLIP  C3536853   2.073   0.428   5.983
    1ECLIP H35R36854   2.166   0.477   6.019
    1ECLIP H35S36855   1.996   0.443   6.061
    1ECLIP  C3636856   2.027   0.498   5.852
    1ECLIP H36R36857   1.949   0.432   5.807
    1ECLIP H36S36858   2.111   0.504   5.780
    1ECLIP  C3736859   1.960   0.636   5.866
    1ECLIP H37R36860   2.037   0.715   5.870
    1ECLIP H37S36861   1.904   0.639   5.962
    1ECLIP  C3836862   1.857   0.668   5.754
    1ECLIP H38R36863   1.775   0.594   5.759
    1ECLIP H38S36864   1.813   0.768   5.773
    1ECLIP  C3936865   1.912   0.666   5.610
    1ECLIP H39R36866   1.956   0.566   5.590
    1ECLIP H39S36867   1.994   0.741   5.599
    1ECLIP C31036868   1.804   0.693   5.503
    1ECLIPH310R36869   1.777   0.801   5.504
    1ECLIPH310S36870   1.713   0.636   5.528
    1ECLIP C31136871   1.849   0.652   5.362
    1ECLIPH311R36872   1.947   0.699   5.339
    1ECLIPH311S36873   1.864   0.542   5.365
    1ECLIP C31236874   1.750   0.685   5.249
    1ECLIPH312R36875   1.649   0.645   5.276
    1ECLIPH312S36876   1.741   0.795   5.240
    1ECLIP C31336877   1.792   0.624   5.115
    1ECLIPH313R36878   1.894   0.660   5.090
    1ECLIPH313S36879   1.797   0.514   5.125
    1ECLIP C31436880   1.698   0.658   4.998
    1ECLIPH314R36881   1.694   0.768   4.983
    1ECLIPH314S36882   1.733   0.610   4.905
    1ECLIPH314T36883   1.595   0.622   5.019
    1ECLIP  C1136884   1.730  -0.145   5.762
    1ECLIP  O1136885   1.695  -0.033   5.727
    1ECLIP  C1236886   1.724  -0.259   5.662
    1ECLIP H12R36887   1.629  -0.314   5.679
    1ECLIP H12S36888   1.810  -0.327   5.681
    1ECLIP  C1336889   1.731  -0.208   5.516
    1ECLIP H13R36890   1.652  -0.132   5.498
    1ECLIP  O1336891   1.704  -0.319   5.432
    1ECLIP HO1336892   1.717  -0.299   5.339
    1ECLIP  C1436893   1.868  -0.151   5.476
    1ECLIP H14R36894   1.946  -0.212   5.525
    1ECLIP H14S36895   1.876  -0.049   5.518
    1ECLIP  C1536896   1.902  -0.152   5.323
    1ECLIP H15R36897   1.906  -0.257   5.289
    1ECLIP H15S36898   2.005  -0.111   5.311
    1ECLIP  C1636899   1.808  -0.072   5.231
    1ECLIP H16R36900   1.829   0.036   5.245
    1ECLIP H16S36901   1.702  -0.088   5.260
    1ECLIP  C1736902   1.824  -0.108   5.082
    1ECLIP H17R36903   1.932  -0.115   5.059
    1ECLIP H17S36904   1.782  -0.026   5.020
    1ECLIP  C1836905   1.754  -0.239   5.043
    1ECLIP H18R36906   1.792  -0.320   5.108
    1ECLIP H18S36907   1.645  -0.229   5.064
    1ECLIP  C1936908   1.773  -0.284   4.896
    1ECLIP H19R36909   1.729  -0.386   4.888
    1ECLIP H19S36910   1.881  -0.293   4.873
    1ECLIP C11036911   1.703  -0.195   4.792
    1ECLIPH110R36912   1.602  -0.168   4.832
    1ECLIPH110S36913   1.760  -0.101   4.780
    1ECLIP C11136914   1.683  -0.265   4.657
    1ECLIPH111R36915   1.782  -0.291   4.613
    1ECLIPH111S36916   1.628  -0.360   4.674
    1ECLIP C11236917   1.603  -0.181   4.557
    1ECLIPH112R36918   1.507  -0.150   4.605
    1ECLIPH112S36919   1.659  -0.089   4.532
    1ECLIP C11336920   1.570  -0.258   4.429
    1ECLIPH113R36921   1.665  -0.289   4.379
    1ECLIPH113S36922   1.515  -0.351   4.455
    1ECLIP C11436923   1.485  -0.177   4.329
    1ECLIPH114R36924   1.391  -0.144   4.378
    1ECLIPH114S36925   1.541  -0.087   4.296
    1ECLIPH114T36926   1.459  -0.238   4.240
    2AKDO    C136927   1.651   0.430   6.874
    2AKDO   O1136928   1.592   0.536   6.910
    2AKDO   O1236929   1.772   0.419   6.839
    2AKDO    C236930   1.583   0.296   6.917
    2AKDO    C636931   1.389   0.200   7.017
    2AKDO    H636932   1.396   0.130   6.931
    2AKDO    O636933   1.453   0.322   6.976
    2AKDO    C336934   1.666   0.220   7.023
    2AKDO   H3136935   1.687   0.288   7.108
    2AKDO   H3236936   1.762   0.193   6.972
    2AKDO    C436937   1.601   0.094   7.071
    2AKDO    H436938   1.584   0.028   6.983
    2AKDO    O436939   1.680   0.025   7.170
    2AKDO    C536940   1.465   0.128   7.130
    2AKDO    H536941   1.415   0.029   7.143
    2AKDO    O536942   1.477   0.194   7.259
    2AKDO    C736943   1.240   0.227   7.030
    2AKDO    H736944   1.219   0.301   7.110
    2AKDO    O736945   1.169   0.105   7.052
    2AKDO   HO736946   1.191   0.050   6.976
    2AKDO    C836947   1.195   0.289   6.896
    2AKDO   H8136948   1.250   0.384   6.880
    2AKDO   H8236949   1.221   0.220   6.813
    2AKDO    O836950   1.056   0.321   6.884
    2AKDO   HO836951   1.055   0.341   6.789
    3AKDO    C136952   1.739  -0.161   7.023
    3AKDO   O1136953   1.815  -0.188   6.925
    3AKDO   O1236954   1.643  -0.232   7.066
    3AKDO    C236955   1.789  -0.054   7.125
    3AKDO    C636956   1.949   0.117   7.186
    3AKDO    H636957   1.864   0.180   7.220
    3AKDO    O636958   1.902   0.027   7.082
    3AKDO    C336959   1.836  -0.134   7.247
    3AKDO   H3136960   1.916  -0.204   7.212
    3AKDO   H3236961   1.751  -0.196   7.282
    3AKDO    C436962   1.887  -0.050   7.358
    3AKDO    H436963   1.805   0.015   7.394
    3AKDO    O436964   1.926  -0.141   7.460
    3AKDO   HO436965   1.917  -0.098   7.545
    3AKDO    C536966   2.000   0.037   7.306
    3AKDO    H536967   2.029   0.107   7.386
    3AKDO    O536968   2.117  -0.035   7.269
    3AKDO   HO536969   2.100  -0.077   7.184
    3AKDO    C736970   2.056   0.212   7.132
    3AKDO    H736971   2.146   0.153   7.102
    3AKDO    O736972   2.094   0.308   7.231
    3AKDO   HO736973   2.148   0.369   7.181
    3AKDO    C836974   2.007   0.287   7.010
    3AKDO   H8136975   1.973   0.216   6.932
    3AKDO   H8236976   1.922   0.353   7.037
    3AKDO    O836977   2.113   0.367   6.957
    3AKDO   HO836978   2.069   0.430   6.898
    4AHEP    C136979   1.365   0.184   7.344
    4AHEP    H136980   1.286   0.250   7.301
    4AHEP    C536981   1.400  -0.042   7.412
    4AHEP    H536982   1.498  -0.033   7.361
    4AHEP    O536983   1.310   0.051   7.351
    4AHEP    C236984   1.388   0.232   7.488
    4AHEP    H236985   1.441   0.329   7.480
    4AHEP    O236986   1.265   0.256   7.557
    4AHEP   HO236987   1.230   0.170   7.582
    4AHEP    C336988   1.480   0.137   7.565
    4AHEP    H336989   1.581   0.140   7.520
    4AHEP    O336990   1.482   0.173   7.707
    4AHEP    C436991   1.423  -0.004   7.561
    4AHEP    H436992   1.327  -0.009   7.616
    4AHEP    O436993   1.522  -0.089   7.620
    4AHEP    P436994   1.496  -0.226   7.707
    4AHEP  OP4236995   1.629  -0.265   7.766
    4AHEP  OP4336996   1.456  -0.335   7.608
    4AHEP  OP4436997   1.388  -0.200   7.809
    4AHEP    C636998   1.352  -0.184   7.384
    4AHEP    H636999   1.442  -0.249   7.395
    4AHEP    O637000   1.251  -0.224   7.477
    4AHEP   HO637001   1.303  -0.263   7.549
    4AHEP    C737002   1.302  -0.209   7.242
    4AHEP   H7137003   1.293  -0.318   7.227
    4AHEP   H7237004   1.378  -0.175   7.169
    4AHEP    O737005   1.177  -0.145   7.214
    4AHEP   HO737006   1.198  -0.052   7.219
    5AHEP    C137007   1.604   0.217   7.763
    5AHEP    H137008   1.688   0.163   7.715
    5AHEP    C537009   1.523   0.438   7.812
    5AHEP    H537010   1.425   0.412   7.767
    5AHEP    O537011   1.625   0.358   7.748
    5AHEP    C237012   1.605   0.188   7.913
    5AHEP    H237013   1.583   0.079   7.925
    5AHEP    O237014   1.734   0.212   7.970
    5AHEP   HO237015   1.804   0.187   7.910
    5AHEP    C337016   1.495   0.266   7.986
    5AHEP    H337017   1.396   0.238   7.945
    5AHEP    O337018   1.497   0.242   8.129
    5AHEP    C437019   1.517   0.414   7.964
    5AHEP    H437020   1.611   0.448   8.012
    5AHEP    O437021   1.405   0.491   8.007
    5AHEP    P437022   1.388   0.571   8.149
    5AHEP  OP4237023   1.283   0.677   8.120
    5AHEP  OP4337024   1.520   0.635   8.186
    5AHEP  OP4437025   1.334   0.472   8.252
    5AHEP    C637026   1.557   0.583   7.773
    5AHEP    H637027   1.475   0.648   7.811
    5AHEP    O637028   1.682   0.623   7.832
    5AHEP   HO637029   1.742   0.589   7.766
    5AHEP    C737030   1.567   0.595   7.622
    5AHEP   H7137031   1.518   0.689   7.590
    5AHEP   H7237032   1.511   0.514   7.570
    5AHEP    O737033   1.704   0.602   7.578
    6AHEP    C137034   1.741   0.497   7.492
    6AHEP    H137035   1.684   0.404   7.516
    6AHEP    C537036   1.795   0.648   7.313
    6AHEP    H537037   1.763   0.732   7.378
    6AHEP    O537038   1.722   0.530   7.354
    6AHEP    C237039   1.888   0.469   7.520
    6AHEP    H237040   1.897   0.458   7.630
    6AHEP    O237041   1.932   0.344   7.466
    6AHEP   HO237042   1.965   0.354   7.377
    6AHEP    C337043   1.970   0.590   7.481
    6AHEP    H337044   1.935   0.677   7.542
    6AHEP    O337045   2.108   0.574   7.513
    6AHEP   HO337046   2.150   0.522   7.445
    6AHEP    C437047   1.945   0.625   7.335
    6AHEP    H437048   1.977   0.539   7.271
    6AHEP    O437049   2.019   0.740   7.295
    6AHEP   HO437050   2.042   0.728   7.202
    6AHEP    C637051   1.761   0.690   7.170
    6AHEP    H637052   1.812   0.787   7.149
    6AHEP    O637053   1.816   0.595   7.079
    6AHEP   HO637054   1.750   0.570   7.014
    6AHEP    C737055   1.612   0.714   7.145
    6AHEP   H7137056   1.599   0.753   7.042
    6AHEP   H7237057   1.576   0.793   7.214
    6AHEP    O737058   1.529   0.598   7.161
    6AHEP   HO737059   1.543   0.550   7.079
    7AGLC    C137060   1.427   0.130   8.177
    7AGLC    H137061   1.327   0.124   8.130
    7AGLC    C537062   1.630   0.009   8.215
    7AGLC    H537063   1.685   0.099   8.181
    7AGLC    O537064   1.500   0.008   8.153
    7AGLC    C237065   1.410   0.140   8.329
    7AGLC    H237066   1.362   0.045   8.362
    7AGLC    O237067   1.318   0.242   8.368
    7AGLC   HO237068   1.339   0.324   8.321
    7AGLC    C337069   1.544   0.149   8.401
    7AGLC    H337070   1.599   0.235   8.358
    7AGLC    O337071   1.535   0.166   8.544
    7AGLC    C437072   1.618   0.021   8.366
    7AGLC    H437073   1.559  -0.066   8.405
    7AGLC    O437074   1.747   0.014   8.424
    7AGLC   HO437075   1.777  -0.077   8.426
    7AGLC    C637076   1.711  -0.110   8.169
    7AGLC   H6137077   1.704  -0.118   8.058
    7AGLC   H6237078   1.817  -0.093   8.195
    7AGLC    O637079   1.668  -0.233   8.228
    7AGLC   HO637080   1.597  -0.268   8.175
    8AGLC    C137081   1.621   0.267   8.596
    8AGLC    H137082   1.721   0.262   8.546
    8AGLC    C537083   1.437   0.416   8.629
    8AGLC    H537084   1.372   0.337   8.587
    8AGLC    O537085   1.568   0.398   8.575
    8AGLC    C237086   1.636   0.252   8.748
    8AGLC    H237087   1.700   0.335   8.783
    8AGLC    O237088   1.696   0.128   8.790
    8AGLC    C337089   1.500   0.264   8.814
    8AGLC    H337090   1.434   0.186   8.770
    8AGLC    O337091   1.513   0.232   8.955
    8AGLC    C437092   1.441   0.400   8.781
    8AGLC    H437093   1.504   0.481   8.823
    8AGLC    O437094   1.308   0.412   8.833
    8AGLC   HO437095   1.251   0.356   8.780
    8AGLC    C637096   1.384   0.550   8.578
    8AGLC   H6137097   1.420   0.566   8.474
    8AGLC   H6237098   1.274   0.546   8.573
    8AGLC    O637099   1.424   0.661   8.660
    8AGLC   HO637100   1.353   0.681   8.721
    9AGAL    C137101   1.822   0.093   8.737
    9AGAL    H137102   1.823   0.103   8.627
    9AGAL    C537103   1.939   0.169   8.929
    9AGAL    H537104   1.838   0.190   8.971
    9AGAL    O537105   1.926   0.177   8.786
    9AGAL    C237106   1.850  -0.053   8.770
    9AGAL    H237107   1.944  -0.082   8.719
    9AGAL    O237108   1.741  -0.126   8.707
    9AGAL    C337109   1.869  -0.068   8.921
    9AGAL    H337110   1.774  -0.039   8.971
    9AGAL    O337111   1.901  -0.202   8.959
    9AGAL   HO337112   1.968  -0.234   8.898
    9AGAL    C437113   1.978   0.027   8.969
    9AGAL    H437114   1.981   0.023   9.080
    9AGAL    O437115   2.108  -0.010   8.921
    9AGAL   HO437116   2.151   0.072   8.895
    9AGAL    C637117   2.026   0.285   8.977
    9AGAL   H6137118   2.002   0.376   8.918
    9AGAL   H6237119   1.999   0.307   9.082
    9AGAL    O637120   2.167   0.260   8.971
    9AGAL   HO637121   2.201   0.295   8.888
   10AGAL    C137122   1.685  -0.243   8.762
   10AGAL    H137123   1.765  -0.319   8.774
   10AGAL    C537124   1.511  -0.127   8.879
   10AGAL    H537125   1.544  -0.037   8.823
   10AGAL    O537126   1.623  -0.217   8.889
   10AGAL    C237127   1.577  -0.304   8.670
   10AGAL    H237128   1.545  -0.399   8.719
   10AGAL    O237129   1.630  -0.340   8.542
   10AGAL   HO237130   1.571  -0.401   8.497
   10AGAL    C337131   1.457  -0.212   8.657
   10AGAL    H337132   1.490  -0.116   8.613
   10AGAL    O337133   1.354  -0.266   8.573
   10AGAL   HO337134   1.386  -0.276   8.483
   10AGAL    C437135   1.399  -0.186   8.795
   10AGAL    H437136   1.318  -0.110   8.786
   10AGAL    O437137   1.343  -0.305   8.851
   10AGAL   HO437138   1.317  -0.356   8.775
   10AGAL    C637139   1.473  -0.075   9.016
   10AGAL   H6137140   1.556  -0.012   9.052
   10AGAL   H6237141   1.382  -0.012   9.009
   10AGAL    O637142   1.450  -0.177   9.115
   10AGAL   HO637143   1.521  -0.242   9.108
   11BGLC    C137144   1.531   0.335   9.051
   11BGLC    H137145   1.435   0.389   9.066
   11BGLC    C537146   1.655   0.531   9.111
   11BGLC    H537147   1.558   0.580   9.132
   11BGLC    O537148   1.634   0.426   9.013
   11BGLC    C237149   1.574   0.266   9.181
   11BGLC    H237150   1.667   0.210   9.160
   11BGLC    O237151   1.475   0.173   9.229
   11BGLC   HO237152   1.485   0.091   9.181
   11BGLC    C337153   1.601   0.368   9.288
   11BGLC    H337154   1.508   0.421   9.316
   11BGLC    O337155   1.664   0.307   9.403
   11BGLC    C437156   1.704   0.467   9.240
   11BGLC    H437157   1.800   0.414   9.219
   11BGLC    O437158   1.727   0.565   9.340
   11BGLC   HO437159   1.702   0.525   9.424
   11BGLC    C637160   1.750   0.635   9.056
   11BGLC   H6137161   1.782   0.704   9.135
   11BGLC   H6237162   1.841   0.585   9.014
   11BGLC    O637163   1.688   0.713   8.953
   11BGLC   HO637164   1.723   0.686   8.868
   12BGLCN   C137165   1.592   0.308   9.523
   12BGLCN   H137166   1.503   0.242   9.512
   12BGLCN   C537167   1.482   0.443   9.683
   12BGLCN   H537168   1.390   0.381   9.674
   12BGLCN   O537169   1.554   0.440   9.558
   12BGLCN   C237170   1.689   0.253   9.625
   12BGLCN   H237171   1.771   0.328   9.634
   12BGLCN    N37172   1.748   0.128   9.578
   12BGLCN   HN37173   1.689   0.067   9.525
   12BGLCN    C37174   1.880   0.100   9.582
   12BGLCN    O37175   1.961   0.168   9.642
   12BGLCN   CT37176   1.924  -0.025   9.510
   12BGLCN  HT137177   2.021  -0.058   9.551
   12BGLCN  HT237178   1.936  -0.003   9.403
   12BGLCN  HT337179   1.849  -0.106   9.523
   12BGLCN   C337180   1.620   0.247   9.760
   12BGLCN   H337181   1.535   0.175   9.756
   12BGLCN   O337182   1.714   0.209   9.862
   12BGLCN   C437183   1.571   0.387   9.793
   12BGLCN   H437184   1.660   0.453   9.804
   12BGLCN   O437185   1.500   0.390   9.917
   12BGLCN  HO437186   1.414   0.348   9.907
   12BGLCN   C637187   1.443   0.588   9.707
   12BGLCN  H6137188   1.408   0.602   9.811
   12BGLCN  H6237189   1.533   0.653   9.693
   12BGLCN   O637190   1.340   0.633   9.618
   12BGLCN  HO637191   1.255   0.625   9.662
   13AGAL    C137192   1.669   0.130   9.969
   13AGAL    H137193   1.564   0.155   9.997
   13AGAL    C537194   1.814  -0.048   9.901
   13AGAL    H537195   1.847   0.020   9.819
   13AGAL    O537196   1.679  -0.011   9.938
   13AGAL    C237197   1.758   0.152  10.091
   13AGAL    H237198   1.727   0.078  10.168
   13AGAL    O237199   1.741   0.284  10.148
   13AGAL    C337200   1.902   0.122  10.054
   13AGAL    H337201   1.928   0.184   9.965
   13AGAL    O337202   1.997   0.157  10.155
   13AGAL   HO337203   2.076   0.186  10.108
   13AGAL    C437204   1.911  -0.024  10.016
   13AGAL    H437205   2.015  -0.046   9.980
   13AGAL    O437206   1.882  -0.110  10.124
   13AGAL   HO437207   1.812  -0.169  10.096
   13AGAL    C637208   1.817  -0.188   9.840
   13AGAL   H6137209   1.747  -0.191   9.754
   13AGAL   H6237210   1.918  -0.208   9.799
   13AGAL    O637211   1.783  -0.292   9.932
   13AGAL   HO637212   1.865  -0.330   9.965
   14ARHM    C137213   1.687   0.291  10.278
   14ARHM    H137214   1.609   0.212  10.288
   14ARHM    C537215   1.709   0.527  10.292
   14ARHM    H537216   1.756   0.530  10.193
   14ARHM    O537217   1.619   0.416  10.300
   14ARHM    C237218   1.796   0.269  10.382
   14ARHM    H237219   1.849   0.174  10.358
   14ARHM    O237220   1.752   0.259  10.520
   14ARHM    C337221   1.893   0.384  10.373
   14ARHM    H337222   1.935   0.388  10.270
   14ARHM    O337223   2.004   0.366  10.462
   14ARHM   HO337224   1.969   0.333  10.545
   14ARHM    C437225   1.818   0.513  10.398
   14ARHM    H437226   1.769   0.508  10.498
   14ARHM    O437227   1.907   0.626  10.400
   14ARHM   HO437228   1.995   0.589  10.413
   14ARHM    C637229   1.623   0.654  10.307
   14ARHM   H6137230   1.546   0.656  10.228
   14ARHM   H6237231   1.572   0.654  10.406
   14ARHM   H6337232   1.686   0.745  10.299
   15ARHM    C137233   1.652   0.164  10.545
   15ARHM    H137234   1.662   0.078  10.476
   15ARHM    C537235   1.494   0.329  10.623
   15ARHM    H537236   1.569   0.410  10.608
   15ARHM    O537237   1.521   0.222  10.531
   15ARHM    C237238   1.667   0.111  10.688
   15ARHM    H237239   1.769   0.071  10.700
   15ARHM    O237240   1.573   0.002  10.700
   15ARHM    C337241   1.645   0.223  10.786
   15ARHM    H337242   1.717   0.304  10.762
   15ARHM    O337243   1.669   0.180  10.922
   15ARHM    C437244   1.505   0.276  10.766
   15ARHM    H437245   1.432   0.193  10.775
   15ARHM    O437246   1.468   0.373  10.864
   15ARHM   HO437247   1.374   0.362  10.883
   15ARHM    C637248   1.355   0.385  10.589
   15ARHM   H6137249   1.329   0.469  10.655
   15ARHM   H6237250   1.355   0.422  10.484
   15ARHM   H6337251   1.278   0.305  10.599
   16BMANN   C137252   1.552  -0.052  10.826
   16BMANN   H137253   1.508   0.025  10.892
   16BMANN   C537254   1.648  -0.146  11.022
   16BMANN   H537255   1.610  -0.059  11.079
   16BMANN   O537256   1.671  -0.105  10.885
   16BMANN   C237257   1.447  -0.161  10.815
   16BMANN   H237258   1.356  -0.111  10.778
   16BMANN    N37259   1.485  -0.268  10.723
   16BMANN   HN37260   1.540  -0.343  10.759
   16BMANN    C37261   1.443  -0.276  10.596
   16BMANN    O37262   1.370  -0.191  10.546
   16BMANN   CT37263   1.486  -0.396  10.517
   16BMANN  HT137264   1.436  -0.487  10.556
   16BMANN  HT237265   1.596  -0.408  10.523
   16BMANN  HT337266   1.457  -0.382  10.410
   16BMANN   C337267   1.416  -0.208  10.957
   16BMANN   H337268   1.378  -0.121  11.015
   16BMANN   O337269   1.312  -0.306  10.957
   16BMANN  HO337270   1.289  -0.327  11.047
   16BMANN   C437271   1.543  -0.257  11.024
   16BMANN   H437272   1.583  -0.345  10.970
   16BMANN   O437273   1.516  -0.293  11.159
   16BMANN  HO437274   1.572  -0.367  11.186
   16BMANN   C637275   1.781  -0.187  11.082
   16BMANN  H6137276   1.768  -0.213  11.189
   16BMANN  H6237277   1.818  -0.278  11.030
   16BMANN   O637278   1.879  -0.083  11.072
   16BMANN  HO637279   1.889  -0.057  10.981
   17BGLCN   C137280   1.755   0.260  10.996
   17BGLCN   H137281   1.737   0.368  10.974
   17BGLCN   C537282   1.984   0.303  11.051
   17BGLCN   H537283   1.976   0.410  11.022
   17BGLCN   O537284   1.892   0.225  10.974
   17BGLCN   C237285   1.724   0.231  11.141
   17BGLCN   H237286   1.760   0.128  11.161
   17BGLCN    N37287   1.581   0.227  11.168
   17BGLCN   HN37288   1.524   0.273  11.100
   17BGLCN    C37289   1.524   0.152  11.263
   17BGLCN    O37290   1.589   0.085  11.345
   17BGLCN   CT37291   1.374   0.152  11.269
   17BGLCN  HT137292   1.335   0.075  11.200
   17BGLCN  HT237293   1.334   0.252  11.241
   17BGLCN  HT337294   1.341   0.127  11.373
   17BGLCN   C337295   1.810   0.324  11.228
   17BGLCN   H337296   1.793   0.428  11.191
   17BGLCN   O337297   1.772   0.317  11.367
   17BGLCN   C437298   1.954   0.287  11.200
   17BGLCN   H437299   1.969   0.180  11.227
   17BGLCN   O437300   2.046   0.363  11.280
   17BGLCN  HO437301   2.089   0.431  11.227
   17BGLCN   C637302   2.122   0.250  11.016
   17BGLCN  H6137303   2.201   0.303  11.075
   17BGLCN  H6237304   2.128   0.143  11.040
   17BGLCN   O637305   2.152   0.267  10.877
   17BGLCN  HO637306   2.173   0.359  10.861
   18AGAL    C137307   1.785   0.437  11.441
   18AGAL    H137308   1.892   0.466  11.449
   18AGAL    C537309   1.569   0.519  11.377
   18AGAL    H537310   1.558   0.424  11.321
   18AGAL    O537311   1.710   0.547  11.384
   18AGAL    C237312   1.731   0.418  11.583
   18AGAL    H237313   1.739   0.519  11.628
   18AGAL    O237314   1.811   0.329  11.663
   18AGAL    C337315   1.583   0.379  11.578
   18AGAL    H337316   1.575   0.289  11.513
   18AGAL    O337317   1.528   0.343  11.704
   18AGAL   HO337318   1.480   0.261  11.696
   18AGAL    C437319   1.507   0.494  11.515
   18AGAL    H437320   1.401   0.463  11.499
   18AGAL    O437321   1.507   0.612  11.595
   18AGAL   HO437322   1.478   0.683  11.538
   18AGAL    C637323   1.500   0.623  11.288
   18AGAL   H6137324   1.561   0.640  11.197
   18AGAL   H6237325   1.403   0.580  11.255
   18AGAL    O637326   1.475   0.747  11.354
   18AGAL   HO637327   1.555   0.800  11.357
   19ARHM    C137328   1.817   0.371  11.797
   19ARHM    H137329   1.725   0.427  11.825
   19ARHM    C537330   2.055   0.396  11.804
   19ARHM    H537331   2.061   0.360  11.699
   19ARHM    O537332   1.927   0.458  11.825
   19ARHM    C237333   1.826   0.250  11.888
   19ARHM    H237334   1.749   0.177  11.854
   19ARHM    O237335   1.799   0.284  12.026
   19ARHM    C337336   1.958   0.179  11.870
   19ARHM    H337337   1.966   0.145  11.766
   19ARHM    O337338   1.965   0.063  11.953
   19ARHM   HO337339   1.937   0.083  12.043
   19ARHM    C437340   2.072   0.277  11.898
   19ARHM    H437341   2.065   0.314  12.002
   19ARHM    O437342   2.200   0.216  11.880
   19ARHM   HO437343   2.191   0.148  11.812
   19ARHM    C637344   2.159   0.507  11.822
   19ARHM   H6137345   2.136   0.592  11.755
   19ARHM   H6237346   2.160   0.541  11.927
   19ARHM   H6337347   2.260   0.468  11.795
   20ARHM    C137348   1.663   0.314  12.047
   20ARHM    H137349   1.601   0.275  11.964
   20ARHM    C537350   1.698   0.518  12.168
   20ARHM    H537351   1.808   0.506  12.161
   20ARHM    O537352   1.636   0.455  12.054
   20ARHM    C237353   1.618   0.247  12.175
   20ARHM    H237354   1.647   0.140  12.172
   20ARHM    O237355   1.476   0.255  12.189
   20ARHM    C337356   1.684   0.309  12.294
   20ARHM    H337357   1.794   0.296  12.284
   20ARHM    O337358   1.638   0.241  12.412
   20ARHM    C437359   1.650   0.456  12.297
   20ARHM    H437360   1.539   0.466  12.304
   20ARHM    O437361   1.705   0.523  12.411
   20ARHM   HO437362   1.653   0.602  12.427
   20ARHM    C637363   1.663   0.668  12.155
   20ARHM   H6137364   1.553   0.682  12.158
   20ARHM   H6237365   1.708   0.725  12.239
   20ARHM   H6337366   1.703   0.709  12.059
   21BMANN   C137367   1.405   0.164  12.109
   21BMANN   H137368   1.473   0.108  12.040
   21BMANN   C537369   1.236   0.149  11.943
   21BMANN   H537370   1.307   0.095  11.875
   21BMANN   O537371   1.310   0.236  12.030
   21BMANN   C237372   1.335   0.067  12.200
   21BMANN   H237373   1.415   0.010  12.253
   21BMANN    N37374   1.255   0.138  12.300
   21BMANN   HN37375   1.206   0.218  12.267
   21BMANN    C37376   1.249   0.105  12.430
   21BMANN    O37377   1.306   0.008  12.478
   21BMANN   CT37378   1.166   0.196  12.516
   21BMANN  HT137379   1.059   0.168  12.508
   21BMANN  HT237380   1.181   0.302  12.484
   21BMANN  HT337381   1.198   0.186  12.623
   21BMANN   C337382   1.258  -0.030  12.113
   21BMANN   H337383   1.330  -0.081  12.047
   21BMANN   O337384   1.196  -0.132  12.191
   21BMANN  HO337385   1.122  -0.096  12.241
   21BMANN   C437386   1.160   0.047  12.026
   21BMANN   H437387   1.086   0.099  12.090
   21BMANN   O437388   1.088  -0.039  11.939
   21BMANN  HO437389   1.088  -0.129  11.972
   21BMANN   C637390   1.145   0.235  11.857
   21BMANN  H6137391   1.090   0.169  11.786
   21BMANN  H6237392   1.070   0.286  11.920
   21BMANN   O637393   1.217   0.332  11.780
   21BMANN  HO637394   1.267   0.389  11.840
   22BGLCN   C137395   1.737   0.224  12.510
   22BGLCN   H137396   1.813   0.305  12.505
   22BGLCN   C537397   1.898   0.075  12.599
   22BGLCN   H537398   1.976   0.154  12.592
   22BGLCN   O537399   1.798   0.096  12.498
   22BGLCN   C237400   1.664   0.232  12.642
   22BGLCN   H237401   1.591   0.148  12.645
   22BGLCN    N37402   1.590   0.358  12.651
   22BGLCN   HN37403   1.627   0.432  12.595
   22BGLCN    C37404   1.474   0.375  12.714
   22BGLCN    O37405   1.415   0.286  12.773
   22BGLCN   CT37406   1.418   0.514  12.711
   22BGLCN  HT137407   1.361   0.530  12.617
   22BGLCN  HT237408   1.499   0.589  12.718
   22BGLCN  HT337409   1.349   0.526  12.797
   22BGLCN   C337410   1.764   0.214  12.755
   22BGLCN   H337411   1.840   0.295  12.749
   22BGLCN   O337412   1.688   0.230  12.877
   22BGLCN   C437413   1.834   0.080  12.738
   22BGLCN   H437414   1.759  -0.001  12.746
   22BGLCN   O437415   1.937   0.060  12.835
   22BGLCN  HO437416   1.948  -0.033  12.856
   22BGLCN   C637417   1.964  -0.059  12.568
   22BGLCN  H6137418   2.046  -0.076  12.641
   22BGLCN  H6237419   1.888  -0.140  12.581
   22BGLCN   O637420   2.021  -0.066  12.437
   22BGLCN  HO637421   1.960  -0.028  12.373
   23AGAL    C137422   1.754   0.243  12.999
   23AGAL    H137423   1.801   0.146  13.026
   23AGAL    C537424   1.801   0.475  12.970
   23AGAL    H537425   1.744   0.470  12.873
   23AGAL    O537426   1.855   0.345  12.998
   23AGAL    C237427   1.652   0.278  13.107
   23AGAL    H237428   1.705   0.279  13.204
   23AGAL    O237429   1.544   0.184  13.111
   23AGAL    C337430   1.591   0.415  13.083
   23AGAL    H337431   1.536   0.413  12.986
   23AGAL    O337432   1.499   0.450  13.186
   23AGAL   HO337433   1.554   0.469  13.262
   23AGAL    C437434   1.702   0.518  13.078
   23AGAL    H437435   1.658   0.616  13.047
   23AGAL    O437436   1.764   0.535  13.204
   23AGAL   HO437437   1.852   0.568  13.186
   23AGAL    C637438   1.915   0.572  12.946
   23AGAL   H6137439   1.984   0.528  12.870
   23AGAL   H6237440   1.876   0.667  12.904
   23AGAL    O637441   1.990   0.603  13.064
   23AGAL   HO637442   2.079   0.628  13.040
   24ARHM    C137443   1.559   0.069  13.189
   24ARHM    H137444   1.666   0.040  13.193
   24ARHM    C537445   1.349  -0.012  13.116
   24ARHM    H537446   1.337   0.080  13.054
   24ARHM    O537447   1.488  -0.042  13.131
   24ARHM    C237448   1.506   0.098  13.328
   24ARHM    H237449   1.552   0.193  13.363
   24ARHM    O237450   1.541  -0.007  13.419
   24ARHM    C337451   1.358   0.126  13.319
   24ARHM    H337452   1.342   0.217  13.258
   24ARHM    O337453   1.303   0.152  13.449
   24ARHM   HO337454   1.209   0.132  13.439
   24ARHM    C437455   1.286   0.010  13.253
   24ARHM    H437456   1.299  -0.081  13.314
   24ARHM    O437457   1.146   0.038  13.242
   24ARHM   HO437458   1.109  -0.011  13.168
   24ARHM    C637459   1.289  -0.127  13.036
   24ARHM   H6137460   1.181  -0.113  13.015
   24ARHM   H6237461   1.342  -0.136  12.937
   24ARHM   H6337462   1.303  -0.223  13.089
   25ARHM    C137463   1.670   0.011  13.472
   25ARHM    H137464   1.729   0.075  13.405
   25ARHM    C537465   1.696  -0.201  13.575
   25ARHM    H537466   1.594  -0.233  13.547
   25ARHM    O537467   1.747  -0.109  13.478
   25ARHM    C237468   1.662   0.080  13.606
   25ARHM    H237469   1.591   0.166  13.599
   25ARHM    O237470   1.791   0.127  13.645
   25ARHM    C337471   1.605  -0.012  13.710
   25ARHM    H337472   1.501  -0.040  13.682
   25ARHM    O337473   1.604   0.057  13.838
   25ARHM    C437474   1.692  -0.136  13.714
   25ARHM    H437475   1.795  -0.106  13.741
   25ARHM    O437476   1.644  -0.228  13.811
   25ARHM   HO437477   1.701  -0.305  13.814
   25ARHM    C637478   1.790  -0.323  13.571
   25ARHM   H6137479   1.794  -0.364  13.467
   25ARHM   H6237480   1.893  -0.294  13.599
   25ARHM   H6337481   1.755  -0.402  13.640
   26BMANN   C137482   1.830   0.247  13.583
   26BMANN   H137483   1.743   0.297  13.536
   26BMANN   C537484   1.971   0.352  13.425
   26BMANN   H537485   1.880   0.395  13.378
   26BMANN   O537486   1.933   0.227  13.486
   26BMANN   C237487   1.882   0.335  13.694
   26BMANN   H237488   1.797   0.349  13.765
   26BMANN    N37489   1.992   0.273  13.766
   26BMANN   HN37490   2.055   0.217  13.714
   26BMANN    C37491   2.013   0.285  13.898
   26BMANN    O37492   1.934   0.341  13.974
   26BMANN   CT37493   2.140   0.224  13.951
   26BMANN  HT137494   2.210   0.203  13.868
   26BMANN  HT237495   2.116   0.130  14.005
   26BMANN  HT337496   2.187   0.296  14.023
   26BMANN   C337497   1.916   0.470  13.633
   26BMANN   H337498   1.825   0.509  13.582
   26BMANN   O337499   1.950   0.566  13.732
   26BMANN  HO337500   1.977   0.647  13.689
   26BMANN   C437501   2.024   0.451  13.527
   26BMANN   H437502   2.116   0.410  13.575
   26BMANN   O437503   2.055   0.574  13.464
   26BMANN  HO437504   2.133   0.614  13.503
   26BMANN   C637505   2.068   0.325  13.309
   26BMANN  H6137506   2.026   0.247  13.242
   26BMANN  H6237507   2.078   0.418  13.248
   26BMANN   O637508   2.198   0.286  13.354
   26BMANN  HO637509   2.264   0.324  13.297
   27BGLCN   C137510   1.494   0.034  13.920
   27BGLCN   H137511   1.471  -0.074  13.925
   27BGLCN   C537512   1.265   0.091  13.960
   27BGLCN   H537513   1.239  -0.017  13.964
   27BGLCN   O537514   1.380   0.109  13.877
   27BGLCN   C237515   1.530   0.089  14.058
   27BGLCN   H237516   1.535   0.199  14.043
   27BGLCN    N37517   1.660   0.046  14.107
   27BGLCN   HN37518   1.693  -0.044  14.082
   27BGLCN    C37519   1.739   0.127  14.180
   27BGLCN    O37520   1.704   0.240  14.214
   27BGLCN   CT37521   1.874   0.074  14.218
   27BGLCN  HT137522   1.883  -0.033  14.191
   27BGLCN  HT237523   1.888   0.085  14.328
   27BGLCN  HT337524   1.952   0.132  14.166
   27BGLCN   C337525   1.414   0.063  14.155
   27BGLCN   H337526   1.391  -0.045  14.148
   27BGLCN   O337527   1.456   0.091  14.291
   27BGLCN   C437528   1.294   0.140  14.102
   27BGLCN   H437529   1.320   0.248  14.099
   27BGLCN   O437530   1.178   0.128  14.184
   27BGLCN  HO437531   1.162   0.037  14.210
   27BGLCN   C637532   1.152   0.165  13.892
   27BGLCN  H6137533   1.060   0.162  13.954
   27BGLCN  H6237534   1.179   0.272  13.878
   27BGLCN   O637535   1.122   0.107  13.765
   27BGLCN  HO637536   1.197   0.123  13.707
   28AGAL    C137537   1.378   0.042  14.400
   28AGAL    H137538   1.291   0.109  14.413
   28AGAL    C537539   1.439  -0.187  14.371
   28AGAL    H537540   1.509  -0.156  14.290
   28AGAL    O537541   1.331  -0.092  14.378
   28AGAL    C237542   1.455   0.041  14.533
   28AGAL    H237543   1.382  -0.006  14.603
   28AGAL    O237544   1.488   0.170  14.588
   28AGAL    C337545   1.576  -0.051  14.524
   28AGAL    H337546   1.637  -0.019  14.437
   28AGAL    O337547   1.660  -0.046  14.640
   28AGAL   HO337548   1.736   0.010  14.623
   28AGAL    C437549   1.524  -0.191  14.498
   28AGAL    H437550   1.611  -0.258  14.478
   28AGAL    O437551   1.456  -0.245  14.612
   28AGAL   HO437552   1.517  -0.305  14.656
   28AGAL    C637553   1.383  -0.321  14.326
   28AGAL   H6137554   1.336  -0.308  14.227
   28AGAL   H6237555   1.465  -0.395  14.315
   28AGAL    O637556   1.284  -0.375  14.415
   28AGAL   HO637557   1.217  -0.308  14.429
   29ARHM    C137558   1.464   0.178  14.727
   29ARHM    H137559   1.476   0.078  14.774
   29ARHM    C537560   1.313   0.360  14.700
   29ARHM    H537561   1.320   0.356  14.589
   29ARHM    O537562   1.333   0.229  14.754
   29ARHM    C237563   1.566   0.271  14.790
   29ARHM    H237564   1.668   0.230  14.769
   29ARHM    O237565   1.546   0.286  14.933
   29ARHM    C337566   1.556   0.407  14.726
   29ARHM    H337567   1.568   0.397  14.616
   29ARHM    O337568   1.657   0.496  14.773
   29ARHM   HO337569   1.614   0.582  14.780
   29ARHM    C437570   1.417   0.459  14.754
   29ARHM    H437571   1.402   0.467  14.864
   29ARHM    O437572   1.398   0.590  14.700
   29ARHM   HO437573   1.391   0.583  14.605
   29ARHM    C637574   1.170   0.399  14.739
   29ARHM   H6137575   1.098   0.325  14.697
   29ARHM   H6237576   1.159   0.401  14.850
   29ARHM   H6337577   1.145   0.499  14.699
   30ARHM    C137578   1.614   0.192  15.013
   30ARHM    H137579   1.721   0.189  14.983
   30ARHM    C537580   1.421   0.056  15.044
   30ARHM    H537581   1.362   0.130  14.988
   30ARHM    O537582   1.558   0.060  15.001
   30ARHM    C237583   1.607   0.236  15.159
   30ARHM    H237584   1.638   0.343  15.163
   30ARHM    O237585   1.694   0.157  15.241
   30ARHM    C337586   1.464   0.230  15.212
   30ARHM    H337587   1.403   0.298  15.149
   30ARHM    O337588   1.457   0.280  15.347
   30ARHM    C437589   1.411   0.089  15.192
   30ARHM    H437590   1.472   0.016  15.249
   30ARHM    O437591   1.275   0.077  15.235
   30ARHM   HO437592   1.246   0.161  15.271
   30ARHM    C637593   1.365  -0.083  15.008
   30ARHM   H6137594   1.257  -0.087  15.032
   30ARHM   H6237595   1.377  -0.103  14.900
   30ARHM   H6337596   1.417  -0.162  15.067
   31BMANN   C137597   1.820   0.214  15.268
   31BMANN   H137598   1.811   0.322  15.292
   31BMANN   C537599   2.043   0.241  15.186
   31BMANN   H537600   2.038   0.348  15.216
   31BMANN   O537601   1.910   0.192  15.159
   31BMANN   C237602   1.869   0.136  15.389
   31BMANN   H237603   1.803   0.161  15.474
   31BMANN    N37604   1.856  -0.008  15.369
   31BMANN   HN37605   1.823  -0.035  15.278
   31BMANN    C37606   1.873  -0.103  15.461
   31BMANN    O37607   1.912  -0.079  15.575
   31BMANN   CT37608   1.843  -0.244  15.419
   31BMANN  HT137609   1.889  -0.265  15.320
   31BMANN  HT237610   1.733  -0.258  15.412
   31BMANN  HT337611   1.884  -0.314  15.494
   31BMANN   C337612   2.008   0.188  15.422
   31BMANN   H337613   2.001   0.298  15.434
   31BMANN   O337614   2.058   0.141  15.547
   31BMANN  HO337615   2.015   0.058  15.570
   31BMANN   C437616   2.101   0.163  15.305
   31BMANN   H437617   2.103   0.055  15.280
   31BMANN   O437618   2.233   0.205  15.334
   31BMANN  HO437619   2.244   0.199  15.430
   31BMANN   C637620   2.126   0.234  15.059
   31BMANN  H6137621   2.234   0.240  15.084
   31BMANN  H6237622   2.110   0.136  15.009
   31BMANN   O637623   2.095   0.340  14.969
   31BMANN  HO637624   2.165   0.405  14.972
   32BGLCN   C137625   1.483   0.192  15.454
   32BGLCN   H137626   1.570   0.127  15.432
   32BGLCN   C537627   1.395   0.016  15.592
   32BGLCN   H537628   1.481  -0.049  15.565
   32BGLCN   O537629   1.370   0.110  15.486
   32BGLCN   C237630   1.512   0.275  15.578
   32BGLCN   H237631   1.416   0.324  15.605
   32BGLCN    N37632   1.608   0.381  15.550
   32BGLCN   HN37633   1.683   0.359  15.487
   32BGLCN    C37634   1.595   0.507  15.593
   32BGLCN    O37635   1.508   0.542  15.672
   32BGLCN   CT37636   1.696   0.606  15.542
   32BGLCN  HT137637   1.739   0.572  15.445
   32BGLCN  HT237638   1.778   0.619  15.616
   32BGLCN  HT337639   1.646   0.704  15.527
   32BGLCN   C337640   1.550   0.180  15.691
   32BGLCN   H337641   1.632   0.116  15.653
   32BGLCN   O337642   1.594   0.245  15.812
   32BGLCN   C437643   1.429   0.093  15.719
   32BGLCN   H437644   1.343   0.158  15.743
   32BGLCN   O437645   1.449   0.006  15.829
   32BGLCN  HO437646   1.435   0.058  15.909
   32BGLCN   C637647   1.272  -0.071  15.603
   32BGLCN  H6137648   1.288  -0.151  15.678
   32BGLCN  H6237649   1.185  -0.010  15.637
   32BGLCN   O637650   1.240  -0.131  15.477
   32BGLCN  HO637651   1.239  -0.062  15.411
   33AGAL    C137652   1.710   0.185  15.867
   33AGAL    H137653   1.706   0.074  15.853
   33AGAL    C537654   1.846   0.377  15.822
   33AGAL    H537655   1.756   0.430  15.782
   33AGAL    O537656   1.828   0.235  15.802
   33AGAL    C237657   1.722   0.213  16.015
   33AGAL    H237658   1.819   0.169  16.048
   33AGAL    O237659   1.617   0.146  16.086
   33AGAL    C337660   1.731   0.363  16.039
   33AGAL    H337661   1.642   0.411  15.993
   33AGAL    O337662   1.728   0.399  16.178
   33AGAL   HO337663   1.805   0.362  16.221
   33AGAL    C437664   1.856   0.415  15.969
   33AGAL    H437665   1.857   0.526  15.977
   33AGAL    O437666   1.978   0.368  16.026
   33AGAL   HO437667   2.034   0.341  15.953
   33AGAL    C637668   1.966   0.421  15.739
   33AGAL   H6137669   1.941   0.413  15.631
   33AGAL   H6237670   1.989   0.527  15.761
   33AGAL    O637671   2.082   0.342  15.765
   33AGAL   HO637672   2.080   0.263  15.710
   34ARHM    C137673   1.658   0.084  16.206
   34ARHM    H137674   1.715   0.157  16.268
   34ARHM    C537675   1.678  -0.135  16.111
   34ARHM    H537676   1.644  -0.098  16.012
   34ARHM    O537677   1.744  -0.030  16.182
   34ARHM    C237678   1.533   0.041  16.283
   34ARHM    H237679   1.466   0.129  16.290
   34ARHM    O237680   1.558  -0.007  16.416
   34ARHM    C337681   1.460  -0.069  16.208
   34ARHM    H337682   1.432  -0.030  16.108
   34ARHM    O337683   1.340  -0.108  16.275
   34ARHM   HO337684   1.282  -0.149  16.210
   34ARHM    C437685   1.557  -0.184  16.189
   34ARHM    H437686   1.591  -0.219  16.289
   34ARHM    O437687   1.497  -0.296  16.123
   34ARHM   HO437688   1.541  -0.375  16.155
   34ARHM    C637689   1.783  -0.245  16.087
   34ARHM   H6137690   1.822  -0.283  16.184
   34ARHM   H6237691   1.739  -0.330  16.031
   34ARHM   H6337692   1.868  -0.205  16.028
   35ARHM    C137693   1.618   0.082  16.506
   35ARHM    H137694   1.586   0.186  16.484
   35ARHM    C537695   1.807  -0.063  16.518
   35ARHM    H537696   1.764  -0.128  16.439
   35ARHM    O537697   1.761   0.072  16.501
   35ARHM    C237698   1.572   0.039  16.643
   35ARHM    H237699   1.460   0.041  16.644
   35ARHM    O237700   1.621   0.124  16.749
   35ARHM    C337701   1.614  -0.104  16.668
   35ARHM    H337702   1.566  -0.170  16.593
   35ARHM    O337703   1.568  -0.147  16.796
   35ARHM   HO337704   1.592  -0.082  16.862
   35ARHM    C437705   1.765  -0.115  16.655
   35ARHM    H437706   1.814  -0.054  16.733
   35ARHM    O437707   1.809  -0.251  16.670
   35ARHM   HO437708   1.761  -0.305  16.607
   35ARHM    C637709   1.960  -0.059  16.498
   35ARHM   H6137710   1.984  -0.017  16.398
   35ARHM   H6237711   2.007   0.005  16.576
   35ARHM   H6337712   2.003  -0.161  16.506
   36BMANN   C137713   1.561   0.251  16.755
   36BMANN   H137714   1.452   0.244  16.733
   36BMANN   C537715   1.569   0.475  16.672
   36BMANN   H537716   1.460   0.466  16.655
   36BMANN   O537717   1.626   0.343  16.665
   36BMANN   C237718   1.583   0.299  16.898
   36BMANN   H237719   1.523   0.231  16.962
   36BMANN    N37720   1.722   0.290  16.941
   36BMANN   HN37721   1.791   0.291  16.869
   36BMANN    C37722   1.759   0.276  17.068
   36BMANN    O37723   1.679   0.260  17.160
   36BMANN   CT37724   1.906   0.281  17.097
   36BMANN  HT137725   1.958   0.346  17.024
   36BMANN  HT237726   1.949   0.179  17.093
   36BMANN  HT337727   1.922   0.322  17.200
   36BMANN   C337728   1.522   0.438  16.910
   36BMANN   H337729   1.415   0.432  16.881
   36BMANN   O337730   1.523   0.487  17.044
   36BMANN  HO337731   1.458   0.438  17.095
   36BMANN   C437732   1.590   0.532  16.812
   36BMANN   H437733   1.699   0.535  16.833
   36BMANN   O437734   1.541   0.666  16.821
   36BMANN  HO437735   1.576   0.702  16.903
   36BMANN   C637736   1.621   0.562  16.558
   36BMANN  H6137737   1.601   0.509  16.463
   36BMANN  H6237738   1.564   0.657  16.556
   36BMANN   O637739   1.760   0.592  16.565
   36BMANN  HO637740   1.782   0.634  16.649
    1ECLIP HB6S37741   8.235   8.021   6.690
    1ECLIP  OB637742   8.125   7.871   6.787
    1ECLIP  CB637743   8.232   7.910   6.700
    1ECLIP HB6R37744   8.331   7.878   6.740
    1ECLIP  CB537745   8.207   7.850   6.566
    1ECLIP  OB537746   8.073   7.881   6.530
    1ECLIP  HB537747   8.216   7.740   6.577
    1ECLIP  CB137748   8.037   7.810   6.411
    1ECLIP  HB137749   8.054   7.702   6.429
    1ECLIP  OA637750   7.901   7.823   6.388
    1ECLIP  CA637751   7.847   7.955   6.403
    1ECLIP HA6R37752   7.928   8.032   6.400
    1ECLIP HA6S37753   7.794   7.961   6.499
    1ECLIP  CB437754   8.299   7.898   6.455
    1ECLIP  HB437755   8.280   8.006   6.438
    1ECLIP  OB437756   8.431   7.872   6.505
    1ECLIP   PB37757   8.536   7.997   6.523
    1ECLIP OPB437758   8.650   7.939   6.604
    1ECLIP OPB337759   8.461   8.105   6.598
    1ECLIP OPB237760   8.577   8.037   6.384
    1ECLIP  CB337761   8.267   7.823   6.327
    1ECLIP  OB337762   8.345   7.866   6.216
    1ECLIP  HB337763   8.277   7.714   6.344
    1ECLIP  C7137764   8.470   7.817   6.208
    1ECLIP  O7137765   8.508   7.720   6.273
    1ECLIP  C7237766   8.521   7.845   6.068
    1ECLIP H72R37767   8.448   7.805   5.993
    1ECLIP H72S37768   8.617   7.790   6.056
    1ECLIP  CB237769   8.122   7.851   6.292
    1ECLIP  HB237770   8.110   7.961   6.276
    1ECLIP  NB237771   8.085   7.782   6.168
    1ECLIP HNB237772   8.077   7.683   6.174
    1ECLIP  CA437773   7.711   7.843   6.222
    1ECLIP  HA437774   7.802   7.785   6.196
    1ECLIP  OA437775   7.630   7.770   6.315
    1ECLIP HOA437776   7.588   7.695   6.273
    1ECLIP  CA537777   7.750   7.975   6.288
    1ECLIP  HA537778   7.660   8.030   6.323
    1ECLIP  OA537779   7.822   8.057   6.194
    1ECLIP  CA137780   7.748   8.087   6.076
    1ECLIP  HA137781   7.823   8.136   6.010
    1ECLIP  OA137782   7.637   8.170   6.108
    1ECLIP OPA237783   7.565   8.400   6.196
    1ECLIP OPA337784   7.794   8.366   6.082
    1ECLIP OPA437785   7.603   8.356   5.945
    1ECLIP   PA37786   7.647   8.331   6.087
    1ECLIP  CA337787   7.635   7.868   6.097
    1ECLIP  HA337788   7.538   7.917   6.120
    1ECLIP  OA337789   7.609   7.738   6.043
    1ECLIP  C3137790   7.714   7.670   5.987
    1ECLIP  O3137791   7.763   7.704   5.881
    1ECLIP  C3237792   7.695   7.525   6.023
    1ECLIP H32R37793   7.652   7.480   5.931
    1ECLIP H32S37794   7.627   7.518   6.110
    1ECLIP  CA237795   7.713   7.958   6.004
    1ECLIP  HA237796   7.812   7.912   5.983
    1ECLIP  NA237797   7.642   7.968   5.878
    1ECLIP HNA237798   7.579   7.892   5.865
    1ECLIP  C7337799   8.544   7.995   6.046
    1ECLIP H73R37800   8.602   8.034   6.132
    1ECLIP  O7337801   8.416   8.058   6.038
    1ECLIP  C8137802   8.413   8.187   6.066
    1ECLIP  O8137803   8.508   8.262   6.071
    1ECLIP  C8237804   8.270   8.237   6.042
    1ECLIP H82R37805   8.263   8.337   6.090
    1ECLIP H82S37806   8.200   8.167   6.094
    1ECLIP  C8337807   8.237   8.246   5.891
    1ECLIP H83R37808   8.242   8.143   5.851
    1ECLIP H83S37809   8.315   8.306   5.839
    1ECLIP  C8437810   8.098   8.304   5.861
    1ECLIP H84R37811   8.102   8.413   5.884
    1ECLIP H84S37812   8.028   8.254   5.931
    1ECLIP  C8537813   8.061   8.278   5.714
    1ECLIP H85R37814   8.005   8.182   5.704
    1ECLIP H85S37815   8.157   8.260   5.662
    1ECLIP  C8637816   7.993   8.391   5.635
    1ECLIP H86R37817   8.066   8.474   5.627
    1ECLIP H86S37818   7.903   8.433   5.686
    1ECLIP  C8737819   7.954   8.347   5.493
    1ECLIP H87R37820   7.906   8.432   5.440
    1ECLIP H87S37821   7.879   8.265   5.498
    1ECLIP  C8837822   8.073   8.299   5.410
    1ECLIP H88R37823   8.117   8.208   5.457
    1ECLIP H88S37824   8.153   8.377   5.407
    1ECLIP  C8937825   8.039   8.260   5.264
    1ECLIP H89R37826   7.951   8.192   5.264
    1ECLIP H89S37827   8.125   8.202   5.226
    1ECLIP C81037828   8.015   8.379   5.171
    1ECLIPH810R37829   8.098   8.452   5.181
    1ECLIPH810S37830   7.921   8.430   5.203
    1ECLIP C81137831   8.001   8.340   5.023
    1ECLIPH811R37832   7.968   8.428   4.964
    1ECLIPH811S37833   7.921   8.263   5.014
    1ECLIP C81237834   8.128   8.283   4.957
    1ECLIPH812R37835   8.102   8.244   4.856
    1ECLIPH812S37836   8.167   8.198   5.016
    1ECLIP C81337837   8.240   8.387   4.939
    1ECLIPH813R37838   8.202   8.470   4.875
    1ECLIPH813S37839   8.265   8.431   5.038
    1ECLIP C81437840   8.367   8.329   4.877
    1ECLIPH814R37841   8.345   8.283   4.778
    1ECLIPH814S37842   8.409   8.251   4.943
    1ECLIPH814T37843   8.443   8.408   4.863
    1ECLIP  C7437844   8.626   8.024   5.917
    1ECLIP H74R37845   8.720   7.965   5.920
    1ECLIP H74S37846   8.656   8.131   5.922
    1ECLIP  C7537847   8.556   8.003   5.781
    1ECLIP H75R37848   8.595   8.082   5.714
    1ECLIP H75S37849   8.447   8.018   5.790
    1ECLIP  C7637850   8.586   7.868   5.712
    1ECLIP H76R37851   8.530   7.787   5.762
    1ECLIP H76S37852   8.694   7.846   5.721
    1ECLIP  C7737853   8.551   7.872   5.561
    1ECLIP H77R37854   8.606   7.956   5.514
    1ECLIP H77S37855   8.443   7.893   5.551
    1ECLIP  C7837856   8.586   7.742   5.487
    1ECLIP H78R37857   8.697   7.732   5.486
    1ECLIP H78S37858   8.546   7.655   5.544
    1ECLIP  C7937859   8.534   7.733   5.342
    1ECLIP H79R37860   8.425   7.713   5.344
    1ECLIP H79S37861   8.582   7.645   5.294
    1ECLIP C71037862   8.560   7.856   5.254
    1ECLIPH710R37863   8.504   7.943   5.296
    1ECLIPH710S37864   8.668   7.881   5.259
    1ECLIP C71137865   8.519   7.836   5.108
    1ECLIPH711R37866   8.579   7.753   5.064
    1ECLIPH711S37867   8.412   7.805   5.104
    1ECLIP C71237868   8.536   7.963   5.023
    1ECLIPH712R37869   8.644   7.986   5.016
    1ECLIPH712S37870   8.486   8.047   5.075
    1ECLIP C71337871   8.477   7.952   4.880
    1ECLIPH713R37872   8.367   7.939   4.887
    1ECLIPH713S37873   8.495   8.048   4.827
    1ECLIP C71437874   8.535   7.838   4.795
    1ECLIPH714R37875   8.646   7.846   4.792
    1ECLIPH714S37876   8.509   7.739   4.839
    1ECLIPH714T37877   8.496   7.842   4.691
    1ECLIP  C5137878   8.085   7.836   6.045
    1ECLIP  O5137879   8.070   7.956   6.023
    1ECLIP  C5237880   8.100   7.735   5.933
    1ECLIP H52R37881   8.204   7.695   5.933
    1ECLIP H52S37882   8.031   7.651   5.955
    1ECLIP  C5337883   8.066   7.794   5.795
    1ECLIP H53R37884   7.983   7.866   5.806
    1ECLIP  O5337885   8.031   7.681   5.714
    1ECLIP  C6137886   7.924   7.697   5.638
    1ECLIP  O6137887   7.865   7.802   5.620
    1ECLIP  C6237888   7.918   7.577   5.542
    1ECLIP H62R37889   7.869   7.493   5.595
    1ECLIP H62S37890   8.021   7.547   5.516
    1ECLIP  C6337891   7.840   7.613   5.414
    1ECLIP H63R37892   7.882   7.704   5.367
    1ECLIP H63S37893   7.735   7.637   5.443
    1ECLIP  C6437894   7.839   7.500   5.311
    1ECLIP H64R37895   7.745   7.508   5.252
    1ECLIP H64S37896   7.838   7.401   5.362
    1ECLIP  C6537897   7.954   7.508   5.212
    1ECLIP H65R37898   8.050   7.503   5.266
    1ECLIP H65S37899   7.949   7.607   5.161
    1ECLIP  C6637900   7.951   7.398   5.103
    1ECLIP H66R37901   7.956   7.298   5.151
    1ECLIP H66S37902   8.040   7.410   5.039
    1ECLIP  C6737903   7.828   7.403   5.011
    1ECLIP H67R37904   7.739   7.365   5.065
    1ECLIP H67S37905   7.847   7.334   4.926
    1ECLIP  C6837906   7.798   7.544   4.957
    1ECLIP H68R37907   7.893   7.599   4.941
    1ECLIP H68S37908   7.739   7.600   5.031
    1ECLIP  C6937909   7.723   7.539   4.822
    1ECLIP H69R37910   7.634   7.474   4.839
    1ECLIP H69S37911   7.787   7.488   4.747
    1ECLIP C61037912   7.681   7.678   4.773
    1ECLIPH610R37913   7.768   7.747   4.780
    1ECLIPH610S37914   7.602   7.718   4.839
    1ECLIP C61137915   7.629   7.681   4.627
    1ECLIPH611R37916   7.546   7.609   4.617
    1ECLIPH611S37917   7.588   7.782   4.608
    1ECLIP C61237918   7.735   7.651   4.521
    1ECLIPH612R37919   7.821   7.721   4.530
    1ECLIPH612S37920   7.774   7.547   4.532
    1ECLIPH612T37921   7.693   7.661   4.419
    1ECLIP  C5437922   8.189   7.864   5.733
    1ECLIP H54R37923   8.270   7.789   5.716
    1ECLIP H54S37924   8.227   7.936   5.808
    1ECLIP  C5537925   8.164   7.940   5.601
    1ECLIP H55R37926   8.239   8.021   5.591
    1ECLIP H55S37927   8.063   7.987   5.604
    1ECLIP  C5637928   8.175   7.852   5.476
    1ECLIP H56R37929   8.104   7.767   5.481
    1ECLIP H56S37930   8.276   7.806   5.471
    1ECLIP  C5737931   8.147   7.927   5.345
    1ECLIP H57R37932   8.226   8.003   5.327
    1ECLIP H57S37933   8.049   7.978   5.352
    1ECLIP  C5837934   8.144   7.828   5.228
    1ECLIP H58R37935   8.241   7.774   5.223
    1ECLIP H58S37936   8.066   7.751   5.252
    1ECLIP  C5937937   8.112   7.891   5.094
    1ECLIP H59R37938   8.182   7.976   5.075
    1ECLIP H59S37939   8.009   7.931   5.094
    1ECLIP C51037940   8.128   7.790   4.979
    1ECLIPH510R37941   8.076   7.695   5.006
    1ECLIPH510S37942   8.235   7.766   4.966
    1ECLIP C51137943   8.071   7.842   4.846
    1ECLIPH511R37944   7.960   7.844   4.852
    1ECLIPH511S37945   8.107   7.946   4.832
    1ECLIP C51237946   8.114   7.758   4.726
    1ECLIPH512R37947   8.081   7.812   4.634
    1ECLIPH512S37948   8.225   7.751   4.726
    1ECLIP C51337949   8.055   7.617   4.721
    1ECLIPH513R37950   7.945   7.629   4.723
    1ECLIPH513S37951   8.085   7.560   4.812
    1ECLIP C51437952   8.092   7.537   4.596
    1ECLIPH514R37953   8.202   7.521   4.592
    1ECLIPH514S37954   8.041   7.438   4.598
    1ECLIPH514T37955   8.060   7.591   4.505
    1ECLIP  C3337956   7.824   7.447   6.052
    1ECLIP H33R37957   7.796   7.351   6.102
    1ECLIP  O3337958   7.907   7.521   6.139
    1ECLIP HO3337959   7.972   7.464   6.182
    1ECLIP  C3437960   7.897   7.411   5.921
    1ECLIP H34R37961   7.915   7.504   5.863
    1ECLIP H34S37962   7.829   7.348   5.859
    1ECLIP  C3537963   8.030   7.337   5.938
    1ECLIP H35R37964   8.013   7.235   5.978
    1ECLIP H35S37965   8.094   7.392   6.010
    1ECLIP  C3637966   8.104   7.330   5.804
    1ECLIP H36R37967   8.103   7.431   5.759
    1ECLIP H36S37968   8.051   7.262   5.734
    1ECLIP  C3737969   8.250   7.286   5.818
    1ECLIP H37R37970   8.256   7.175   5.825
    1ECLIP H37S37971   8.292   7.326   5.913
    1ECLIP  C3837972   8.338   7.337   5.703
    1ECLIP H38R37973   8.343   7.448   5.708
    1ECLIP H38S37974   8.442   7.299   5.716
    1ECLIP  C3937975   8.287   7.297   5.564
    1ECLIP H39R37976   8.184   7.337   5.550
    1ECLIP H39S37977   8.281   7.186   5.558
    1ECLIP C31037978   8.376   7.349   5.450
    1ECLIPH310R37979   8.473   7.296   5.452
    1ECLIPH310S37980   8.396   7.457   5.469
    1ECLIP C31137981   8.309   7.332   5.313
    1ECLIPH311R37982   8.288   7.225   5.295
    1ECLIPH311S37983   8.212   7.386   5.318
    1ECLIP C31237984   8.393   7.389   5.198
    1ECLIPH312R37985   8.437   7.486   5.229
    1ECLIPH312S37986   8.477   7.319   5.176
    1ECLIP C31337987   8.310   7.413   5.071
    1ECLIPH313R37988   8.258   7.319   5.045
    1ECLIPH313S37989   8.233   7.489   5.095
    1ECLIP C31437990   8.391   7.461   4.951
    1ECLIPH314R37991   8.467   7.385   4.924
    1ECLIPH314S37992   8.325   7.479   4.865
    1ECLIPH314T37993   8.444   7.556   4.976
    1ECLIP  C1137994   7.654   8.053   5.776
    1ECLIP  O1137995   7.738   8.144   5.773
    1ECLIP  C1237996   7.551   8.033   5.667
    1ECLIP H12R37997   7.483   8.121   5.664
    1ECLIP H12S37998   7.489   7.945   5.695
    1ECLIP  C1337999   7.612   8.005   5.530
    1ECLIP H13R38000   7.716   7.964   5.537
    1ECLIP  O1338001   7.617   8.127   5.457
    1ECLIP HO1338002   7.642   8.113   5.365
    1ECLIP  C1438003   7.526   7.902   5.452
    1ECLIP H14R38004   7.419   7.921   5.478
    1ECLIP H14S38005   7.551   7.801   5.491
    1ECLIP  C1538006   7.536   7.902   5.299
    1ECLIP H15R38007   7.498   7.999   5.261
    1ECLIP H15S38008   7.468   7.824   5.259
    1ECLIP  C1638009   7.677   7.875   5.243
    1ECLIP H16R38010   7.694   7.766   5.247
    1ECLIP H16S38011   7.756   7.923   5.306
    1ECLIP  C1738012   7.691   7.923   5.098
    1ECLIP H17R38013   7.602   7.890   5.040
    1ECLIP H17S38014   7.780   7.874   5.054
    1ECLIP  C1838015   7.708   8.075   5.087
    1ECLIP H18R38016   7.633   8.126   5.151
    1ECLIP H18S38017   7.809   8.103   5.124
    1ECLIP  C1938018   7.689   8.129   4.944
    1ECLIP H19R38019   7.706   8.238   4.943
    1ECLIP H19S38020   7.583   8.112   4.915
    1ECLIP C11038021   7.779   8.061   4.840
    1ECLIPH110R38022   7.883   8.097   4.852
    1ECLIPH110S38023   7.779   7.951   4.853
    1ECLIP C11138024   7.730   8.088   4.697
    1ECLIPH111R38025   7.639   8.029   4.677
    1ECLIPH111S38026   7.701   8.195   4.691
    1ECLIP C11238027   7.835   8.058   4.590
    1ECLIPH112R38028   7.935   8.092   4.624
    1ECLIPH112S38029   7.841   7.948   4.575
    1ECLIP C11338030   7.802   8.130   4.459
    1ECLIPH113R38031   7.693   8.121   4.438
    1ECLIPH113S38032   7.819   8.239   4.474
    1ECLIP C11438033   7.882   8.083   4.339
    1ECLIPH114R38034   7.991   8.101   4.353
    1ECLIPH114S38035   7.868   7.974   4.322
    1ECLIPH114T38036   7.849   8.137   4.247
    2AKDO    C138037   8.230   7.680   6.882
    2AKDO   O1138038   8.354   7.666   6.903
    2AKDO   O1238039   8.147   7.589   6.858
    2AKDO    C238040   8.167   7.820   6.912
    2AKDO    C638041   8.205   8.038   6.997
    2AKDO    H638042   8.160   8.058   6.898
    2AKDO    O638043   8.261   7.907   6.980
    2AKDO    C338044   8.036   7.817   6.993
    2AKDO   H3138045   8.053   7.769   7.091
    2AKDO   H3238046   7.963   7.756   6.938
    2AKDO    C438047   7.979   7.955   7.013
    2AKDO    H438048   7.964   7.999   6.912
    2AKDO    O438049   7.854   7.957   7.080
    2AKDO    C538050   8.081   8.042   7.089
    2AKDO    H538051   8.047   8.148   7.089
    2AKDO    O538052   8.095   8.004   7.228
    2AKDO    C738053   8.305   8.153   6.999
    2AKDO    H738054   8.329   8.181   7.104
    2AKDO    O738055   8.246   8.267   6.933
    2AKDO   HO738056   8.286   8.269   6.846
    2AKDO    C838057   8.436   8.116   6.931
    2AKDO   H8138058   8.481   8.027   6.979
    2AKDO   H8238059   8.417   8.088   6.825
    2AKDO    O838060   8.530   8.224   6.938
    2AKDO   HO838061   8.568   8.229   6.849
    3AKDO    C138062   7.676   8.011   6.900
    3AKDO   O1138063   7.761   8.073   6.829
    3AKDO   O1238064   7.551   8.026   6.893
    3AKDO    C238065   7.726   7.927   7.024
    3AKDO    C638066   7.732   7.696   7.102
    3AKDO    H638067   7.840   7.708   7.124
    3AKDO    O638068   7.700   7.787   6.993
    3AKDO    C338069   7.648   7.962   7.151
    3AKDO   H3138070   7.539   7.950   7.131
    3AKDO   H3238071   7.665   8.069   7.175
    3AKDO    C438072   7.686   7.875   7.267
    3AKDO    H438073   7.795   7.883   7.288
    3AKDO    O438074   7.619   7.924   7.384
    3AKDO   HO438075   7.671   7.907   7.462
    3AKDO    C538076   7.655   7.730   7.230
    3AKDO    H538077   7.696   7.667   7.312
    3AKDO    O538078   7.515   7.700   7.219
    3AKDO   HO538079   7.506   7.606   7.207
    3AKDO    C738080   7.709   7.551   7.056
    3AKDO    H738081   7.606   7.542   7.016
    3AKDO    O738082   7.721   7.461   7.167
    3AKDO   HO738083   7.707   7.373   7.131
    3AKDO    C838084   7.808   7.511   6.948
    3AKDO   H8138085   7.796   7.578   6.861
    3AKDO   H8238086   7.912   7.523   6.985
    3AKDO    O838087   7.791   7.375   6.905
    3AKDO   HO838088   7.697   7.355   6.895
    4AHEP    C138089   8.156   8.098   7.318
    4AHEP    H138090   8.256   8.119   7.273
    4AHEP    C538091   7.972   8.224   7.410
    4AHEP    H538092   7.904   8.145   7.372
    4AHEP    O538093   8.090   8.226   7.326
    4AHEP    C238094   8.192   8.052   7.459
    4AHEP    H238095   8.228   7.948   7.450
    4AHEP    O238096   8.301   8.126   7.516
    4AHEP   HO238097   8.369   8.064   7.542
    4AHEP    C338098   8.073   8.049   7.554
    4AHEP    H338099   7.997   7.979   7.513
    4AHEP    O338100   8.118   8.010   7.684
    4AHEP    C438101   8.009   8.188   7.556
    4AHEP    H438102   8.085   8.260   7.594
    4AHEP    O438103   7.892   8.188   7.639
    4AHEP    P438104   7.857   8.303   7.755
    4AHEP  OP4238105   7.722   8.267   7.813
    4AHEP  OP4338106   7.854   8.440   7.689
    4AHEP  OP4438107   7.968   8.302   7.858
    4AHEP    C638108   7.898   8.357   7.401
    4AHEP    H638109   7.801   8.347   7.454
    4AHEP    O638110   7.973   8.459   7.466
    4AHEP   HO638111   7.940   8.447   7.556
    4AHEP    C738112   7.867   8.406   7.261
    4AHEP   H7138113   7.820   8.507   7.266
    4AHEP   H7238114   7.792   8.339   7.216
    4AHEP    O738115   7.986   8.416   7.181
    4AHEP   HO738116   8.052   8.375   7.237
    5AHEP    C138117   8.055   7.897   7.740
    5AHEP    H138118   7.956   7.882   7.690
    5AHEP    C538119   8.257   7.775   7.793
    5AHEP    H538120   8.318   7.857   7.748
    5AHEP    O538121   8.130   7.773   7.726
    5AHEP    C238122   8.029   7.923   7.886
    5AHEP    H238123   7.980   8.023   7.894
    5AHEP    O238124   7.937   7.827   7.940
    5AHEP   HO238125   7.967   7.740   7.914
    5AHEP    C338126   8.159   7.930   7.962
    5AHEP    H338127   8.219   8.016   7.924
    5AHEP    O338128   8.137   7.944   8.103
    5AHEP    C438129   8.236   7.802   7.943
    5AHEP    H438130   8.183   7.717   7.990
    5AHEP    O438131   8.367   7.821   7.995
    5AHEP    P438132   8.420   7.757   8.135
    5AHEP  OP4238133   8.538   7.845   8.172
    5AHEP  OP4338134   8.462   7.613   8.108
    5AHEP  OP4438135   8.309   7.770   8.236
    5AHEP    C638136   8.332   7.642   7.768
    5AHEP    H638137   8.432   7.650   7.816
    5AHEP    O638138   8.264   7.530   7.827
    5AHEP   HO638139   8.276   7.465   7.757
    5AHEP    C738140   8.352   7.610   7.620
    5AHEP   H7138141   8.461   7.614   7.601
    5AHEP   H7238142   8.307   7.690   7.557
    5AHEP    O738143   8.303   7.480   7.580
    6AHEP    C138144   8.175   7.487   7.523
    6AHEP    H138145   8.124   7.578   7.559
    6AHEP    C538146   8.230   7.376   7.314
    6AHEP    H538147   8.335   7.360   7.347
    6AHEP    O538148   8.180   7.495   7.379
    6AHEP    C238149   8.088   7.369   7.566
    6AHEP    H238150   8.097   7.359   7.676
    6AHEP    O238151   7.949   7.389   7.539
    6AHEP   HO238152   7.912   7.302   7.523
    6AHEP    C338153   8.141   7.241   7.505
    6AHEP    H338154   8.243   7.225   7.545
    6AHEP    O338155   8.062   7.128   7.543
    6AHEP   HO338156   8.104   7.050   7.506
    6AHEP    C438157   8.145   7.256   7.354
    6AHEP    H438158   8.041   7.272   7.316
    6AHEP    O438159   8.195   7.138   7.292
    6AHEP   HO438160   8.280   7.117   7.330
    6AHEP    C638161   8.229   7.390   7.160
    6AHEP    H638162   8.164   7.311   7.115
    6AHEP    O638163   8.173   7.516   7.120
    6AHEP   HO638164   8.168   7.516   7.023
    6AHEP    C738165   8.367   7.374   7.098
    6AHEP   H7138166   8.360   7.376   6.987
    6AHEP   H7238167   8.409   7.275   7.127
    6AHEP    O738168   8.458   7.477   7.141
    6AHEP   HO738169   8.418   7.558   7.110
    7AGLC    C138170   8.134   8.074   8.157
    7AGLC    H138171   8.212   8.138   8.110
    7AGLC    C538172   7.900   8.056   8.196
    7AGLC    H538173   7.902   7.956   8.148
    7AGLC    O538174   8.006   8.136   8.142
    7AGLC    C238175   8.158   8.060   8.307
    7AGLC    H238176   8.150   8.163   8.349
    7AGLC    O238177   8.291   8.017   8.334
    7AGLC   HO238178   8.301   7.930   8.296
    7AGLC    C338179   8.054   7.971   8.373
    7AGLC    H338180   8.057   7.871   8.326
    7AGLC    O338181   8.074   7.959   8.517
    7AGLC    C438182   7.919   8.037   8.346
    7AGLC    H438183   7.918   8.137   8.394
    7AGLC    O438184   7.811   7.961   8.398
    7AGLC   HO438185   7.730   7.984   8.351
    7AGLC    C638186   7.769   8.123   8.158
    7AGLC   H6138187   7.771   8.147   8.049
    7AGLC   H6238188   7.684   8.053   8.174
    7AGLC    O638189   7.747   8.243   8.233
    7AGLC   HO638190   7.785   8.313   8.179
    8AGLC    C138191   8.086   7.826   8.566
    8AGLC    H138192   8.010   7.761   8.518
    8AGLC    C538193   8.324   7.844   8.592
    8AGLC    H538194   8.316   7.950   8.559
    8AGLC    O538195   8.215   7.770   8.537
    8AGLC    C238196   8.069   7.821   8.720
    8AGLC    H238197   8.076   7.714   8.749
    8AGLC    O238198   7.942   7.873   8.769
    8AGLC    C338199   8.183   7.898   8.786
    8AGLC    H338200   8.175   8.004   8.757
    8AGLC    O338201   8.164   7.888   8.929
    8AGLC    C438202   8.317   7.843   8.742
    8AGLC    H438203   8.333   7.737   8.773
    8AGLC    O438204   8.423   7.924   8.795
    8AGLC   HO438205   8.456   7.981   8.726
    8AGLC    C638206   8.454   7.786   8.539
    8AGLC   H6138207   8.449   7.776   8.429
    8AGLC   H6238208   8.537   7.857   8.561
    8AGLC    O638209   8.491   7.659   8.596
    8AGLC   HO638210   8.583   7.647   8.571
    9AGAL    C138211   7.823   7.830   8.705
    9AGAL    H138212   7.834   7.836   8.595
    9AGAL    C538213   7.755   7.669   8.872
    9AGAL    H538214   7.840   7.707   8.931
    9AGAL    O538215   7.790   7.692   8.733
    9AGAL    C238216   7.704   7.922   8.742
    9AGAL    H238217   7.618   7.889   8.679
    9AGAL    O238218   7.733   8.057   8.696
    9AGAL    C338219   7.666   7.898   8.888
    9AGAL    H338220   7.754   7.924   8.951
    9AGAL    O338221   7.553   7.973   8.936
    9AGAL   HO338222   7.478   7.946   8.882
    9AGAL    C438223   7.633   7.751   8.905
    9AGAL    H438224   7.609   7.732   9.012
    9AGAL    O438225   7.519   7.714   8.827
    9AGAL   HO438226   7.549   7.689   8.740
    9AGAL    C638227   7.744   7.520   8.906
    9AGAL   H6138228   7.802   7.459   8.833
    9AGAL   H6238229   7.789   7.504   9.006
    9AGAL    O638230   7.612   7.467   8.918
    9AGAL   HO638231   7.582   7.440   8.830
   10AGAL    C138232   7.659   8.164   8.750
   10AGAL    H138233   7.553   8.132   8.766
   10AGAL    C538234   7.851   8.265   8.849
   10AGAL    H538235   7.910   8.192   8.790
   10AGAL    O538236   7.720   8.207   8.872
   10AGAL    C238237   7.646   8.285   8.657
   10AGAL    H238238   7.584   8.358   8.712
   10AGAL    O238239   7.573   8.254   8.537
   10AGAL   HO238240   7.625   8.198   8.479
   10AGAL    C338241   7.779   8.352   8.630
   10AGAL    H338242   7.847   8.278   8.580
   10AGAL    O338243   7.767   8.465   8.543
   10AGAL   HO338244   7.745   8.437   8.454
   10AGAL    C438245   7.840   8.391   8.763
   10AGAL    H438246   7.942   8.430   8.747
   10AGAL    O438247   7.764   8.492   8.832
   10AGAL   HO438248   7.765   8.570   8.774
   10AGAL    C638249   7.928   8.285   8.978
   10AGAL   H6138250   7.966   8.185   9.011
   10AGAL   H6238251   8.018   8.348   8.959
   10AGAL    O638252   7.851   8.342   9.084
   10AGAL   HO638253   7.904   8.335   9.164
   11BGLC    C138254   8.245   7.801   9.006
   11BGLC    H138255   8.350   7.837   9.009
   11BGLC    C538256   8.320   7.575   9.032
   11BGLC    H538257   8.424   7.614   9.035
   11BGLC    O538258   8.239   7.667   8.957
   11BGLC    C238259   8.188   7.800   9.146
   11BGLC    H238260   8.082   7.768   9.134
   11BGLC    O238261   8.191   7.930   9.207
   11BGLC   HO238262   8.117   7.934   9.266
   11BGLC    C338263   8.261   7.704   9.236
   11BGLC    H338264   8.363   7.742   9.260
   11BGLC    O338265   8.179   7.686   9.355
   11BGLC    C438266   8.263   7.568   9.172
   11BGLC    H438267   8.160   7.527   9.168
   11BGLC    O438268   8.342   7.480   9.252
   11BGLC   HO438269   8.283   7.441   9.315
   11BGLC    C638270   8.321   7.443   8.957
   11BGLC   H6138271   8.245   7.372   8.998
   11BGLC   H6238272   8.293   7.461   8.851
   11BGLC    O638273   8.449   7.381   8.955
   11BGLC   HO638274   8.460   7.327   9.035
   12BGLCN   C138275   8.237   7.708   9.480
   12BGLCN   H138276   8.261   7.816   9.488
   12BGLCN   C538277   8.420   7.655   9.622
   12BGLCN   H538278   8.448   7.762   9.624
   12BGLCN   O538279   8.355   7.630   9.497
   12BGLCN   C238280   8.139   7.667   9.591
   12BGLCN   H238281   8.135   7.556   9.589
   12BGLCN    N38282   8.004   7.710   9.558
   12BGLCN   HN38283   7.995   7.764   9.476
   12BGLCN    C38284   7.895   7.652   9.608
   12BGLCN    O38285   7.897   7.587   9.710
   12BGLCN   CT38286   7.767   7.671   9.531
   12BGLCN  HT138287   7.690   7.601   9.570
   12BGLCN  HT238288   7.783   7.647   9.424
   12BGLCN  HT338289   7.732   7.776   9.540
   12BGLCN   C338290   8.202   7.706   9.727
   12BGLCN   H338291   8.228   7.813   9.714
   12BGLCN   O338292   8.134   7.692   9.855
   12BGLCN   C438293   8.328   7.624   9.737
   12BGLCN   H438294   8.299   7.517   9.733
   12BGLCN   O438295   8.397   7.642   9.860
   12BGLCN  HO438296   8.453   7.721   9.854
   12BGLCN   C638297   8.542   7.567   9.625
   12BGLCN  H6138298   8.529   7.488   9.702
   12BGLCN  H6238299   8.552   7.512   9.530
   12BGLCN   O638300   8.661   7.642   9.653
   12BGLCN  HO638301   8.710   7.657   9.571
   13AGAL    C138302   8.155   7.804   9.939
   13AGAL    H138303   8.262   7.834   9.938
   13AGAL    C538304   7.937   7.884   9.892
   13AGAL    H538305   7.932   7.779   9.855
   13AGAL    O538306   8.077   7.913   9.882
   13AGAL    C238307   8.114   7.785  10.091
   13AGAL    H238308   8.131   7.886  10.135
   13AGAL    O238309   8.188   7.697  10.181
   13AGAL    C338310   7.967   7.756  10.090
   13AGAL    H338311   7.959   7.669  10.021
   13AGAL    O338312   7.904   7.703  10.204
   13AGAL   HO338313   7.820   7.665  10.175
   13AGAL    C438314   7.895   7.874  10.035
   13AGAL    H438315   7.784   7.864  10.035
   13AGAL    O438316   7.921   7.995  10.106
   13AGAL   HO438317   7.890   7.982  10.196
   13AGAL    C638318   7.823   7.928   9.802
   13AGAL   H6138319   7.835   7.896   9.696
   13AGAL   H6238320   7.738   7.865   9.837
   13AGAL    O638321   7.764   8.054   9.818
   13AGAL   HO638322   7.828   8.121   9.793
   14ARHM    C138323   8.211   7.730  10.321
   14ARHM    H138324   8.231   7.838  10.332
   14ARHM    C538325   8.312   7.518  10.356
   14ARHM    H538326   8.292   7.488  10.252
   14ARHM    O538327   8.329   7.661  10.363
   14ARHM    C238328   8.098   7.693  10.419
   14ARHM    H238329   8.008   7.753  10.393
   14ARHM    O238330   8.111   7.718  10.561
   14ARHM    C338331   8.073   7.545  10.403
   14ARHM    H338332   8.057   7.524  10.294
   14ARHM    O338333   7.954   7.503  10.469
   14ARHM   HO338334   7.975   7.494  10.562
   14ARHM    C438335   8.198   7.470  10.444
   14ARHM    H438336   8.222   7.493  10.550
   14ARHM    O438337   8.182   7.329  10.431
   14ARHM   HO438338   8.240   7.288  10.495
   14ARHM    C638339   8.447   7.459  10.398
   14ARHM   H6138340   8.528   7.507  10.337
   14ARHM   H6238341   8.466   7.477  10.505
   14ARHM   H6338342   8.450   7.349  10.379
   15ARHM    C138343   8.122   7.853  10.604
   15ARHM    H138344   8.064   7.917  10.535
   15ARHM    C538345   8.332   7.798  10.698
   15ARHM    H538346   8.319   7.692  10.668
   15ARHM    O538347   8.261   7.885  10.608
   15ARHM    C238348   8.065   7.877  10.747
   15ARHM    H238349   7.955   7.861  10.745
   15ARHM    O238350   8.094   8.014  10.792
   15ARHM    C338351   8.131   7.781  10.839
   15ARHM    H338352   8.123   7.679  10.796
   15ARHM    O338353   8.053   7.780  10.960
   15ARHM    C438354   8.280   7.814  10.841
   15ARHM    H438355   8.295   7.920  10.873
   15ARHM    O438356   8.354   7.733  10.932
   15ARHM   HO438357   8.447   7.757  10.923
   15ARHM    C638358   8.480   7.832  10.679
   15ARHM   H6138359   8.544   7.766  10.742
   15ARHM   H6238360   8.508   7.814  10.573
   15ARHM   H6338361   8.501   7.937  10.707
   16BMANN   C138362   8.041   8.071  10.911
   16BMANN   H138363   8.070   8.010  10.999
   16BMANN   C538364   7.839   8.141  11.023
   16BMANN   H538365   7.876   8.085  11.111
   16BMANN   O538366   7.898   8.082  10.905
   16BMANN   C238367   8.102   8.213  10.929
   16BMANN   H238368   8.208   8.193  10.957
   16BMANN    N38369   8.109   8.299  10.812
   16BMANN   HN38370   8.044   8.277  10.740
   16BMANN    C38371   8.194   8.401  10.790
   16BMANN    O38372   8.282   8.434  10.870
   16BMANN   CT38373   8.176   8.479  10.663
   16BMANN  HT138374   8.250   8.562  10.660
   16BMANN  HT238375   8.074   8.522  10.657
   16BMANN  HT338376   8.194   8.415  10.575
   16BMANN   C338377   8.039   8.280  11.052
   16BMANN   H338378   8.064   8.218  11.141
   16BMANN   O338379   8.091   8.410  11.078
   16BMANN  HO338380   8.056   8.470  11.012
   16BMANN   C438381   7.888   8.284  11.040
   16BMANN   H438382   7.859   8.342  10.950
   16BMANN   O438383   7.828   8.344  11.155
   16BMANN  HO438384   7.824   8.439  11.144
   16BMANN   C638385   7.688   8.126  11.022
   16BMANN  H6138386   7.639   8.206  11.082
   16BMANN  H6238387   7.648   8.133  10.918
   16BMANN   O638388   7.649   8.000  11.075
   16BMANN  HO638389   7.553   7.995  11.082
   17BGLCN   C138390   8.058   7.659  11.030
   17BGLCN   H138391   8.160   7.616  11.023
   17BGLCN   C538392   7.972   7.437  11.064
   17BGLCN   H538393   8.076   7.399  11.051
   17BGLCN   O538394   7.961   7.561  10.988
   17BGLCN   C238395   8.026   7.694  11.173
   17BGLCN   H238396   7.917   7.714  11.176
   17BGLCN    N38397   8.093   7.816  11.220
   17BGLCN   HN38398   8.191   7.824  11.203
   17BGLCN    C38399   8.034   7.919  11.280
   17BGLCN    O38400   7.913   7.926  11.297
   17BGLCN   CT38401   8.124   8.030  11.326
   17BGLCN  HT138402   8.063   8.115  11.364
   17BGLCN  HT238403   8.188   8.065  11.242
   17BGLCN  HT338404   8.191   7.994  11.408
   17BGLCN   C338405   8.049   7.568  11.253
   17BGLCN   H338406   8.146   7.528  11.220
   17BGLCN   O338407   8.059   7.600  11.392
   17BGLCN   C438408   7.950   7.463  11.211
   17BGLCN   H438409   7.846   7.497  11.229
   17BGLCN   O438410   7.974   7.344  11.286
   17BGLCN  HO438411   7.890   7.301  11.307
   17BGLCN   C638412   7.882   7.328  11.005
   17BGLCN  H6138413   7.939   7.276  10.926
   17BGLCN  H6238414   7.858   7.251  11.082
   17BGLCN   O638415   7.760   7.375  10.947
   17BGLCN  HO638416   7.744   7.320  10.870
   18AGAL    C138417   8.151   7.521  11.467
   18AGAL    H138418   8.102   7.425  11.495
   18AGAL    C538419   8.347   7.611  11.359
   18AGAL    H538420   8.278   7.672  11.298
   18AGAL    O538421   8.276   7.492  11.401
   18AGAL    C238422   8.182   7.600  11.592
   18AGAL    H238423   8.254   7.539  11.651
   18AGAL    O238424   8.063   7.621  11.668
   18AGAL    C338425   8.250   7.730  11.552
   18AGAL    H338426   8.184   7.786  11.484
   18AGAL    O338427   8.272   7.813  11.666
   18AGAL   HO338428   8.189   7.855  11.693
   18AGAL    C438429   8.380   7.698  11.479
   18AGAL    H438430   8.423   7.793  11.439
   18AGAL    O438431   8.476   7.638  11.565
   18AGAL   HO438432   8.562   7.627  11.523
   18AGAL    C638433   8.465   7.584  11.266
   18AGAL   H6138434   8.440   7.626  11.165
   18AGAL   H6238435   8.554   7.640  11.300
   18AGAL    O638436   8.497   7.446  11.246
   18AGAL   HO638437   8.547   7.414  11.321
   19ARHM    C138438   8.076   7.586  11.802
   19ARHM    H138439   8.180   7.605  11.836
   19ARHM    C538440   7.910   7.413  11.783
   19ARHM    H538441   7.899   7.434  11.675
   19ARHM    O538442   8.043   7.448  11.826
   19ARHM    C238443   7.979   7.672  11.880
   19ARHM    H238444   7.991   7.776  11.843
   19ARHM    O238445   8.012   7.671  12.020
   19ARHM    C338446   7.836   7.641  11.842
   19ARHM    H338447   7.822   7.666  11.735
   19ARHM    O338448   7.744   7.720  11.918
   19ARHM   HO338449   7.657   7.686  11.894
   19ARHM    C438450   7.807   7.494  11.863
   19ARHM    H438451   7.814   7.470  11.970
   19ARHM    O438452   7.674   7.461  11.825
   19ARHM   HO438453   7.666   7.471  11.729
   19ARHM    C638454   7.900   7.262  11.805
   19ARHM   H6138455   7.982   7.208  11.752
   19ARHM   H6238456   7.905   7.236  11.912
   19ARHM   H6338457   7.804   7.224  11.763
   20ARHM    C138458   8.123   7.754  12.050
   20ARHM    H138459   8.132   7.835  11.974
   20ARHM    C538460   8.262   7.587  12.152
   20ARHM    H538461   8.181   7.512  12.137
   20ARHM    O538462   8.250   7.686  12.050
   20ARHM    C238463   8.099   7.818  12.182
   20ARHM    H238464   7.996   7.860  12.184
   20ARHM    O238465   8.192   7.924  12.207
   20ARHM    C338466   8.107   7.716  12.293
   20ARHM    H338467   8.028   7.640  12.280
   20ARHM    O338468   8.092   7.787  12.415
   20ARHM    C438469   8.243   7.654  12.287
   20ARHM    H438470   8.316   7.737  12.294
   20ARHM    O438471   8.271   7.567  12.397
   20ARHM   HO438472   8.233   7.481  12.377
   20ARHM    C638473   8.394   7.510  12.140
   20ARHM   H6138474   8.479   7.573  12.172
   20ARHM   H6238475   8.393   7.418  12.203
   20ARHM   H6338476   8.411   7.479  12.034
   21BMANN   C138477   8.164   8.044  12.140
   21BMANN   H138478   8.065   8.039  12.089
   21BMANN   C538479   8.236   8.197  11.974
   21BMANN   H538480   8.134   8.191  11.930
   21BMANN   O538481   8.265   8.074  12.043
   21BMANN   C238482   8.163   8.153  12.245
   21BMANN   H238483   8.073   8.132  12.307
   21BMANN    N38484   8.280   8.151  12.331
   21BMANN   HN38485   8.368   8.136  12.286
   21BMANN    C38486   8.273   8.169  12.463
   21BMANN    O38487   8.166   8.176  12.523
   21BMANN   CT38488   8.402   8.181  12.536
   21BMANN  HT138489   8.482   8.222  12.470
   21BMANN  HT238490   8.433   8.082  12.575
   21BMANN  HT338491   8.387   8.250  12.623
   21BMANN   C338492   8.135   8.286  12.179
   21BMANN   H338493   8.036   8.280  12.130
   21BMANN   O338494   8.129   8.392  12.273
   21BMANN  HO338495   8.116   8.473  12.224
   21BMANN   C438496   8.239   8.312  12.072
   21BMANN   H438497   8.340   8.317  12.120
   21BMANN   O438498   8.214   8.435  12.006
   21BMANN  HO438499   8.297   8.482  11.991
   21BMANN   C638500   8.331   8.216  11.859
   21BMANN  H6138501   8.295   8.299  11.794
   21BMANN  H6238502   8.432   8.243  11.897
   21BMANN   O638503   8.341   8.099  11.777
   21BMANN  HO638504   8.379   8.028  11.831
   22BGLCN   C138505   8.014   7.723  12.510
   22BGLCN   H138506   8.026   7.612  12.508
   22BGLCN   C538507   7.793   7.734  12.600
   22BGLCN   H538508   7.785   7.624  12.611
   22BGLCN   O538509   7.880   7.765  12.491
   22BGLCN   C238510   8.072   7.783  12.634
   22BGLCN   H238511   8.065   7.894  12.624
   22BGLCN    N38512   8.213   7.748  12.648
   22BGLCN   HN38513   8.240   7.661  12.607
   22BGLCN    C38514   8.306   7.829  12.700
   22BGLCN    O38515   8.282   7.940  12.745
   22BGLCN   CT38516   8.444   7.772  12.710
   22BGLCN  HT138517   8.515   7.837  12.652
   22BGLCN  HT238518   8.447   7.669  12.668
   22BGLCN  HT338519   8.477   7.769  12.815
   22BGLCN   C338520   7.988   7.745  12.755
   22BGLCN   H338521   7.984   7.634  12.762
   22BGLCN   O338522   8.056   7.798  12.868
   22BGLCN   C438523   7.848   7.796  12.729
   22BGLCN   H438524   7.855   7.906  12.714
   22BGLCN   O438525   7.759   7.773  12.838
   22BGLCN  HO438526   7.706   7.853  12.847
   22BGLCN   C638527   7.658   7.791  12.564
   22BGLCN  H6138528   7.581   7.756  12.635
   22BGLCN  H6238529   7.663   7.902  12.571
   22BGLCN   O638530   7.617   7.756  12.430
   22BGLCN  HO638531   7.684   7.784  12.367
   23AGAL    C138532   8.026   7.745  12.995
   23AGAL    H138533   7.925   7.780  13.026
   23AGAL    C538534   8.154   7.544  12.960
   23AGAL    H538535   8.179   7.578  12.857
   23AGAL    O538536   8.027   7.601  13.000
   23AGAL    C238537   8.131   7.797  13.092
   23AGAL    H238538   8.108   7.751  13.189
   23AGAL    O238539   8.125   7.939  13.110
   23AGAL    C338540   8.268   7.744  13.051
   23AGAL    H338541   8.288   7.779  12.947
   23AGAL    O338542   8.374   7.796  13.131
   23AGAL   HO338543   8.458   7.772  13.092
   23AGAL    C438544   8.267   7.592  13.052
   23AGAL    H438545   8.363   7.555  13.009
   23AGAL    O438546   8.255   7.536  13.182
   23AGAL   HO438547   8.212   7.452  13.170
   23AGAL    C638548   8.139   7.392  12.954
   23AGAL   H6138549   8.059   7.367  12.883
   23AGAL   H6238550   8.233   7.348  12.916
   23AGAL    O638551   8.108   7.331  13.081
   23AGAL   HO638552   8.147   7.244  13.085
   24ARHM    C138553   8.026   7.982  13.201
   24ARHM    H138554   7.945   7.907  13.207
   24ARHM    C538555   8.058   8.210  13.147
   24ARHM    H538556   8.138   8.185  13.074
   24ARHM    O538557   7.964   8.102  13.155
   24ARHM    C238558   8.085   8.001  13.339
   24ARHM    H238559   8.138   7.908  13.370
   24ARHM    O238560   7.986   8.033  13.439
   24ARHM    C338561   8.187   8.112  13.335
   24ARHM    H338562   8.268   8.082  13.265
   24ARHM    O338563   8.246   8.131  13.464
   24ARHM   HO338564   8.199   8.201  13.508
   24ARHM    C438565   8.121   8.239  13.283
   24ARHM    H438566   8.041   8.270  13.353
   24ARHM    O438567   8.217   8.344  13.273
   24ARHM   HO438568   8.174   8.428  13.255
   24ARHM    C638569   7.975   8.326  13.090
   24ARHM   H6138570   8.041   8.412  13.064
   24ARHM   H6238571   7.922   8.295  12.998
   24ARHM   H6338572   7.899   8.359  13.165
   25ARHM    C138573   7.910   7.926  13.491
   25ARHM    H138574   7.920   7.837  13.425
   25ARHM    C538575   7.748   8.078  13.575
   25ARHM    H538576   7.804   8.164  13.533
   25ARHM    O538577   7.771   7.961  13.495
   25ARHM    C238578   7.960   7.893  13.630
   25ARHM    H238579   8.069   7.875  13.624
   25ARHM    O238580   7.892   7.776  13.682
   25ARHM    C338581   7.942   8.014  13.720
   25ARHM    H338582   8.003   8.097  13.679
   25ARHM    O338583   7.991   7.977  13.849
   25ARHM    C438584   7.796   8.054  13.720
   25ARHM    H438585   7.736   7.971  13.763
   25ARHM    O438586   7.774   8.171  13.797
   25ARHM   HO438587   7.802   8.248  13.746
   25ARHM    C638588   7.598   8.111  13.565
   25ARHM   H6138589   7.569   8.126  13.458
   25ARHM   H6238590   7.537   8.027  13.606
   25ARHM   H6338591   7.573   8.203  13.621
   26BMANN   C138592   7.951   7.652  13.648
   26BMANN   H138593   8.047   7.671  13.595
   26BMANN   C538594   7.934   7.449  13.520
   26BMANN   H538595   8.023   7.478  13.460
   26BMANN   O538596   7.866   7.568  13.565
   26BMANN   C238597   7.987   7.572  13.769
   26BMANN   H238598   8.050   7.637  13.833
   26BMANN    N38599   7.868   7.533  13.843
   26BMANN   HN38600   7.788   7.505  13.790
   26BMANN    C38601   7.864   7.517  13.974
   26BMANN    O38602   7.952   7.558  14.050
   26BMANN   CT38603   7.746   7.442  14.026
   26BMANN  HT138604   7.656   7.468  13.967
   26BMANN  HT238605   7.727   7.468  14.134
   26BMANN  HT338606   7.764   7.333  14.019
   26BMANN   C338607   8.069   7.451  13.725
   26BMANN   H338608   8.156   7.488  13.666
   26BMANN   O338609   8.122   7.378  13.835
   26BMANN  HO338610   8.159   7.298  13.798
   26BMANN   C438611   7.983   7.364  13.637
   26BMANN   H438612   7.897   7.327  13.696
   26BMANN   O438613   8.055   7.251  13.588
   26BMANN  HO438614   8.001   7.173  13.599
   26BMANN   C638615   7.841   7.376  13.425
   26BMANN  H6138616   7.762   7.445  13.390
   26BMANN  H6238617   7.899   7.346  13.335
   26BMANN   O638618   7.779   7.260  13.481
   26BMANN  HO638619   7.700   7.239  13.430
   27BGLCN   C138620   8.053   8.079  13.925
   27BGLCN   H138621   7.994   8.173  13.920
   27BGLCN   C538622   8.253   8.200  13.963
   27BGLCN   H538623   8.191   8.292  13.961
   27BGLCN   O538624   8.188   8.101  13.881
   27BGLCN   C238625   8.058   8.024  14.066
   27BGLCN   H238626   8.126   7.936  14.061
   27BGLCN    N38627   7.928   7.979  14.111
   27BGLCN   HN38628   7.851   8.037  14.088
   27BGLCN    C38629   7.908   7.864  14.175
   27BGLCN    O38630   8.000   7.794  14.217
   27BGLCN   CT38631   7.764   7.823  14.189
   27BGLCN  HT138632   7.709   7.899  14.250
   27BGLCN  HT238633   7.756   7.724  14.238
   27BGLCN  HT338634   7.718   7.815  14.089
   27BGLCN   C338635   8.123   8.124  14.161
   27BGLCN   H338636   8.064   8.218  14.152
   27BGLCN   O338637   8.115   8.074  14.297
   27BGLCN   C438638   8.263   8.149  14.106
   27BGLCN   H438639   8.318   8.053  14.106
   27BGLCN   O438640   8.338   8.239  14.186
   27BGLCN  HO438641   8.303   8.328  14.175
   27BGLCN   C638642   8.387   8.236  13.899
   27BGLCN  H6138643   8.440   8.311  13.963
   27BGLCN  H6238644   8.451   8.146  13.894
   27BGLCN   O638645   8.369   8.294  13.770
   27BGLCN  HO638646   8.430   8.255  13.707
   28AGAL    C138647   8.132   8.169  14.400
   28AGAL    H138648   8.239   8.197  14.407
   28AGAL    C538649   7.914   8.269  14.383
   28AGAL    H538650   7.886   8.194  14.305
   28AGAL    O538651   8.057   8.289  14.377
   28AGAL    C238652   8.093   8.115  14.538
   28AGAL    H238653   8.111   8.201  14.606
   28AGAL    O238654   8.174   8.005  14.585
   28AGAL    C338655   7.944   8.084  14.540
   28AGAL    H338656   7.921   8.016  14.456
   28AGAL    O338657   7.905   8.017  14.660
   28AGAL   HO338658   7.813   8.036  14.677
   28AGAL    C438659   7.868   8.213  14.518
   28AGAL    H438660   7.759   8.191  14.512
   28AGAL    O438661   7.888   8.308  14.622
   28AGAL   HO438662   7.885   8.394  14.579
   28AGAL    C638663   7.846   8.399  14.346
   28AGAL   H6138664   7.873   8.425  14.241
   28AGAL   H6238665   7.736   8.387  14.350
   28AGAL    O638666   7.886   8.508  14.430
   28AGAL   HO638667   7.969   8.541  14.396
   29ARHM    C138668   8.202   8.012  14.724
   29ARHM    H138669   8.130   8.079  14.774
   29ARHM    C538670   8.436   7.979  14.684
   29ARHM    H538671   8.416   7.971  14.575
   29ARHM    O538672   8.335   8.062  14.745
   29ARHM    C238673   8.191   7.875  14.790
   29ARHM    H238674   8.091   7.835  14.762
   29ARHM    O238675   8.202   7.880  14.934
   29ARHM    C338676   8.294   7.782  14.732
   29ARHM    H338677   8.273   7.767  14.624
   29ARHM    O338678   8.290   7.654  14.796
   29ARHM   HO338679   8.347   7.656  14.873
   29ARHM    C438680   8.432   7.841  14.748
   29ARHM    H438681   8.454   7.854  14.856
   29ARHM    O438682   8.532   7.756  14.691
   29ARHM   HO438683   8.488   7.680  14.653
   29ARHM    C638684   8.571   8.050  14.703
   29ARHM   H6138685   8.566   8.154  14.663
   29ARHM   H6238686   8.599   8.055  14.810
   29ARHM   H6338687   8.651   7.996  14.648
   30ARHM    C138688   8.077   7.884  15.001
   30ARHM    H138689   8.009   7.806  14.961
   30ARHM    C538690   8.096   8.118  15.040
   30ARHM    H538691   8.191   8.123  14.982
   30ARHM    O538692   8.015   8.013  14.989
   30ARHM    C238693   8.097   7.858  15.150
   30ARHM    H238694   8.141   7.757  15.164
   30ARHM    O238695   7.969   7.868  15.214
   30ARHM    C338696   8.192   7.962  15.209
   30ARHM    H338697   8.283   7.961  15.146
   30ARHM    O338698   8.238   7.925  15.341
   30ARHM    C438699   8.127   8.099  15.189
   30ARHM    H438700   8.032   8.105  15.246
   30ARHM    O438701   8.213   8.205  15.231
   30ARHM   HO438702   8.290   8.205  15.173
   30ARHM    C638703   8.017   8.246  15.006
   30ARHM   H6138704   8.074   8.337  15.033
   30ARHM   H6238705   7.996   8.249  14.897
   30ARHM   H6338706   7.919   8.246  15.059
   31BMANN   C138707   7.900   7.747  15.238
   31BMANN   H138708   7.969   7.674  15.286
   31BMANN   C538709   7.767   7.568  15.152
   31BMANN   H538710   7.836   7.496  15.201
   31BMANN   O538711   7.840   7.689  15.121
   31BMANN   C238712   7.790   7.787  15.334
   31BMANN   H238713   7.837   7.831  15.425
   31BMANN    N38714   7.704   7.892  15.280
   31BMANN   HN38715   7.727   7.922  15.187
   31BMANN    C38716   7.602   7.954  15.341
   31BMANN    O38717   7.562   7.923  15.453
   31BMANN   CT38718   7.537   8.067  15.268
   31BMANN  HT138719   7.468   8.028  15.190
   31BMANN  HT238720   7.615   8.130  15.219
   31BMANN  HT338721   7.479   8.129  15.339
   31BMANN   C338722   7.719   7.659  15.372
   31BMANN   H338723   7.796   7.585  15.404
   31BMANN   O338724   7.635   7.675  15.485
   31BMANN  HO338725   7.600   7.763  15.479
   31BMANN   C438726   7.655   7.598  15.250
   31BMANN   H438727   7.584   7.672  15.206
   31BMANN   O438728   7.580   7.480  15.281
   31BMANN  HO438729   7.528   7.496  15.360
   31BMANN   C638730   7.719   7.501  15.024
   31BMANN  H6138731   7.641   7.424  15.046
   31BMANN  H6238732   7.673   7.575  14.955
   31BMANN   O638733   7.826   7.435  14.957
   31BMANN  HO638734   7.896   7.498  14.944
   32BGLCN   C138735   8.160   7.961  15.454
   32BGLCN   H138736   8.054   7.934  15.434
   32BGLCN   C538737   8.085   8.147  15.586
   32BGLCN   H538738   7.979   8.129  15.556
   32BGLCN   O538739   8.172   8.101  15.481
   32BGLCN   C238740   8.207   7.891  15.583
   32BGLCN   H238741   8.301   7.944  15.610
   32BGLCN    N38742   8.239   7.750  15.572
   32BGLCN   HN38743   8.159   7.692  15.554
   32BGLCN    C38744   8.360   7.697  15.598
   32BGLCN    O38745   8.460   7.767  15.614
   32BGLCN   CT38746   8.370   7.548  15.610
   32BGLCN  HT138747   8.348   7.499  15.512
   32BGLCN  HT238748   8.301   7.509  15.688
   32BGLCN  HT338749   8.474   7.521  15.639
   32BGLCN   C338750   8.107   7.925  15.695
   32BGLCN   H338751   8.007   7.904  15.652
   32BGLCN   O338752   8.121   7.847  15.818
   32BGLCN   C438753   8.116   8.074  15.716
   32BGLCN   H438754   8.220   8.099  15.747
   32BGLCN   O438755   8.028   8.118  15.818
   32BGLCN  HO438756   8.070   8.189  15.868
   32BGLCN   C638757   8.109   8.297  15.595
   32BGLCN  H6138758   8.031   8.345  15.658
   32BGLCN  H6238759   8.207   8.314  15.643
   32BGLCN   O638760   8.112   8.359  15.466
   32BGLCN  HO638761   8.153   8.297  15.405
   33AGAL    C138762   7.996   7.795  15.864
   33AGAL    H138763   7.914   7.866  15.838
   33AGAL    C538764   8.059   7.563  15.840
   33AGAL    H538765   8.162   7.602  15.826
   33AGAL    O538766   7.968   7.668  15.799
   33AGAL    C238767   7.985   7.773  16.015
   33AGAL    H238768   7.880   7.743  16.035
   33AGAL    O238769   8.011   7.896  16.084
   33AGAL    C338770   8.077   7.662  16.062
   33AGAL    H338771   8.180   7.692  16.037
   33AGAL    O338772   8.077   7.643  16.204
   33AGAL   HO338773   7.991   7.610  16.232
   33AGAL    C438774   8.045   7.533  15.989
   33AGAL    H438775   8.119   7.456  16.018
   33AGAL    O438776   7.915   7.482  16.016
   33AGAL   HO438777   7.893   7.496  16.109
   33AGAL    C638778   8.052   7.439  15.752
   33AGAL   H6138779   8.087   7.464  15.649
   33AGAL   H6238780   8.122   7.362  15.791
   33AGAL    O638781   7.923   7.380  15.740
   33AGAL   HO638782   7.855   7.439  15.774
   34ARHM    C138783   7.934   7.921  16.200
   34ARHM    H138784   7.919   7.828  16.259
   34ARHM    C538785   7.814   8.099  16.094
   34ARHM    H538786   7.862   8.076  15.996
   34ARHM    O538787   7.806   7.979  16.171
   34ARHM    C238788   8.013   8.020  16.282
   34ARHM    H238789   8.116   7.981  16.295
   34ARHM    O238790   7.956   8.040  16.413
   34ARHM    C338791   8.030   8.149  16.204
   34ARHM    H338792   8.083   8.127  16.109
   34ARHM    O338793   8.108   8.247  16.273
   34ARHM   HO338794   8.089   8.327  16.223
   34ARHM    C438795   7.894   8.205  16.170
   34ARHM    H438796   7.840   8.230  16.263
   34ARHM    O438797   7.908   8.323  16.091
   34ARHM   HO438798   7.826   8.349  16.049
   34ARHM    C638799   7.669   8.141  16.070
   34ARHM   H6138800   7.620   8.172  16.165
   34ARHM   H6238801   7.663   8.226  15.998
   34ARHM   H6338802   7.611   8.056  16.028
   35ARHM    C138803   7.968   7.933  16.504
   35ARHM    H138804   8.059   7.872  16.482
   35ARHM    C538805   7.732   7.918  16.530
   35ARHM    H538806   7.716   7.990  16.447
   35ARHM    O538807   7.853   7.846  16.505
   35ARHM    C238808   7.982   7.995  16.641
   35ARHM    H238809   8.066   8.067  16.636
   35ARHM    O238810   8.009   7.898  16.746
   35ARHM    C338811   7.859   8.078  16.670
   35ARHM    H338812   7.849   8.156  16.592
   35ARHM    O338813   7.873   8.146  16.795
   35ARHM   HO338814   7.836   8.093  16.866
   35ARHM    C438815   7.738   7.988  16.665
   35ARHM    H438816   7.747   7.910  16.744
   35ARHM    O438817   7.619   8.063  16.685
   35ARHM   HO438818   7.619   8.097  16.775
   35ARHM    C638819   7.619   7.812  16.525
   35ARHM   H6138820   7.632   7.746  16.436
   35ARHM   H6238821   7.621   7.747  16.615
   35ARHM   H6338822   7.520   7.861  16.519
   36BMANN   C138823   8.141   7.849  16.745
   36BMANN   H138824   8.210   7.926  16.704
   36BMANN   C538825   8.293   7.687  16.656
   36BMANN   H538826   8.349   7.771  16.609
   36BMANN   O538827   8.156   7.728  16.666
   36BMANN   C238828   8.186   7.816  16.886
   36BMANN   H238829   8.174   7.908  16.946
   36BMANN    N38830   8.106   7.710  16.945
   36BMANN   HN38831   8.070   7.642  16.882
   36BMANN    C38832   8.086   7.693  17.076
   36BMANN    O38833   8.126   7.773  17.161
   36BMANN   CT38834   8.009   7.571  17.116
   36BMANN  HT138835   8.033   7.487  17.046
   36BMANN  HT238836   7.900   7.591  17.111
   36BMANN  HT338837   8.036   7.540  17.219
   36BMANN   C338838   8.335   7.782  16.879
   36BMANN   H338839   8.388   7.867  16.833
   36BMANN   O338840   8.389   7.763  17.009
   36BMANN  HO338841   8.483   7.782  17.006
   36BMANN   C438842   8.353   7.660  16.793
   36BMANN   H438843   8.303   7.572  16.840
   36BMANN   O438844   8.491   7.629  16.776
   36BMANN  HO438845   8.522   7.582  16.853
   36BMANN   C638846   8.303   7.568  16.561
   36BMANN  H6138847   8.226   7.577  16.481
   36BMANN  H6238848   8.402   7.569  16.511
   36BMANN   O638849   8.285   7.441  16.625
   36BMANN  HO638850   8.371   7.409  16.656
   37PVPG   C1338851   4.499   4.132   2.543
   37PVPG  H13A38852   4.537   4.235   2.526
   37PVPG  H13B38853   4.534   4.100   2.643
   37PVPG   OC338854   4.552   4.042   2.445
   37PVPG   HO338855   4.525   3.957   2.478
   37PVPG   C1238856   4.344   4.134   2.541
   37PVPG  H12A38857   4.311   4.198   2.456
   37PVPG   OC238858   4.295   4.188   2.663
   37PVPG   HO238859   4.313   4.117   2.725
   37PVPG   C1138860   4.281   3.994   2.525
   37PVPG  H11A38861   4.314   3.951   2.428
   37PVPG  H11B38862   4.171   4.009   2.520
   37PVPG     P38863   4.264   3.758   2.632
   37PVPG   O1338864   4.274   3.707   2.494
   37PVPG   O1438865   4.127   3.747   2.688
   37PVPG   O1238866   4.315   3.907   2.634
   37PVPG   O1138867   4.367   3.681   2.723
   37PVPG    C138868   4.487   3.633   2.662
   37PVPG    HA38869   4.537   3.711   2.601
   37PVPG    HB38870   4.463   3.547   2.596
   37PVPG    C238871   4.592   3.581   2.765
   37PVPG    HS38872   4.666   3.523   2.706
   37PVPG   O2138873   4.527   3.494   2.859
   37PVPG   C2138874   4.608   3.426   2.936
   37PVPG   O2238875   4.730   3.416   2.922
   37PVPG   C2238876   4.531   3.359   3.049
   37PVPG   H2R38877   4.526   3.250   3.028
   37PVPG   H2S38878   4.427   3.399   3.054
   37PVPG    C338879   4.670   3.697   2.834
   37PVPG    HX38880   4.763   3.653   2.877
   37PVPG    HY38881   4.704   3.767   2.755
   37PVPG   O3138882   4.599   3.760   2.943
   37PVPG   C3138883   4.559   3.885   2.922
   37PVPG   O3238884   4.575   3.947   2.818
   37PVPG   C3238885   4.511   3.946   3.054
   37PVPG   H2X38886   4.543   4.053   3.056
   37PVPG   H2Y38887   4.565   3.893   3.136
   37PVPG   C2338888   4.603   3.384   3.183
   37PVPG   H3R38889   4.595   3.491   3.212
   37PVPG   H3S38890   4.710   3.358   3.170
   37PVPG   C2438891   4.547   3.298   3.297
   37PVPG   H4R38892   4.548   3.192   3.267
   37PVPG   H4S38893   4.441   3.328   3.316
   37PVPG   C2538894   4.625   3.312   3.429
   37PVPG   H5R38895   4.584   3.237   3.502
   37PVPG   H5S38896   4.607   3.412   3.473
   37PVPG   C2638897   4.777   3.289   3.414
   37PVPG   H6R38898   4.819   3.369   3.349
   37PVPG   H6S38899   4.793   3.191   3.365
   37PVPG   C2738900   4.857   3.291   3.545
   37PVPG   H7R38901   4.845   3.389   3.596
   37PVPG   H7S38902   4.965   3.280   3.518
   37PVPG   C2838903   4.823   3.177   3.641
   37PVPG   H8R38904   4.915   3.138   3.688
   37PVPG   H8S38905   4.780   3.093   3.582
   37PVPG   C2938906   4.724   3.218   3.750
   37PVPG   H9R38907   4.669   3.129   3.786
   37PVPG   H9S38908   4.649   3.288   3.707
   37PVPG  C21038909   4.792   3.288   3.870
   37PVPG  H10R38910   4.715   3.334   3.936
   37PVPG  H10S38911   4.853   3.373   3.832
   37PVPG  C21138912   4.871   3.190   3.951
   37PVPG  H11138913   4.818   3.097   3.974
   37PVPG  C21238914   4.994   3.209   4.002
   37PVPG  H12138915   5.038   3.128   4.063
   37PVPG  C21338916   5.079   3.333   3.990
   37PVPG  H13R38917   5.028   3.414   3.932
   37PVPG  H13S38918   5.173   3.310   3.936
   37PVPG  C21438919   5.113   3.387   4.129
   37PVPG  H14R38920   5.167   3.484   4.120
   37PVPG  H14S38921   5.182   3.316   4.179
   37PVPG  C21538922   4.992   3.410   4.222
   37PVPG  H15R38923   5.028   3.455   4.318
   37PVPG  H15S38924   4.946   3.313   4.247
   37PVPG  C21638925   4.883   3.504   4.167
   37PVPG  H16R38926   4.838   3.458   4.076
   37PVPG  H16S38927   4.931   3.599   4.135
   37PVPG  C21738928   4.771   3.534   4.267
   37PVPG  H17R38929   4.697   3.600   4.219
   37PVPG  H17S38930   4.815   3.590   4.353
   37PVPG  C21838931   4.698   3.412   4.323
   37PVPG  H18R38932   4.767   3.350   4.384
   37PVPG  H18S38933   4.615   3.444   4.391
   37PVPG  H18T38934   4.656   3.351   4.241
   37PVPG   C3338935   4.359   3.937   3.075
   37PVPG   H3X38936   4.327   3.831   3.068
   37PVPG   H3Y38937   4.305   3.995   2.997
   37PVPG   C3438938   4.316   3.989   3.214
   37PVPG   H4X38939   4.207   3.969   3.227
   37PVPG   H4Y38940   4.330   4.099   3.220
   37PVPG   C3538941   4.394   3.922   3.327
   37PVPG   H5X38942   4.496   3.966   3.335
   37PVPG   H5Y38943   4.405   3.814   3.302
   37PVPG   C3638944   4.326   3.931   3.464
   37PVPG   H6X38945   4.222   3.893   3.454
   37PVPG   H6Y38946   4.320   4.036   3.500
   37PVPG   C3738947   4.400   3.844   3.568
   37PVPG   H7X38948   4.494   3.893   3.601
   37PVPG   H7Y38949   4.427   3.748   3.517
   37PVPG   C3838950   4.312   3.809   3.688
   37PVPG   H8X38951   4.210   3.787   3.650
   37PVPG   H8Y38952   4.304   3.896   3.756
   37PVPG   C3938953   4.362   3.685   3.762
   37PVPG   H9X38954   4.449   3.712   3.826
   37PVPG   H9Y38955   4.398   3.610   3.688
   37PVPG  C31038956   4.250   3.620   3.844
   37PVPG  H10X38957   4.290   3.531   3.898
   37PVPG  H10Y38958   4.173   3.584   3.773
   37PVPG  C31138959   4.188   3.712   3.950
   37PVPG  H11X38960   4.096   3.666   3.991
   37PVPG  H11Y38961   4.157   3.808   3.903
   37PVPG  C31238962   4.283   3.739   4.066
   37PVPG  H12X38963   4.388   3.746   4.030
   37PVPG  H12Y38964   4.279   3.652   4.135
   37PVPG  C31338965   4.251   3.869   4.141
   37PVPG  H13X38966   4.143   3.869   4.168
   37PVPG  H13Y38967   4.268   3.955   4.072
   37PVPG  C31438968   4.336   3.885   4.266
   37PVPG  H14X38969   4.317   3.986   4.308
   37PVPG  H14Y38970   4.444   3.879   4.241
   37PVPG  C31538971   4.302   3.780   4.373
   37PVPG  H15X38972   4.208   3.728   4.346
   37PVPG  H15Y38973   4.282   3.833   4.469
   37PVPG  C31638974   4.413   3.676   4.396
   37PVPG  H16X38975   4.506   3.726   4.429
   37PVPG  H16Y38976   4.383   3.604   4.476
   37PVPG  H16Z38977   4.434   3.620   4.304
   38PVPG   C1338978   4.503   5.026   2.542
   38PVPG  H13A38979   4.491   4.968   2.448
   38PVPG  H13B38980   4.416   5.005   2.607
   38PVPG   OC338981   4.507   5.166   2.511
   38PVPG   HO338982   4.448   5.211   2.573
   38PVPG   C1238983   4.631   4.969   2.613
   38PVPG  H12A38984   4.636   5.015   2.714
   38PVPG   OC238985   4.751   4.999   2.541
   38PVPG   HO238986   4.821   4.971   2.599
   38PVPG   C1138987   4.621   4.815   2.629
   38PVPG  H11A38988   4.691   4.784   2.710
   38PVPG  H11B38989   4.655   4.767   2.535
   38PVPG     P38990   4.453   4.628   2.698
   38PVPG   O1338991   4.524   4.538   2.604
   38PVPG   O1438992   4.305   4.617   2.700
   38PVPG   O1238993   4.486   4.777   2.657
   38PVPG   O1138994   4.508   4.616   2.847
   38PVPG    C138995   4.477   4.725   2.938
   38PVPG    HA38996   4.368   4.743   2.943
   38PVPG    HB38997   4.524   4.819   2.901
   38PVPG    C238998   4.526   4.703   3.085
   38PVPG    HS38999   4.506   4.797   3.141
   38PVPG   O2139000   4.665   4.667   3.092
   38PVPG   C2139001   4.750   4.763   3.064
   38PVPG   O2239002   4.722   4.874   3.023
   38PVPG   C2239003   4.892   4.716   3.094
   38PVPG   H2R39004   4.958   4.765   3.019
   38PVPG   H2S39005   4.898   4.605   3.079
   38PVPG    C339006   4.444   4.590   3.156
   38PVPG    HX39007   4.342   4.592   3.113
   38PVPG    HY39008   4.488   4.492   3.129
   38PVPG   O3139009   4.434   4.614   3.299
   38PVPG   C3139010   4.507   4.538   3.379
   38PVPG   O3239011   4.582   4.449   3.344
   38PVPG   C3239012   4.476   4.573   3.525
   38PVPG   H2X39013   4.533   4.503   3.589
   38PVPG   H2Y39014   4.368   4.555   3.542
   38PVPG   C2339015   4.937   4.755   3.236
   38PVPG   H3R39016   4.914   4.863   3.254
   38PVPG   H3S39017   5.048   4.743   3.245
   38PVPG   C2439018   4.873   4.669   3.345
   38PVPG   H4R39019   4.906   4.564   3.328
   38PVPG   H4S39020   4.762   4.669   3.335
   38PVPG   C2539021   4.909   4.709   3.490
   38PVPG   H5R39022   4.841   4.788   3.525
   38PVPG   H5S39023   5.013   4.749   3.492
   38PVPG   C2639024   4.903   4.586   3.580
   38PVPG   H6R39025   4.986   4.520   3.546
   38PVPG   H6S39026   4.809   4.530   3.563
   38PVPG   C2739027   4.921   4.611   3.731
   38PVPG   H7R39028   4.988   4.697   3.752
   38PVPG   H7S39029   4.970   4.521   3.773
   38PVPG   C2839030   4.787   4.626   3.806
   38PVPG   H8R39031   4.707   4.580   3.745
   38PVPG   H8S39032   4.763   4.734   3.818
   38PVPG   C2939033   4.781   4.556   3.943
   38PVPG   H9R39034   4.788   4.446   3.927
   38PVPG   H9S39035   4.682   4.574   3.990
   38PVPG  C21039036   4.891   4.596   4.043
   38PVPG  H10R39037   4.991   4.575   4.002
   38PVPG  H10S39038   4.881   4.530   4.134
   38PVPG  C21139039   4.879   4.741   4.082
   38PVPG  H11139040   4.934   4.810   4.017
   38PVPG  C21239041   4.809   4.790   4.186
   38PVPG  H12139042   4.812   4.898   4.207
   38PVPG  C21339043   4.728   4.713   4.286
   38PVPG  H13R39044   4.713   4.607   4.256
   38PVPG  H13S39045   4.626   4.758   4.292
   38PVPG  C21439046   4.791   4.717   4.427
   38PVPG  H14R39047   4.720   4.674   4.502
   38PVPG  H14S39048   4.807   4.823   4.457
   38PVPG  C21539049   4.924   4.642   4.438
   38PVPG  H15R39050   4.978   4.675   4.528
   38PVPG  H15S39051   4.987   4.668   4.349
   38PVPG  C21639052   4.907   4.489   4.443
   38PVPG  H16R39053   4.818   4.462   4.384
   38PVPG  H16S39054   4.887   4.460   4.549
   38PVPG  C21739055   5.026   4.409   4.391
   38PVPG  H17R39056   5.068   4.459   4.300
   38PVPG  H17S39057   4.986   4.310   4.358
   38PVPG  C21839058   5.137   4.383   4.492
   38PVPG  H18R39059   5.185   4.479   4.523
   38PVPG  H18S39060   5.096   4.334   4.582
   38PVPG  H18T39061   5.216   4.318   4.450
   38PVPG   C3339062   4.510   4.719   3.564
   38PVPG   H3X39063   4.456   4.789   3.497
   38PVPG   H3Y39064   4.619   4.737   3.551
   38PVPG   C3439065   4.471   4.753   3.709
   38PVPG   H4X39066   4.529   4.691   3.780
   38PVPG   H4Y39067   4.365   4.725   3.726
   38PVPG   C3539068   4.489   4.901   3.742
   38PVPG   H5X39069   4.449   4.962   3.658
   38PVPG   H5Y39070   4.597   4.925   3.752
   38PVPG   C3639071   4.415   4.944   3.870
   38PVPG   H6X39072   4.308   4.916   3.859
   38PVPG   H6Y39073   4.420   5.054   3.881
   38PVPG   C3739074   4.470   4.880   3.999
   38PVPG   H7X39075   4.573   4.919   4.018
   38PVPG   H7Y39076   4.482   4.771   3.986
   38PVPG   C3839077   4.386   4.910   4.123
   38PVPG   H8X39078   4.369   5.020   4.132
   38PVPG   H8Y39079   4.443   4.879   4.214
   38PVPG   C3939080   4.251   4.837   4.125
   38PVPG   H9X39081   4.182   4.887   4.054
   38PVPG   H9Y39082   4.206   4.849   4.226
   38PVPG  C31039083   4.258   4.688   4.089
   38PVPG  H10X39084   4.290   4.678   3.983
   38PVPG  H10Y39085   4.156   4.645   4.094
   38PVPG  C31139086   4.351   4.606   4.179
   38PVPG  H11X39087   4.445   4.662   4.197
   38PVPG  H11Y39088   4.379   4.512   4.127
   38PVPG  C31239089   4.286   4.571   4.312
   38PVPG  H12X39090   4.243   4.469   4.304
   38PVPG  H12Y39091   4.201   4.639   4.334
   38PVPG  C31339092   4.384   4.576   4.431
   38PVPG  H13X39093   4.484   4.536   4.403
   38PVPG  H13Y39094   4.342   4.506   4.506
   38PVPG  C31439095   4.396   4.716   4.492
   38PVPG  H14X39096   4.308   4.778   4.462
   38PVPG  H14Y39097   4.487   4.767   4.453
   38PVPG  C31539098   4.399   4.716   4.645
   38PVPG  H15X39099   4.418   4.820   4.681
   38PVPG  H15Y39100   4.487   4.657   4.681
   38PVPG  C31639101   4.270   4.663   4.710
   38PVPG  H16X39102   4.247   4.559   4.681
   38PVPG  H16Y39103   4.280   4.666   4.821
   38PVPG  H16Z39104   4.182   4.724   4.681
   39PVPG   C1339105   3.012   4.957   2.350
   39PVPG  H13A39106   2.984   5.061   2.323
   39PVPG  H13B39107   3.029   4.900   2.257
   39PVPG   OC339108   2.905   4.897   2.423
   39PVPG   HO339109   2.943   4.816   2.457
   39PVPG   C1239110   3.142   4.964   2.433
   39PVPG  H12A39111   3.220   5.012   2.371
   39PVPG   OC239112   3.184   4.832   2.468
   39PVPG   HO239113   3.224   4.842   2.555
   39PVPG   C1139114   3.123   5.052   2.559
   39PVPG  H11A39115   3.047   5.006   2.625
   39PVPG  H11B39116   3.081   5.149   2.527
   39PVPG     P39117   3.289   4.992   2.751
   39PVPG   O1339118   3.408   5.054   2.813
   39PVPG   O1439119   3.304   4.853   2.700
   39PVPG   O1239120   3.249   5.076   2.623
   39PVPG   O1139121   3.158   5.006   2.839
   39PVPG    C139122   3.081   4.896   2.888
   39PVPG    HA39123   3.095   4.804   2.827
   39PVPG    HB39124   2.974   4.923   2.884
   39PVPG    C239125   3.117   4.864   3.035
   39PVPG    HS39126   3.088   4.952   3.095
   39PVPG   O2139127   3.258   4.838   3.039
   39PVPG   C2139128   3.323   4.894   3.139
   39PVPG   O2239129   3.276   4.962   3.228
   39PVPG   C2239130   3.469   4.853   3.127
   39PVPG   H2R39131   3.532   4.930   3.176
   39PVPG   H2S39132   3.494   4.852   3.018
   39PVPG    C339133   3.043   4.739   3.090
   39PVPG    HX39134   2.933   4.751   3.080
   39PVPG    HY39135   3.072   4.653   3.026
   39PVPG   O3139136   3.084   4.711   3.226
   39PVPG   C3139137   3.020   4.782   3.318
   39PVPG   O3239138   2.920   4.848   3.297
   39PVPG   C3239139   3.093   4.770   3.451
   39PVPG   H2X39140   3.173   4.847   3.454
   39PVPG   H2Y39141   3.142   4.670   3.457
   39PVPG   C2339142   3.491   4.714   3.188
   39PVPG   H3R39143   3.583   4.669   3.144
   39PVPG   H3S39144   3.407   4.645   3.165
   39PVPG   C2439145   3.513   4.720   3.339
   39PVPG   H4R39146   3.420   4.755   3.389
   39PVPG   H4S39147   3.593   4.794   3.361
   39PVPG   C2539148   3.558   4.584   3.393
   39PVPG   H5R39149   3.648   4.553   3.337
   39PVPG   H5S39150   3.477   4.510   3.375
   39PVPG   C2639151   3.593   4.584   3.542
   39PVPG   H6R39152   3.689   4.639   3.556
   39PVPG   H6S39153   3.610   4.480   3.576
   39PVPG   C2739154   3.485   4.649   3.628
   39PVPG   H7R39155   3.385   4.614   3.595
   39PVPG   H7S39156   3.488   4.759   3.613
   39PVPG   C2839157   3.501   4.618   3.776
   39PVPG   H8R39158   3.602   4.651   3.809
   39PVPG   H8S39159   3.495   4.509   3.795
   39PVPG   C2939160   3.394   4.690   3.859
   39PVPG   H9R39161   3.297   4.637   3.849
   39PVPG   H9S39162   3.380   4.792   3.818
   39PVPG  C21039163   3.436   4.707   4.006
   39PVPG  H10R39164   3.368   4.781   4.054
   39PVPG  H10S39165   3.537   4.753   4.007
   39PVPG  C21139166   3.443   4.582   4.087
   39PVPG  H11139167   3.544   4.554   4.122
   39PVPG  C21239168   3.339   4.504   4.120
   39PVPG  H12139169   3.357   4.422   4.191
   39PVPG  C21339170   3.195   4.525   4.085
   39PVPG  H13R39171   3.137   4.441   4.129
   39PVPG  H13S39172   3.179   4.517   3.976
   39PVPG  C21439173   3.132   4.657   4.135
   39PVPG  H14R39174   3.021   4.646   4.134
   39PVPG  H14S39175   3.157   4.739   4.064
   39PVPG  C21539176   3.175   4.703   4.275
   39PVPG  H15R39177   3.115   4.791   4.306
   39PVPG  H15S39178   3.280   4.737   4.270
   39PVPG  C21639179   3.165   4.594   4.381
   39PVPG  H16R39180   3.265   4.578   4.427
   39PVPG  H16S39181   3.135   4.496   4.337
   39PVPG  C21739182   3.063   4.625   4.491
   39PVPG  H17R39183   2.963   4.636   4.445
   39PVPG  H17S39184   3.089   4.722   4.540
   39PVPG  C21839185   3.060   4.514   4.594
   39PVPG  H18R39186   3.061   4.417   4.540
   39PVPG  H18S39187   3.149   4.517   4.661
   39PVPG  H18T39188   2.968   4.518   4.656
   39PVPG   C3339189   2.999   4.789   3.572
   39PVPG   H3X39190   2.907   4.728   3.559
   39PVPG   H3Y39191   2.968   4.896   3.579
   39PVPG   C3439192   3.066   4.747   3.703
   39PVPG   H4X39193   3.163   4.799   3.715
   39PVPG   H4Y39194   3.087   4.638   3.697
   39PVPG   C3539195   2.978   4.772   3.826
   39PVPG   H5X39196   3.005   4.695   3.901
   39PVPG   H5Y39197   2.870   4.758   3.801
   39PVPG   C3639198   3.000   4.909   3.891
   39PVPG   H6X39199   2.973   4.991   3.821
   39PVPG   H6Y39200   3.109   4.919   3.913
   39PVPG   C3739201   2.923   4.925   4.023
   39PVPG   H7X39202   2.917   4.826   4.075
   39PVPG   H7Y39203   2.818   4.957   4.003
   39PVPG   C3839204   2.990   5.023   4.122
   39PVPG   H8X39205   2.986   5.125   4.078
   39PVPG   H8Y39206   3.097   4.996   4.132
   39PVPG   C3939207   2.924   5.023   4.259
   39PVPG   H9X39208   2.937   4.924   4.309
   39PVPG   H9Y39209   2.816   5.039   4.245
   39PVPG  C31039210   2.976   5.134   4.351
   39PVPG  H10X39211   2.904   5.150   4.434
   39PVPG  H10Y39212   2.977   5.227   4.292
   39PVPG  C31139213   3.117   5.113   4.412
   39PVPG  H11X39214   3.155   5.215   4.436
   39PVPG  H11Y39215   3.186   5.068   4.339
   39PVPG  C31239216   3.117   5.034   4.543
   39PVPG  H12X39217   3.136   4.926   4.524
   39PVPG  H12Y39218   3.015   5.043   4.587
   39PVPG  C31339219   3.211   5.087   4.653
   39PVPG  H13X39220   3.178   5.042   4.749
   39PVPG  H13Y39221   3.200   5.197   4.662
   39PVPG  C31439222   3.360   5.053   4.638
   39PVPG  H14X39223   3.401   5.105   4.549
   39PVPG  H14Y39224   3.370   4.943   4.623
   39PVPG  C31539225   3.441   5.096   4.762
   39PVPG  H15X39226   3.387   5.059   4.852
   39PVPG  H15Y39227   3.442   5.206   4.768
   39PVPG  C31639228   3.584   5.041   4.767
   39PVPG  H16X39229   3.583   4.930   4.762
   39PVPG  H16Y39230   3.644   5.081   4.682
   39PVPG  H16Z39231   3.633   5.071   4.862
   40PVPG   C1339232   3.933   2.194   2.593
   40PVPG  H13A39233   4.009   2.261   2.638
   40PVPG  H13B39234   3.936   2.208   2.483
   40PVPG   OC339235   3.803   2.230   2.644
   40PVPG   HO339236   3.786   2.165   2.713
   40PVPG   C1239237   3.972   2.048   2.628
   40PVPG  H12A39238   3.896   1.979   2.587
   40PVPG   OC239239   3.972   2.034   2.770
   40PVPG   HO239240   4.007   1.947   2.791
   40PVPG   C1139241   4.112   2.012   2.569
   40PVPG  H11A39242   4.095   1.962   2.471
   40PVPG  H11B39243   4.163   1.939   2.635
   40PVPG     P39244   4.346   2.134   2.551
   40PVPG   O1339245   4.387   2.241   2.456
   40PVPG   O1439246   4.399   1.999   2.523
   40PVPG   O1239247   4.188   2.130   2.547
   40PVPG   O1139248   4.380   2.181   2.698
   40PVPG    C139249   4.298   2.149   2.811
   40PVPG    HA39250   4.324   2.049   2.852
   40PVPG    HB39251   4.190   2.149   2.784
   40PVPG    C239252   4.312   2.255   2.924
   40PVPG    HS39253   4.325   2.353   2.872
   40PVPG   O2139254   4.426   2.225   3.006
   40PVPG   C2139255   4.456   2.322   3.089
   40PVPG   O2239256   4.422   2.439   3.077
   40PVPG   C2239257   4.539   2.265   3.204
   40PVPG   H2R39258   4.632   2.223   3.158
   40PVPG   H2S39259   4.482   2.182   3.252
   40PVPG    C339260   4.182   2.265   3.010
   40PVPG    HX39261   4.188   2.359   3.069
   40PVPG    HY39262   4.094   2.273   2.943
   40PVPG   O3139263   4.168   2.149   3.095
   40PVPG   C3139264   4.077   2.166   3.191
   40PVPG   O3239265   4.007   2.265   3.202
   40PVPG   C3239266   4.080   2.046   3.285
   40PVPG   H2X39267   4.179   2.045   3.334
   40PVPG   H2Y39268   4.071   1.953   3.224
   40PVPG   C2339269   4.578   2.369   3.311
   40PVPG   H3R39270   4.603   2.467   3.266
   40PVPG   H3S39271   4.670   2.333   3.362
   40PVPG   C2439272   4.474   2.388   3.424
   40PVPG   H4R39273   4.520   2.453   3.502
   40PVPG   H4S39274   4.453   2.291   3.472
   40PVPG   C2539275   4.342   2.455   3.382
   40PVPG   H5R39276   4.278   2.383   3.326
   40PVPG   H5S39277   4.363   2.540   3.314
   40PVPG   C2639278   4.263   2.510   3.502
   40PVPG   H6R39279   4.179   2.572   3.466
   40PVPG   H6S39280   4.331   2.576   3.561
   40PVPG   C2739281   4.207   2.401   3.594
   40PVPG   H7R39282   4.285   2.324   3.615
   40PVPG   H7S39283   4.123   2.350   3.543
   40PVPG   C2839284   4.160   2.456   3.730
   40PVPG   H8R39285   4.091   2.542   3.714
   40PVPG   H8S39286   4.247   2.491   3.788
   40PVPG   C2939287   4.087   2.349   3.813
   40PVPG   H9R39288   4.151   2.258   3.816
   40PVPG   H9S39289   3.993   2.323   3.760
   40PVPG  C21039290   4.059   2.393   3.958
   40PVPG  H10R39291   4.025   2.499   3.957
   40PVPG  H10S39292   4.154   2.391   4.016
   40PVPG  C21139293   3.952   2.308   4.023
   40PVPG  H11139294   3.850   2.333   3.991
   40PVPG  C21239295   3.969   2.205   4.108
   40PVPG  H12139296   3.880   2.153   4.145
   40PVPG  C21339297   4.099   2.150   4.160
   40PVPG  H13R39298   4.180   2.225   4.151
   40PVPG  H13S39299   4.129   2.061   4.098
   40PVPG  C21439300   4.093   2.104   4.306
   40PVPG  H14R39301   4.023   2.018   4.316
   40PVPG  H14S39302   4.054   2.187   4.370
   40PVPG  C21539303   4.232   2.063   4.356
   40PVPG  H15R39304   4.303   2.147   4.341
   40PVPG  H15S39305   4.267   1.977   4.295
   40PVPG  C21639306   4.235   2.022   4.503
   40PVPG  H16R39307   4.331   1.970   4.523
   40PVPG  H16S39308   4.153   1.950   4.523
   40PVPG  C21739309   4.226   2.139   4.601
   40PVPG  H17R39310   4.173   2.105   4.693
   40PVPG  H17S39311   4.163   2.220   4.558
   40PVPG  C21839312   4.363   2.194   4.642
   40PVPG  H18R39313   4.352   2.274   4.719
   40PVPG  H18S39314   4.426   2.113   4.686
   40PVPG  H18T39315   4.416   2.235   4.554
   40PVPG   C3339316   3.969   2.049   3.392
   40PVPG   H3X39317   3.871   2.027   3.345
   40PVPG   H3Y39318   3.962   2.150   3.438
   40PVPG   C3439319   3.993   1.949   3.507
   40PVPG   H4X39320   4.024   1.851   3.466
   40PVPG   H4Y39321   3.898   1.934   3.562
   40PVPG   C3539322   4.097   2.002   3.605
   40PVPG   H5X39323   4.059   2.097   3.649
   40PVPG   H5Y39324   4.191   2.026   3.551
   40PVPG   C3639325   4.131   1.907   3.720
   40PVPG   H6X39326   4.177   1.814   3.681
   40PVPG   H6Y39327   4.039   1.879   3.776
   40PVPG   C3739328   4.229   1.977   3.815
   40PVPG   H7X39329   4.175   2.062   3.865
   40PVPG   H7Y39330   4.312   2.020   3.754
   40PVPG   C3839331   4.290   1.890   3.924
   40PVPG   H8X39332   4.314   1.791   3.880
   40PVPG   H8Y39333   4.216   1.873   4.006
   40PVPG   C3939334   4.420   1.951   3.980
   40PVPG   H9X39335   4.494   1.952   3.898
   40PVPG   H9Y39336   4.459   1.884   4.061
   40PVPG  C31039337   4.408   2.094   4.036
   40PVPG  H10X39338   4.398   2.087   4.146
   40PVPG  H10Y39339   4.317   2.145   3.998
   40PVPG  C31139340   4.527   2.185   4.003
   40PVPG  H11X39341   4.505   2.244   3.911
   40PVPG  H11Y39342   4.616   2.122   3.980
   40PVPG  C31239343   4.566   2.279   4.118
   40PVPG  H12X39344   4.663   2.327   4.092
   40PVPG  H12Y39345   4.582   2.220   4.212
   40PVPG  C31339346   4.463   2.389   4.145
   40PVPG  H13X39347   4.370   2.345   4.188
   40PVPG  H13Y39348   4.437   2.435   4.047
   40PVPG  C31439349   4.516   2.499   4.237
   40PVPG  H14X39350   4.455   2.590   4.221
   40PVPG  H14Y39351   4.621   2.521   4.209
   40PVPG  C31539352   4.512   2.468   4.388
   40PVPG  H15X39353   4.579   2.383   4.410
   40PVPG  H15Y39354   4.410   2.438   4.417
   40PVPG  C31639355   4.552   2.590   4.473
   40PVPG  H16X39356   4.538   2.568   4.582
   40PVPG  H16Y39357   4.658   2.617   4.455
   40PVPG  H16Z39358   4.489   2.677   4.447
   41PVPG   C1339359   2.612   4.740   2.708
   41PVPG  H13A39360   2.630   4.679   2.799
   41PVPG  H13B39361   2.710   4.779   2.672
   41PVPG   OC339362   2.527   4.850   2.739
   41PVPG   HO339363   2.535   4.867   2.833
   41PVPG   C1239364   2.556   4.644   2.597
   41PVPG  H12A39365   2.634   4.569   2.573
   41PVPG   OC239366   2.522   4.715   2.478
   41PVPG   HO239367   2.443   4.667   2.452
   41PVPG   C1139368   2.428   4.569   2.642
   41PVPG  H11A39369   2.350   4.644   2.667
   41PVPG  H11B39370   2.451   4.513   2.735
   41PVPG     P39371   2.238   4.420   2.536
   41PVPG   O1339372   2.244   4.273   2.519
   41PVPG   O1439373   2.161   4.496   2.433
   41PVPG   O1239374   2.386   4.478   2.539
   41PVPG   O1139375   2.183   4.456   2.679
   41PVPG    C139376   2.124   4.359   2.767
   41PVPG    HA39377   2.162   4.256   2.749
   41PVPG    HB39378   2.014   4.358   2.751
   41PVPG    C239379   2.149   4.392   2.918
   41PVPG    HS39380   2.075   4.336   2.978
   41PVPG   O2139381   2.139   4.533   2.943
   41PVPG   C2139382   2.016   4.580   2.936
   41PVPG   O2239383   1.915   4.513   2.925
   41PVPG   C2239384   2.018   4.733   2.943
   41PVPG   H2R39385   1.940   4.768   2.872
   41PVPG   H2S39386   2.117   4.771   2.910
   41PVPG    C339387   2.290   4.345   2.965
   41PVPG    HX39388   2.315   4.247   2.920
   41PVPG    HY39389   2.364   4.418   2.925
   41PVPG   O3139390   2.300   4.343   3.109
   41PVPG   C3139391   2.259   4.233   3.170
   41PVPG   O3239392   2.221   4.131   3.113
   41PVPG   C3239393   2.263   4.255   3.321
   41PVPG   H2X39394   2.196   4.181   3.370
   41PVPG   H2Y39395   2.222   4.357   3.342
   41PVPG   C2339396   1.982   4.783   3.085
   41PVPG   H3R39397   1.899   4.720   3.124
   41PVPG   H3S39398   1.943   4.887   3.079
   41PVPG   C2439399   2.100   4.781   3.183
   41PVPG   H4R39400   2.155   4.685   3.174
   41PVPG   H4S39401   2.059   4.785   3.287
   41PVPG   C2539402   2.196   4.899   3.165
   41PVPG   H5R39403   2.163   4.957   3.076
   41PVPG   H5S39404   2.299   4.861   3.143
   41PVPG   C2639405   2.202   4.995   3.285
   41PVPG   H6R39406   2.105   4.998   3.339
   41PVPG   H6S39407   2.219   5.097   3.245
   41PVPG   C2739408   2.318   4.967   3.384
   41PVPG   H7R39409   2.335   5.056   3.446
   41PVPG   H7S39410   2.410   4.952   3.323
   41PVPG   C2839411   2.297   4.845   3.474
   41PVPG   H8R39412   2.397   4.802   3.497
   41PVPG   H8S39413   2.238   4.767   3.424
   41PVPG   C2939414   2.234   4.880   3.610
   41PVPG   H9R39415   2.136   4.930   3.595
   41PVPG   H9S39416   2.301   4.953   3.660
   41PVPG  C21039417   2.215   4.754   3.698
   41PVPG  H10R39418   2.290   4.678   3.667
   41PVPG  H10S39419   2.115   4.711   3.676
   41PVPG  C21139420   2.231   4.780   3.846
   41PVPG  H11139421   2.275   4.878   3.872
   41PVPG  C21239422   2.201   4.693   3.945
   41PVPG  H12139423   2.219   4.721   4.050
   41PVPG  C21339424   2.147   4.555   3.924
   41PVPG  H13R39425   2.237   4.492   3.910
   41PVPG  H13S39426   2.090   4.549   3.828
   41PVPG  C21439427   2.065   4.477   4.030
   41PVPG  H14R39428   2.134   4.437   4.108
   41PVPG  H14S39429   2.024   4.390   3.974
   41PVPG  C21539430   1.945   4.544   4.099
   41PVPG  H15R39431   1.876   4.464   4.132
   41PVPG  H15S39432   1.889   4.605   4.025
   41PVPG  C21639433   1.981   4.625   4.226
   41PVPG  H16R39434   1.890   4.677   4.261
   41PVPG  H16S39435   2.057   4.702   4.200
   41PVPG  C21739436   2.032   4.539   4.341
   41PVPG  H17R39437   2.127   4.490   4.311
   41PVPG  H17S39438   1.959   4.458   4.361
   41PVPG  C21839439   2.056   4.617   4.470
   41PVPG  H18R39440   2.102   4.553   4.547
   41PVPG  H18S39441   2.123   4.704   4.452
   41PVPG  H18T39442   1.960   4.656   4.510
   41PVPG   C3339443   2.405   4.245   3.382
   41PVPG   H3X39444   2.478   4.302   3.320
   41PVPG   H3Y39445   2.436   4.138   3.382
   41PVPG   C3439446   2.417   4.299   3.526
   41PVPG   H4X39447   2.411   4.410   3.524
   41PVPG   H4Y39448   2.517   4.273   3.568
   41PVPG   C3539449   2.308   4.247   3.622
   41PVPG   H5X39450   2.308   4.136   3.623
   41PVPG   H5Y39451   2.210   4.281   3.582
   41PVPG   C3639452   2.319   4.303   3.764
   41PVPG   H6X39453   2.214   4.317   3.799
   41PVPG   H6Y39454   2.369   4.402   3.766
   41PVPG   C3739455   2.385   4.209   3.866
   41PVPG   H7X39456   2.495   4.207   3.855
   41PVPG   H7Y39457   2.346   4.107   3.844
   41PVPG   C3839458   2.344   4.238   4.012
   41PVPG   H8X39459   2.353   4.144   4.071
   41PVPG   H8Y39460   2.237   4.267   4.016
   41PVPG   C3939461   2.428   4.339   4.089
   41PVPG   H9X39462   2.418   4.440   4.043
   41PVPG   H9Y39463   2.534   4.308   4.082
   41PVPG  C31039464   2.387   4.343   4.237
   41PVPG  H10X39465   2.415   4.246   4.285
   41PVPG  H10Y39466   2.277   4.353   4.247
   41PVPG  C31139467   2.452   4.456   4.318
   41PVPG  H11X39468   2.560   4.459   4.290
   41PVPG  H11Y39469   2.445   4.436   4.427
   41PVPG  C31239470   2.393   4.594   4.288
   41PVPG  H12X39471   2.309   4.614   4.359
   41PVPG  H12Y39472   2.351   4.595   4.186
   41PVPG  C31339473   2.496   4.707   4.299
   41PVPG  H13X39474   2.583   4.685   4.234
   41PVPG  H13Y39475   2.533   4.714   4.403
   41PVPG  C31439476   2.434   4.841   4.256
   41PVPG  H14X39477   2.345   4.861   4.319
   41PVPG  H14Y39478   2.400   4.830   4.151
   41PVPG  C31539479   2.531   4.959   4.266
   41PVPG  H15X39480   2.498   5.039   4.195
   41PVPG  H15Y39481   2.631   4.925   4.231
   41PVPG  C31639482   2.539   5.020   4.405
   41PVPG  H16X39483   2.620   5.095   4.411
   41PVPG  H16Y39484   2.443   5.069   4.432
   41PVPG  H16Z39485   2.559   4.940   4.480
   42PVPG   C1339486   4.160   5.952   2.493
   42PVPG  H13A39487   4.256   5.906   2.523
   42PVPG  H13B39488   4.104   5.880   2.430
   42PVPG   OC339489   4.185   6.074   2.422
   42PVPG   HO339490   4.149   6.140   2.481
   42PVPG   C1239491   4.078   5.982   2.621
   42PVPG  H12A39492   4.078   5.891   2.685
   42PVPG   OC239493   3.944   6.017   2.588
   42PVPG   HO239494   3.945   6.112   2.595
   42PVPG   C1139495   4.139   6.101   2.701
   42PVPG  H11A39496   4.247   6.078   2.717
   42PVPG  H11B39497   4.090   6.103   2.800
   42PVPG     P39498   4.178   6.357   2.701
   42PVPG   O1339499   4.129   6.475   2.627
   42PVPG   O1439500   4.325   6.343   2.707
   42PVPG   O1239501   4.121   6.226   2.631
   42PVPG   O1139502   4.115   6.352   2.845
   42PVPG    C139503   3.973   6.371   2.859
   42PVPG    HA39504   3.916   6.308   2.788
   42PVPG    HB39505   3.946   6.477   2.841
   42PVPG    C239506   3.921   6.335   3.002
   42PVPG    HS39507   3.811   6.329   2.993
   42PVPG   O2139508   3.967   6.433   3.096
   42PVPG   C2139509   3.873   6.483   3.175
   42PVPG   O2239510   3.753   6.474   3.157
   42PVPG   C2239511   3.936   6.552   3.295
   42PVPG   H2R39512   3.860   6.547   3.377
   42PVPG   H2S39513   3.954   6.659   3.270
   42PVPG    C339514   3.969   6.194   3.049
   42PVPG    HX39515   3.965   6.126   2.962
   42PVPG    HY39516   4.075   6.202   3.080
   42PVPG   O3139517   3.880   6.141   3.148
   42PVPG   C3139518   3.933   6.105   3.266
   42PVPG   O3239519   4.049   6.119   3.297
   42PVPG   C3239520   3.824   6.040   3.351
   42PVPG   H2X39521   3.766   5.972   3.285
   42PVPG   H2Y39522   3.755   6.119   3.388
   42PVPG   C2339523   4.067   6.485   3.344
   42PVPG   H3R39524   4.152   6.514   3.278
   42PVPG   H3S39525   4.056   6.375   3.337
   42PVPG   C2439526   4.099   6.516   3.490
   42PVPG   H4R39527   4.011   6.486   3.552
   42PVPG   H4S39528   4.116   6.625   3.506
   42PVPG   C2539529   4.221   6.436   3.538
   42PVPG   H5R39530   4.315   6.481   3.500
   42PVPG   H5S39531   4.212   6.335   3.492
   42PVPG   C2639532   4.227   6.420   3.691
   42PVPG   H6R39533   4.127   6.389   3.727
   42PVPG   H6S39534   4.251   6.517   3.738
   42PVPG   C2739535   4.328   6.313   3.737
   42PVPG   H7R39536   4.318   6.302   3.847
   42PVPG   H7S39537   4.432   6.346   3.715
   42PVPG   C2839538   4.303   6.176   3.672
   42PVPG   H8R39539   4.349   6.173   3.570
   42PVPG   H8S39540   4.193   6.166   3.660
   42PVPG   C2939541   4.349   6.055   3.754
   42PVPG   H9R39542   4.298   5.965   3.712
   42PVPG   H9S39543   4.316   6.066   3.859
   42PVPG  C21039544   4.501   6.028   3.749
   42PVPG  H10R39545   4.553   6.111   3.804
   42PVPG  H10S39546   4.535   6.032   3.644
   42PVPG  C21139547   4.533   5.894   3.811
   42PVPG  H11139548   4.541   5.811   3.738
   42PVPG  C21239549   4.550   5.868   3.941
   42PVPG  H12139550   4.572   5.765   3.972
   42PVPG  C21339551   4.541   5.966   4.056
   42PVPG  H13R39552   4.516   6.068   4.021
   42PVPG  H13S39553   4.641   5.973   4.103
   42PVPG  C21439554   4.439   5.926   4.163
   42PVPG  H14R39555   4.412   5.818   4.156
   42PVPG  H14S39556   4.345   5.984   4.149
   42PVPG  C21539557   4.493   5.950   4.306
   42PVPG  H15R39558   4.525   6.056   4.316
   42PVPG  H15S39559   4.582   5.885   4.320
   42PVPG  C21639560   4.390   5.917   4.414
   42PVPG  H16R39561   4.347   5.817   4.395
   42PVPG  H16S39562   4.307   5.991   4.411
   42PVPG  C21739563   4.451   5.915   4.556
   42PVPG  H17R39564   4.503   6.012   4.575
   42PVPG  H17S39565   4.527   5.835   4.561
   42PVPG  C21839566   4.347   5.891   4.664
   42PVPG  H18R39567   4.294   5.795   4.646
   42PVPG  H18S39568   4.394   5.883   4.764
   42PVPG  H18T39569   4.273   5.973   4.667
   42PVPG   C3339570   3.881   5.958   3.469
   42PVPG   H3X39571   3.971   5.903   3.436
   42PVPG   H3Y39572   3.806   5.883   3.502
   42PVPG   C3439573   3.918   6.043   3.592
   42PVPG   H4X39574   3.826   6.078   3.643
   42PVPG   H4Y39575   3.974   6.132   3.557
   42PVPG   C3539576   4.008   5.967   3.691
   42PVPG   H5X39577   4.042   6.037   3.770
   42PVPG   H5Y39578   4.098   5.933   3.636
   42PVPG   C3639579   3.944   5.844   3.759
   42PVPG   H6X39580   4.021   5.796   3.823
   42PVPG   H6Y39581   3.916   5.770   3.681
   42PVPG   C3739582   3.820   5.875   3.846
   42PVPG   H7X39583   3.788   5.781   3.896
   42PVPG   H7Y39584   3.738   5.906   3.780
   42PVPG   C3839585   3.840   5.985   3.951
   42PVPG   H8X39586   3.743   6.003   4.002
   42PVPG   H8Y39587   3.868   6.079   3.900
   42PVPG   C3939588   3.944   5.949   4.058
   42PVPG   H9X39589   4.038   5.911   4.011
   42PVPG   H9Y39590   3.901   5.867   4.118
   42PVPG  C31039591   3.981   6.065   4.153
   42PVPG  H10X39592   4.023   6.020   4.245
   42PVPG  H10Y39593   3.890   6.120   4.184
   42PVPG  C31139594   4.091   6.159   4.098
   42PVPG  H11X39595   4.166   6.100   4.042
   42PVPG  H11Y39596   4.143   6.202   4.186
   42PVPG  C31239597   4.043   6.277   4.011
   42PVPG  H12X39598   4.009   6.238   3.912
   42PVPG  H12Y39599   4.130   6.343   3.992
   42PVPG  C31339600   3.930   6.362   4.072
   42PVPG  H13X39601   3.838   6.300   4.078
   42PVPG  H13Y39602   3.907   6.447   4.005
   42PVPG  C31439603   3.962   6.416   4.212
   42PVPG  H14X39604   4.048   6.486   4.208
   42PVPG  H14Y39605   3.992   6.331   4.278
   42PVPG  C31539606   3.842   6.484   4.280
   42PVPG  H15X39607   3.750   6.461   4.221
   42PVPG  H15Y39608   3.856   6.594   4.275
   42PVPG  C31639609   3.821   6.438   4.424
   42PVPG  H16X39610   3.909   6.463   4.486
   42PVPG  H16Y39611   3.732   6.488   4.469
   42PVPG  H16Z39612   3.804   6.328   4.429
   43PVPG   C1339613   5.191   1.681   2.455
   43PVPG  H13A39614   5.208   1.781   2.411
   43PVPG  H13B39615   5.264   1.667   2.538
   43PVPG   OC339616   5.209   1.579   2.356
   43PVPG   HO339617   5.168   1.501   2.393
   43PVPG   C1239618   5.048   1.675   2.513
   43PVPG  H12A39619   4.975   1.682   2.429
   43PVPG   OC239620   5.025   1.784   2.601
   43PVPG   HO239621   4.950   1.755   2.654
   43PVPG   C1139622   5.023   1.542   2.589
   43PVPG  H11A39623   5.048   1.553   2.696
   43PVPG  H11B39624   5.091   1.463   2.550
   43PVPG     P39625   4.777   1.542   2.669
   43PVPG   O1339626   4.650   1.533   2.594
   43PVPG   O1439627   4.818   1.672   2.725
   43PVPG   O1239628   4.889   1.498   2.566
   43PVPG   O1139629   4.796   1.422   2.770
   43PVPG    C139630   4.687   1.343   2.816
   43PVPG    HA39631   4.696   1.240   2.774
   43PVPG    HB39632   4.587   1.383   2.788
   43PVPG    C239633   4.688   1.331   2.971
   43PVPG    HS39634   4.605   1.261   2.997
   43PVPG   O2139635   4.656   1.462   3.024
   43PVPG   C2139636   4.646   1.468   3.156
   43PVPG   O2239637   4.679   1.379   3.233
   43PVPG   C2239638   4.588   1.602   3.200
   43PVPG   H2R39639   4.538   1.650   3.113
   43PVPG   H2S39640   4.674   1.665   3.233
   43PVPG    C339641   4.821   1.267   3.024
   43PVPG    HX39642   4.791   1.202   3.109
   43PVPG    HY39643   4.864   1.201   2.945
   43PVPG   O3139644   4.919   1.366   3.064
   43PVPG   C3139645   4.992   1.332   3.170
   43PVPG   O3239646   5.000   1.219   3.216
   43PVPG   C3239647   5.071   1.453   3.219
   43PVPG   H2X39648   5.032   1.544   3.169
   43PVPG   H2Y39649   5.177   1.439   3.190
   43PVPG   C2339650   4.487   1.585   3.316
   43PVPG   H3R39651   4.526   1.510   3.389
   43PVPG   H3S39652   4.392   1.545   3.276
   43PVPG   C2439653   4.459   1.712   3.398
   43PVPG   H4R39654   4.365   1.696   3.455
   43PVPG   H4S39655   4.444   1.798   3.330
   43PVPG   C2539656   4.571   1.740   3.499
   43PVPG   H5R39657   4.666   1.759   3.443
   43PVPG   H5S39658   4.587   1.649   3.561
   43PVPG   C2639659   4.542   1.858   3.592
   43PVPG   H6R39660   4.461   1.828   3.663
   43PVPG   H6S39661   4.504   1.943   3.532
   43PVPG   C2739662   4.666   1.904   3.671
   43PVPG   H7R39663   4.638   1.992   3.733
   43PVPG   H7S39664   4.744   1.937   3.599
   43PVPG   C2839665   4.725   1.796   3.762
   43PVPG   H8R39666   4.750   1.707   3.700
   43PVPG   H8S39667   4.646   1.761   3.833
   43PVPG   C2939668   4.854   1.837   3.837
   43PVPG   H9R39669   4.930   1.867   3.760
   43PVPG   H9S39670   4.894   1.749   3.891
   43PVPG  C21039671   4.840   1.950   3.940
   43PVPG  H10R39672   4.802   2.041   3.889
   43PVPG  H10S39673   4.940   1.974   3.981
   43PVPG  C21139674   4.745   1.906   4.049
   43PVPG  H11139675   4.669   1.833   4.018
   43PVPG  C21239676   4.743   1.944   4.176
   43PVPG  H12139677   4.660   1.907   4.237
   43PVPG  C21339678   4.835   2.040   4.247
   43PVPG  H13R39679   4.831   2.139   4.198
   43PVPG  H13S39680   4.940   2.004   4.245
   43PVPG  C21439681   4.794   2.058   4.395
   43PVPG  H14R39682   4.688   2.092   4.403
   43PVPG  H14S39683   4.856   2.140   4.436
   43PVPG  C21539684   4.816   1.936   4.487
   43PVPG  H15R39685   4.805   1.970   4.592
   43PVPG  H15S39686   4.921   1.901   4.474
   43PVPG  C21639687   4.724   1.814   4.469
   43PVPG  H16R39688   4.747   1.740   4.549
   43PVPG  H16S39689   4.749   1.763   4.372
   43PVPG  C21739690   4.573   1.843   4.472
   43PVPG  H17R39691   4.547   1.926   4.405
   43PVPG  H17S39692   4.545   1.876   4.575
   43PVPG  C21839693   4.490   1.720   4.432
   43PVPG  H18R39694   4.518   1.685   4.332
   43PVPG  H18S39695   4.506   1.637   4.505
   43PVPG  H18T39696   4.382   1.745   4.432
   43PVPG   C3339697   5.060   1.468   3.372
   43PVPG   H3X39698   5.114   1.559   3.403
   43PVPG   H3Y39699   5.108   1.381   3.422
   43PVPG   C3439700   4.913   1.478   3.417
   43PVPG   H4X39701   4.864   1.378   3.406
   43PVPG   H4Y39702   4.860   1.548   3.349
   43PVPG   C3539703   4.894   1.526   3.559
   43PVPG   H5X39704   4.785   1.535   3.579
   43PVPG   H5Y39705   4.939   1.628   3.568
   43PVPG   C3639706   4.955   1.435   3.667
   43PVPG   H6X39707   5.061   1.413   3.641
   43PVPG   H6Y39708   4.900   1.339   3.670
   43PVPG   C3739709   4.951   1.504   3.804
   43PVPG   H7X39710   4.845   1.520   3.832
   43PVPG   H7Y39711   5.000   1.604   3.790
   43PVPG   C3839712   5.028   1.431   3.913
   43PVPG   H8X39713   5.128   1.407   3.870
   43PVPG   H8Y39714   4.979   1.335   3.938
   43PVPG   C3939715   5.052   1.514   4.042
   43PVPG   H9X39716   5.121   1.597   4.014
   43PVPG   H9Y39717   5.105   1.451   4.116
   43PVPG  C31039718   4.927   1.577   4.106
   43PVPG  H10X39719   4.843   1.577   4.035
   43PVPG  H10Y39720   4.949   1.684   4.129
   43PVPG  C31139721   4.881   1.510   4.236
   43PVPG  H11X39722   4.878   1.400   4.223
   43PVPG  H11Y39723   4.777   1.544   4.257
   43PVPG  C31239724   4.967   1.546   4.358
   43PVPG  H12X39725   4.976   1.657   4.365
   43PVPG  H12Y39726   5.069   1.505   4.346
   43PVPG  C31339727   4.905   1.495   4.490
   43PVPG  H13X39728   4.900   1.385   4.487
   43PVPG  H13Y39729   4.801   1.532   4.498
   43PVPG  C31439730   4.984   1.538   4.615
   43PVPG  H14X39731   4.974   1.648   4.627
   43PVPG  H14Y39732   5.092   1.516   4.599
   43PVPG  C31539733   4.938   1.469   4.745
   43PVPG  H15X39734   4.981   1.525   4.830
   43PVPG  H15Y39735   4.981   1.367   4.748
   43PVPG  C31639736   4.787   1.457   4.762
   43PVPG  H16X39737   4.762   1.426   4.866
   43PVPG  H16Y39738   4.737   1.554   4.742
   43PVPG  H16Z39739   4.745   1.382   4.693
   44PVPG   C1339740   1.498   4.887   2.420
   44PVPG  H13A39741   1.545   4.793   2.384
   44PVPG  H13B39742   1.401   4.861   2.467
   44PVPG   OC339743   1.477   4.975   2.309
   44PVPG   HO339744   1.564   5.002   2.282
   44PVPG   C1239745   1.590   4.951   2.527
   44PVPG  H12A39746   1.689   4.972   2.481
   44PVPG   OC239747   1.608   4.861   2.636
   44PVPG   HO239748   1.654   4.915   2.700
   44PVPG   C1139749   1.533   5.084   2.583
   44PVPG  H11A39750   1.438   5.061   2.635
   44PVPG  H11B39751   1.510   5.150   2.497
   44PVPG     P39752   1.591   5.287   2.737
   44PVPG   O1339753   1.514   5.369   2.640
   44PVPG   O1439754   1.714   5.353   2.784
   44PVPG   O1239755   1.627   5.147   2.670
   44PVPG   O1139756   1.494   5.249   2.856
   44PVPG    C139757   1.487   5.117   2.912
   44PVPG    HA39758   1.585   5.063   2.910
   44PVPG    HB39759   1.413   5.056   2.856
   44PVPG    C239760   1.440   5.124   3.061
   44PVPG    HS39761   1.374   5.213   3.066
   44PVPG   O2139762   1.556   5.140   3.143
   44PVPG   C2139763   1.530   5.199   3.260
   44PVPG   O2239764   1.419   5.234   3.297
   44PVPG   C2239765   1.662   5.221   3.334
   44PVPG   H2R39766   1.713   5.305   3.282
   44PVPG   H2S39767   1.725   5.130   3.325
   44PVPG    C339768   1.355   5.000   3.103
   44PVPG    HX39769   1.322   5.018   3.208
   44PVPG    HY39770   1.263   5.002   3.042
   44PVPG   O3139771   1.423   4.873   3.083
   44PVPG   C3139772   1.498   4.837   3.190
   44PVPG   O3239773   1.486   4.883   3.302
   44PVPG   C3239774   1.606   4.738   3.146
   44PVPG   H2X39775   1.702   4.794   3.148
   44PVPG   H2Y39776   1.587   4.709   3.040
   44PVPG   C2339777   1.646   5.257   3.484
   44PVPG   H3R39778   1.559   5.324   3.502
   44PVPG   H3S39779   1.736   5.313   3.516
   44PVPG   C2439780   1.635   5.133   3.573
   44PVPG   H4R39781   1.724   5.067   3.556
   44PVPG   H4S39782   1.545   5.074   3.544
   44PVPG   C2539783   1.627   5.166   3.723
   44PVPG   H5R39784   1.613   5.071   3.780
   44PVPG   H5S39785   1.536   5.227   3.742
   44PVPG   C2639786   1.748   5.241   3.781
   44PVPG   H6R39787   1.732   5.252   3.891
   44PVPG   H6S39788   1.751   5.343   3.737
   44PVPG   C2739789   1.885   5.174   3.759
   44PVPG   H7R39790   1.923   5.203   3.658
   44PVPG   H7S39791   1.870   5.064   3.757
   44PVPG   C2839792   1.989   5.209   3.867
   44PVPG   H8R39793   1.954   5.170   3.965
   44PVPG   H8S39794   1.997   5.319   3.878
   44PVPG   C2939795   2.128   5.150   3.839
   44PVPG   H9R39796   2.167   5.197   3.747
   44PVPG   H9S39797   2.120   5.041   3.818
   44PVPG  C21039798   2.230   5.176   3.952
   44PVPG  H10R39799   2.213   5.278   3.992
   44PVPG  H10S39800   2.332   5.178   3.907
   44PVPG  C21139801   2.230   5.073   4.062
   44PVPG  H11139802   2.276   4.976   4.035
   44PVPG  C21239803   2.188   5.087   4.188
   44PVPG  H12139804   2.195   5.000   4.256
   44PVPG  C21339805   2.130   5.209   4.253
   44PVPG  H13R39806   2.100   5.286   4.179
   44PVPG  H13S39807   2.207   5.255   4.319
   44PVPG  C21439808   2.009   5.173   4.339
   44PVPG  H14R39809   2.028   5.080   4.398
   44PVPG  H14S39810   1.920   5.155   4.275
   44PVPG  C21539811   1.976   5.281   4.443
   44PVPG  H15R39812   2.062   5.289   4.512
   44PVPG  H15S39813   1.887   5.248   4.502
   44PVPG  C21639814   1.949   5.420   4.382
   44PVPG  H16R39815   1.854   5.418   4.325
   44PVPG  H16S39816   2.030   5.448   4.311
   44PVPG  C21739817   1.943   5.529   4.491
   44PVPG  H17R39818   1.933   5.628   4.443
   44PVPG  H17S39819   2.040   5.530   4.545
   44PVPG  C21839820   1.830   5.507   4.591
   44PVPG  H18R39821   1.732   5.503   4.542
   44PVPG  H18S39822   1.846   5.412   4.646
   44PVPG  H18T39823   1.829   5.589   4.667
   44PVPG   C3339824   1.616   4.610   3.233
   44PVPG   H3X39825   1.686   4.541   3.181
   44PVPG   H3Y39826   1.518   4.558   3.237
   44PVPG   C3439827   1.670   4.631   3.377
   44PVPG   H4X39828   1.679   4.530   3.422
   44PVPG   H4Y39829   1.597   4.689   3.436
   44PVPG   C3539830   1.808   4.696   3.384
   44PVPG   H5X39831   1.804   4.802   3.351
   44PVPG   H5Y39832   1.875   4.640   3.315
   44PVPG   C3639833   1.872   4.689   3.523
   44PVPG   H6X39834   1.980   4.717   3.516
   44PVPG   H6Y39835   1.868   4.583   3.557
   44PVPG   C3739836   1.807   4.778   3.630
   44PVPG   H7X39837   1.698   4.786   3.612
   44PVPG   H7Y39838   1.850   4.881   3.622
   44PVPG   C3839839   1.830   4.724   3.771
   44PVPG   H8X39840   1.938   4.704   3.788
   44PVPG   H8Y39841   1.778   4.627   3.783
   44PVPG   C3939842   1.779   4.815   3.884
   44PVPG   H9X39843   1.712   4.756   3.950
   44PVPG   H9Y39844   1.717   4.896   3.839
   44PVPG  C31039845   1.892   4.873   3.969
   44PVPG  H10X39846   1.948   4.951   3.913
   44PVPG  H10Y39847   1.966   4.792   3.990
   44PVPG  C31139848   1.845   4.924   4.104
   44PVPG  H11X39849   1.931   4.956   4.167
   44PVPG  H11Y39850   1.797   4.839   4.157
   44PVPG  C31239851   1.742   5.037   4.094
   44PVPG  H12X39852   1.690   5.033   3.997
   44PVPG  H12Y39853   1.792   5.137   4.101
   44PVPG  C31339854   1.637   5.025   4.202
   44PVPG  H13X39855   1.683   5.050   4.300
   44PVPG  H13Y39856   1.601   4.920   4.208
   44PVPG  C31439857   1.517   5.115   4.175
   44PVPG  H14X39858   1.478   5.094   4.073
   44PVPG  H14Y39859   1.551   5.221   4.177
   44PVPG  C31539860   1.406   5.093   4.278
   44PVPG  H15X39861   1.365   4.990   4.267
   44PVPG  H15Y39862   1.323   5.163   4.252
   44PVPG  C31639863   1.453   5.114   4.421
   44PVPG  H16X39864   1.512   5.027   4.457
   44PVPG  H16Y39865   1.518   5.203   4.429
   44PVPG  H16Z39866   1.367   5.128   4.490
   45PVPG   C1339867   4.088   0.989   2.472
   45PVPG  H13A39868   4.007   0.924   2.509
   45PVPG  H13B39869   4.090   0.984   2.361
   45PVPG   OC339870   4.215   0.946   2.522
   45PVPG   HO339871   4.263   1.029   2.522
   45PVPG   C1239872   4.062   1.136   2.514
   45PVPG  H12A39873   3.970   1.173   2.465
   45PVPG   OC239874   4.172   1.217   2.470
   45PVPG   HO239875   4.194   1.273   2.545
   45PVPG   C1139876   4.043   1.148   2.668
   45PVPG  H11A39877   4.127   1.097   2.720
   45PVPG  H11B39878   3.951   1.092   2.695
   45PVPG     P39879   4.147   1.360   2.779
   45PVPG   O1339880   4.099   1.493   2.821
   45PVPG   O1439881   4.258   1.351   2.680
   45PVPG   O1239882   4.025   1.284   2.709
   45PVPG   O1139883   4.176   1.265   2.903
   45PVPG    C139884   4.076   1.238   3.002
   45PVPG    HA39885   4.057   1.129   3.009
   45PVPG    HB39886   3.978   1.287   2.978
   45PVPG    C239887   4.119   1.287   3.143
   45PVPG    HS39888   4.152   1.393   3.134
   45PVPG   O2139889   4.221   1.200   3.195
   45PVPG   C2139890   4.344   1.246   3.183
   45PVPG   O2239891   4.378   1.346   3.123
   45PVPG   C2239892   4.442   1.152   3.254
   45PVPG   H2R39893   4.532   1.146   3.190
   45PVPG   H2S39894   4.397   1.051   3.262
   45PVPG    C339895   3.999   1.287   3.242
   45PVPG    HX39896   4.036   1.309   3.344
   45PVPG    HY39897   3.933   1.372   3.214
   45PVPG   O3139898   3.920   1.166   3.235
   45PVPG   C3139899   3.952   1.071   3.322
   45PVPG   O3239900   4.042   1.076   3.403
   45PVPG   C3239901   3.859   0.951   3.300
   45PVPG   H2X39902   3.918   0.865   3.261
   45PVPG   H2Y39903   3.785   0.979   3.222
   45PVPG   C2339904   4.485   1.204   3.393
   45PVPG   H3R39905   4.525   1.308   3.389
   45PVPG   H3S39906   4.571   1.141   3.426
   45PVPG   C2439907   4.377   1.199   3.500
   45PVPG   H4R39908   4.423   1.168   3.596
   45PVPG   H4S39909   4.300   1.123   3.473
   45PVPG   C2539910   4.307   1.334   3.524
   45PVPG   H5R39911   4.251   1.360   3.432
   45PVPG   H5S39912   4.384   1.413   3.540
   45PVPG   C2639913   4.210   1.330   3.642
   45PVPG   H6R39914   4.150   1.237   3.636
   45PVPG   H6S39915   4.140   1.416   3.634
   45PVPG   C2739916   4.278   1.338   3.780
   45PVPG   H7R39917   4.346   1.251   3.796
   45PVPG   H7S39918   4.199   1.332   3.858
   45PVPG   C2839919   4.356   1.468   3.804
   45PVPG   H8R39920   4.305   1.550   3.747
   45PVPG   H8S39921   4.459   1.459   3.760
   45PVPG   C2939922   4.363   1.509   3.951
   45PVPG   H9R39923   4.259   1.515   3.990
   45PVPG   H9S39924   4.405   1.612   3.959
   45PVPG  C21039925   4.444   1.414   4.042
   45PVPG  H10R39926   4.405   1.311   4.032
   45PVPG  H10S39927   4.427   1.447   4.146
   45PVPG  C21139928   4.591   1.424   4.010
   45PVPG  H11139929   4.625   1.526   3.990
   45PVPG  C21239930   4.682   1.325   4.009
   45PVPG  H12139931   4.787   1.353   3.990
   45PVPG  C21339932   4.663   1.179   4.037
   45PVPG  H13R39933   4.734   1.120   3.976
   45PVPG  H13S39934   4.561   1.145   4.009
   45PVPG  C21439935   4.688   1.148   4.186
   45PVPG  H14R39936   4.588   1.143   4.235
   45PVPG  H14S39937   4.744   1.228   4.240
   45PVPG  C21539938   4.762   1.015   4.214
   45PVPG  H15R39939   4.871   1.032   4.214
   45PVPG  H15S39940   4.739   0.942   4.132
   45PVPG  C21639941   4.712   0.958   4.346
   45PVPG  H16R39942   4.603   0.940   4.328
   45PVPG  H16S39943   4.718   1.033   4.429
   45PVPG  C21739944   4.763   0.823   4.393
   45PVPG  H17R39945   4.868   0.830   4.429
   45PVPG  H17S39946   4.761   0.751   4.308
   45PVPG  C21839947   4.673   0.773   4.505
   45PVPG  H18R39948   4.701   0.669   4.535
   45PVPG  H18S39949   4.681   0.838   4.595
   45PVPG  H18T39950   4.567   0.772   4.473
   45PVPG   C3339951   3.783   0.911   3.429
   45PVPG   H3X39952   3.693   0.851   3.403
   45PVPG   H3Y39953   3.749   1.005   3.478
   45PVPG   C3439954   3.864   0.833   3.532
   45PVPG   H4X39955   3.965   0.879   3.540
   45PVPG   H4Y39956   3.878   0.728   3.498
   45PVPG   C3539957   3.804   0.833   3.674
   45PVPG   H5X39958   3.872   0.774   3.740
   45PVPG   H5Y39959   3.706   0.780   3.674
   45PVPG   C3639960   3.784   0.972   3.738
   45PVPG   H6X39961   3.769   0.956   3.846
   45PVPG   H6Y39962   3.691   1.019   3.700
   45PVPG   C3739963   3.900   1.073   3.719
   45PVPG   H7X39964   3.879   1.141   3.634
   45PVPG   H7Y39965   3.992   1.017   3.691
   45PVPG   C3839966   3.932   1.152   3.846
   45PVPG   H8X39967   4.036   1.193   3.839
   45PVPG   H8Y39968   3.931   1.084   3.933
   45PVPG   C3939969   3.836   1.267   3.873
   45PVPG   H9X39970   3.732   1.232   3.854
   45PVPG   H9Y39971   3.856   1.351   3.804
   45PVPG  C31039972   3.843   1.317   4.018
   45PVPG  H10X39973   3.819   1.231   4.084
   45PVPG  H10Y39974   3.765   1.395   4.033
   45PVPG  C31139975   3.979   1.372   4.064
   45PVPG  H11X39976   4.015   1.449   3.993
   45PVPG  H11Y39977   4.053   1.289   4.066
   45PVPG  C31239978   3.966   1.433   4.204
   45PVPG  H12X39979   3.918   1.359   4.273
   45PVPG  H12Y39980   3.899   1.521   4.198
   45PVPG  C31339981   4.099   1.476   4.269
   45PVPG  H13X39982   4.074   1.532   4.362
   45PVPG  H13Y39983   4.154   1.546   4.202
   45PVPG  C31439984   4.190   1.359   4.308
   45PVPG  H14X39985   4.235   1.315   4.216
   45PVPG  H14Y39986   4.127   1.281   4.356
   45PVPG  C31539987   4.299   1.399   4.407
   45PVPG  H15X39988   4.254   1.400   4.509
   45PVPG  H15Y39989   4.331   1.503   4.384
   45PVPG  C31639990   4.423   1.310   4.411
   45PVPG  H16X39991   4.472   1.307   4.311
   45PVPG  H16Y39992   4.497   1.348   4.485
   45PVPG  H16Z39993   4.396   1.206   4.441
   46PVPG   C1339994   2.363   6.218   2.608
   46PVPG  H13A39995   2.351   6.315   2.661
   46PVPG  H13B39996   2.373   6.241   2.499
   46PVPG   OC339997   2.249   6.134   2.628
   46PVPG   HO339998   2.249   6.116   2.723
   46PVPG   C1239999   2.495   6.150   2.653
   46PVPG  H12A40000   2.493   6.044   2.621
   46PVPG   OC240001   2.507   6.155   2.794
   46PVPG   HO240002   2.592   6.198   2.807
   46PVPG   C1140003   2.616   6.220   2.588
   46PVPG  H11A40004   2.619   6.196   2.480
   46PVPG  H11B40005   2.710   6.182   2.634
   46PVPG     P40006   2.721   6.461   2.599
   46PVPG   O1340007   2.662   6.597   2.598
   46PVPG   O1440008   2.810   6.424   2.487
   46PVPG   O1240009   2.601   6.361   2.603
   46PVPG   O1140010   2.794   6.433   2.738
   46PVPG    C140011   2.918   6.360   2.738
   46PVPG    HA40012   2.995   6.414   2.680
   46PVPG    HB40013   2.905   6.260   2.690
   46PVPG    C240014   2.976   6.336   2.881
   46PVPG    HS40015   3.054   6.257   2.877
   46PVPG   O2140016   2.878   6.300   2.980
   46PVPG   C2140017   2.804   6.194   2.962
   46PVPG   O2240018   2.793   6.129   2.859
   46PVPG   C2240019   2.743   6.148   3.094
   46PVPG   H2R40020   2.817   6.077   3.136
   46PVPG   H2S40021   2.650   6.092   3.072
   46PVPG    C340022   3.046   6.466   2.931
   46PVPG    HX40023   3.139   6.481   2.872
   46PVPG    HY40024   2.978   6.550   2.905
   46PVPG   O3140025   3.078   6.462   3.071
   46PVPG   C3140026   2.996   6.531   3.151
   46PVPG   O3240027   2.900   6.596   3.116
   46PVPG   C3240028   3.048   6.521   3.294
   46PVPG   H2X40029   3.157   6.542   3.290
   46PVPG   H2Y40030   3.033   6.418   3.332
   46PVPG   C2340031   2.716   6.256   3.202
   46PVPG   H3R40032   2.791   6.339   3.198
   46PVPG   H3S40033   2.729   6.207   3.301
   46PVPG   C2440034   2.574   6.314   3.200
   46PVPG   H4R40035   2.501   6.229   3.201
   46PVPG   H4S40036   2.558   6.373   3.108
   46PVPG   C2540037   2.550   6.401   3.325
   46PVPG   H5R40038   2.607   6.495   3.312
   46PVPG   H5S40039   2.592   6.347   3.412
   46PVPG   C2640040   2.404   6.436   3.358
   46PVPG   H6R40041   2.344   6.343   3.358
   46PVPG   H6S40042   2.364   6.504   3.280
   46PVPG   C2740043   2.394   6.503   3.495
   46PVPG   H7R40044   2.458   6.594   3.497
   46PVPG   H7S40045   2.434   6.433   3.572
   46PVPG   C2840046   2.251   6.542   3.535
   46PVPG   H8R40047   2.187   6.451   3.532
   46PVPG   H8S40048   2.212   6.613   3.458
   46PVPG   C2940049   2.240   6.608   3.674
   46PVPG   H9R40050   2.138   6.652   3.679
   46PVPG   H9S40051   2.312   6.692   3.682
   46PVPG  C21040052   2.261   6.510   3.792
   46PVPG  H10R40053   2.370   6.499   3.811
   46PVPG  H10S40054   2.225   6.410   3.759
   46PVPG  C21140055   2.185   6.551   3.917
   46PVPG  H11140056   2.082   6.585   3.898
   46PVPG  C21240057   2.230   6.550   4.043
   46PVPG  H12140058   2.164   6.583   4.123
   46PVPG  C21340059   2.367   6.506   4.087
   46PVPG  H13R40060   2.441   6.583   4.054
   46PVPG  H13S40061   2.397   6.412   4.035
   46PVPG  C21440062   2.385   6.481   4.238
   46PVPG  H14R40063   2.495   6.477   4.257
   46PVPG  H14S40064   2.344   6.381   4.266
   46PVPG  C21540065   2.327   6.585   4.335
   46PVPG  H15R40066   2.219   6.563   4.351
   46PVPG  H15S40067   2.335   6.688   4.293
   46PVPG  C21640068   2.398   6.582   4.472
   46PVPG  H16R40069   2.436   6.479   4.490
   46PVPG  H16S40070   2.326   6.605   4.554
   46PVPG  C21740071   2.513   6.683   4.479
   46PVPG  H17R40072   2.472   6.784   4.497
   46PVPG  H17S40073   2.562   6.683   4.379
   46PVPG  C21840074   2.622   6.654   4.583
   46PVPG  H18R40075   2.698   6.735   4.584
   46PVPG  H18S40076   2.578   6.645   4.686
   46PVPG  H18T40077   2.675   6.559   4.559
   46PVPG   C3340078   2.982   6.626   3.386
   46PVPG   H3X40079   2.968   6.722   3.333
   46PVPG   H3Y40080   3.052   6.649   3.470
   46PVPG   C3440081   2.852   6.584   3.454
   46PVPG   H4X40082   2.768   6.594   3.381
   46PVPG   H4Y40083   2.832   6.658   3.535
   46PVPG   C3540084   2.849   6.447   3.523
   46PVPG   H5X40085   2.949   6.424   3.566
   46PVPG   H5Y40086   2.826   6.368   3.447
   46PVPG   C3640087   2.744   6.447   3.634
   46PVPG   H6X40088   2.651   6.493   3.594
   46PVPG   H6Y40089   2.779   6.513   3.716
   46PVPG   C3740090   2.710   6.309   3.693
   46PVPG   H7X40091   2.677   6.240   3.611
   46PVPG   H7Y40092   2.623   6.326   3.759
   46PVPG   C3840093   2.825   6.247   3.771
   46PVPG   H8X40094   2.872   6.328   3.832
   46PVPG   H8Y40095   2.903   6.210   3.701
   46PVPG   C3940096   2.783   6.134   3.868
   46PVPG   H9X40097   2.872   6.105   3.929
   46PVPG   H9Y40098   2.752   6.045   3.809
   46PVPG  C31040099   2.669   6.173   3.964
   46PVPG  H10X40100   2.574   6.177   3.906
   46PVPG  H10Y40101   2.688   6.275   4.002
   46PVPG  C31140102   2.649   6.074   4.080
   46PVPG  H11X40103   2.695   5.977   4.051
   46PVPG  H11Y40104   2.540   6.057   4.094
   46PVPG  C31240105   2.706   6.121   4.215
   46PVPG  H12X40106   2.813   6.148   4.203
   46PVPG  H12Y40107   2.700   6.038   4.288
   46PVPG  C31340108   2.628   6.241   4.271
   46PVPG  H13X40109   2.520   6.215   4.278
   46PVPG  H13Y40110   2.637   6.324   4.197
   46PVPG  C31440111   2.676   6.296   4.406
   46PVPG  H14X40112   2.643   6.402   4.412
   46PVPG  H14Y40113   2.786   6.295   4.415
   46PVPG  C31540114   2.614   6.226   4.528
   46PVPG  H15X40115   2.658   6.124   4.538
   46PVPG  H15Y40116   2.505   6.214   4.506
   46PVPG  C31640117   2.628   6.304   4.658
   46PVPG  H16X40118   2.562   6.393   4.658
   46PVPG  H16Y40119   2.598   6.241   4.745
   46PVPG  H16Z40120   2.733   6.338   4.674
   47PVPG   C1340121   5.213   7.094   2.825
   47PVPG  H13A40122   5.201   7.158   2.915
   47PVPG  H13B40123   5.172   6.993   2.849
   47PVPG   OC340124   5.351   7.081   2.790
   47PVPG   HO340125   5.353   7.108   2.698
   47PVPG   C1240126   5.127   7.153   2.708
   47PVPG  H12A40127   5.019   7.140   2.732
   47PVPG   OC240128   5.156   7.088   2.585
   47PVPG   HO240129   5.129   7.157   2.524
   47PVPG   C1140130   5.153   7.304   2.683
   47PVPG  H11A40131   5.262   7.321   2.675
   47PVPG  H11B40132   5.115   7.360   2.772
   47PVPG     P40133   5.108   7.490   2.503
   47PVPG   O1340134   5.005   7.518   2.401
   47PVPG   O1440135   5.248   7.501   2.456
   47PVPG   O1240136   5.084   7.345   2.564
   47PVPG   O1140137   5.084   7.589   2.623
   47PVPG    C140138   4.954   7.590   2.684
   47PVPG    HA40139   4.907   7.490   2.686
   47PVPG    HB40140   4.886   7.659   2.629
   47PVPG    C240141   4.959   7.637   2.832
   47PVPG    HS40142   4.983   7.745   2.834
   47PVPG   O2140143   5.055   7.556   2.903
   47PVPG   C2140144   5.163   7.618   2.947
   47PVPG   O2240145   5.197   7.732   2.919
   47PVPG   C2240146   5.236   7.524   3.043
   47PVPG   H2R40147   5.293   7.451   2.983
   47PVPG   H2S40148   5.159   7.468   3.101
   47PVPG    C340149   4.820   7.618   2.899
   47PVPG    HX40150   4.746   7.674   2.839
   47PVPG    HY40151   4.792   7.511   2.898
   47PVPG   O3140152   4.819   7.672   3.033
   47PVPG   C3140153   4.858   7.591   3.131
   47PVPG   O3240154   4.883   7.472   3.120
   47PVPG   C3240155   4.862   7.671   3.260
   47PVPG   H2X40156   4.775   7.641   3.322
   47PVPG   H2Y40157   4.845   7.778   3.233
   47PVPG   C2340158   5.330   7.598   3.141
   47PVPG   H3R40159   5.274   7.677   3.195
   47PVPG   H3S40160   5.410   7.649   3.082
   47PVPG   C2440161   5.397   7.507   3.245
   47PVPG   H4R40162   5.471   7.567   3.300
   47PVPG   H4S40163   5.453   7.426   3.193
   47PVPG   C2540164   5.299   7.445   3.345
   47PVPG   H5R40165   5.223   7.384   3.292
   47PVPG   H5S40166   5.246   7.527   3.398
   47PVPG   C2640167   5.364   7.356   3.453
   47PVPG   H6R40168   5.412   7.268   3.406
   47PVPG   H6S40169   5.283   7.317   3.519
   47PVPG   C2740170   5.466   7.429   3.542
   47PVPG   H7R40171   5.417   7.515   3.591
   47PVPG   H7S40172   5.550   7.469   3.480
   47PVPG   C2840173   5.525   7.335   3.648
   47PVPG   H8R40174   5.594   7.263   3.601
   47PVPG   H8S40175   5.442   7.277   3.694
   47PVPG   C2940176   5.599   7.410   3.760
   47PVPG   H9R40177   5.525   7.469   3.818
   47PVPG   H9S40178   5.670   7.483   3.714
   47PVPG  C21040179   5.679   7.318   3.855
   47PVPG  H10R40180   5.721   7.381   3.936
   47PVPG  H10S40181   5.765   7.276   3.799
   47PVPG  C21140182   5.596   7.206   3.911
   47PVPG  H11140183   5.615   7.107   3.868
   47PVPG  C21240184   5.504   7.217   4.009
   47PVPG  H12140185   5.449   7.127   4.040
   47PVPG  C21340186   5.464   7.343   4.082
   47PVPG  H13R40187   5.369   7.383   4.040
   47PVPG  H13S40188   5.541   7.423   4.069
   47PVPG  C21440189   5.445   7.317   4.233
   47PVPG  H14R40190   5.436   7.415   4.285
   47PVPG  H14S40191   5.534   7.266   4.275
   47PVPG  C21540192   5.318   7.237   4.261
   47PVPG  H15R40193   5.321   7.137   4.212
   47PVPG  H15S40194   5.233   7.293   4.216
   47PVPG  C21640195   5.289   7.219   4.410
   47PVPG  H16R40196   5.284   7.319   4.457
   47PVPG  H16S40197   5.370   7.161   4.459
   47PVPG  C21740198   5.155   7.148   4.432
   47PVPG  H17R40199   5.161   7.043   4.395
   47PVPG  H17S40200   5.080   7.199   4.370
   47PVPG  C21840201   5.108   7.149   4.577
   47PVPG  H18R40202   5.108   7.251   4.620
   47PVPG  H18S40203   5.004   7.110   4.587
   47PVPG  H18T40204   5.175   7.085   4.639
   47PVPG   C3340205   4.993   7.659   3.344
   47PVPG   H3X40206   5.034   7.761   3.358
   47PVPG   H3Y40207   5.070   7.600   3.289
   47PVPG   C3440208   4.970   7.599   3.483
   47PVPG   H4X40209   4.974   7.488   3.476
   47PVPG   H4Y40210   4.868   7.625   3.517
   47PVPG   C3540211   5.067   7.649   3.591
   47PVPG   H5X40212   5.046   7.756   3.612
   47PVPG   H5Y40213   5.173   7.644   3.556
   47PVPG   C3640214   5.055   7.572   3.723
   47PVPG   H6X40215   4.947   7.555   3.747
   47PVPG   H6Y40216   5.097   7.633   3.806
   47PVPG   C3740217   5.131   7.439   3.719
   47PVPG   H7X40218   5.239   7.462   3.712
   47PVPG   H7Y40219   5.102   7.382   3.629
   47PVPG   C3840220   5.110   7.350   3.842
   47PVPG   H8X40221   5.126   7.409   3.936
   47PVPG   H8Y40222   5.186   7.269   3.841
   47PVPG   C3940223   4.970   7.285   3.845
   47PVPG   H9X40224   4.949   7.243   3.745
   47PVPG   H9Y40225   4.895   7.364   3.865
   47PVPG  C31040226   4.956   7.171   3.948
   47PVPG  H10X40227   5.033   7.094   3.926
   47PVPG  H10Y40228   4.856   7.124   3.938
   47PVPG  C31140229   4.973   7.218   4.094
   47PVPG  H11X40230   5.068   7.275   4.101
   47PVPG  H11Y40231   4.982   7.129   4.160
   47PVPG  C31240232   4.858   7.305   4.144
   47PVPG  H12X40233   4.764   7.246   4.137
   47PVPG  H12Y40234   4.846   7.395   4.079
   47PVPG  C31340235   4.876   7.351   4.289
   47PVPG  H13X40236   4.894   7.263   4.355
   47PVPG  H13Y40237   4.780   7.394   4.325
   47PVPG  C31440238   4.981   7.461   4.311
   47PVPG  H14X40239   4.945   7.552   4.259
   47PVPG  H14Y40240   5.078   7.432   4.263
   47PVPG  C31540241   5.007   7.495   4.458
   47PVPG  H15X40242   5.058   7.594   4.464
   47PVPG  H15Y40243   5.077   7.421   4.500
   47PVPG  C31640244   4.881   7.499   4.544
   47PVPG  H16X40245   4.801   7.556   4.492
   47PVPG  H16Y40246   4.842   7.396   4.563
   47PVPG  H16Z40247   4.900   7.547   4.642
   48PVPG   C1340248   0.694   3.174   2.396
   48PVPG  H13A40249   0.739   3.203   2.299
   48PVPG  H13B40250   0.638   3.079   2.381
   48PVPG   OC340251   0.603   3.276   2.438
   48PVPG   HO340252   0.549   3.233   2.505
   48PVPG   C1240253   0.804   3.150   2.503
   48PVPG  H12A40254   0.867   3.241   2.512
   48PVPG   OC240255   0.887   3.042   2.461
   48PVPG   HO240256   0.844   2.968   2.504
   48PVPG   C1140257   0.747   3.114   2.642
   48PVPG  H11A40258   0.690   3.201   2.682
   48PVPG  H11B40259   0.831   3.098   2.712
   48PVPG     P40260   0.512   2.994   2.648
   48PVPG   O1340261   0.467   2.863   2.595
   48PVPG   O1440262   0.459   3.115   2.580
   48PVPG   O1240263   0.670   2.995   2.633
   48PVPG   O1140264   0.491   3.005   2.804
   48PVPG    C140265   0.574   2.931   2.894
   48PVPG    HA40266   0.570   2.978   2.995
   48PVPG    HB40267   0.682   2.935   2.865
   48PVPG    C240268   0.529   2.784   2.908
   48PVPG    HS40269   0.480   2.752   2.813
   48PVPG   O2140270   0.440   2.776   3.020
   48PVPG   C2140271   0.310   2.772   2.997
   48PVPG   O2240272   0.259   2.745   2.889
   48PVPG   C2240273   0.235   2.794   3.128
   48PVPG   H2R40274   0.171   2.705   3.145
   48PVPG   H2S40275   0.170   2.883   3.115
   48PVPG    C340276   0.650   2.689   2.929
   48PVPG    HX40277   0.618   2.584   2.915
   48PVPG    HY40278   0.722   2.710   2.848
   48PVPG   O3140279   0.715   2.712   3.056
   48PVPG   C3140280   0.671   2.633   3.155
   48PVPG   O3240281   0.592   2.541   3.141
   48PVPG   C3240282   0.745   2.665   3.285
   48PVPG   H2X40283   0.830   2.732   3.259
   48PVPG   H2Y40284   0.784   2.570   3.325
   48PVPG   C2340285   0.331   2.815   3.247
   48PVPG   H3R40286   0.400   2.899   3.222
   48PVPG   H3S40287   0.393   2.724   3.263
   48PVPG   C2440288   0.263   2.852   3.379
   48PVPG   H4R40289   0.234   2.760   3.434
   48PVPG   H4S40290   0.171   2.911   3.358
   48PVPG   C2540291   0.356   2.937   3.466
   48PVPG   H5R40292   0.386   3.026   3.407
   48PVPG   H5S40293   0.449   2.880   3.490
   48PVPG   C2640294   0.293   2.985   3.596
   48PVPG   H6R40295   0.184   3.005   3.582
   48PVPG   H6S40296   0.342   3.080   3.623
   48PVPG   C2740297   0.314   2.890   3.714
   48PVPG   H7R40298   0.421   2.864   3.721
   48PVPG   H7S40299   0.258   2.796   3.695
   48PVPG   C2840300   0.269   2.957   3.845
   48PVPG   H8R40301   0.158   2.958   3.851
   48PVPG   H8S40302   0.303   3.063   3.844
   48PVPG   C2940303   0.326   2.894   3.973
   48PVPG   H9R40304   0.274   2.936   4.061
   48PVPG   H9S40305   0.434   2.921   3.983
   48PVPG  C21040306   0.317   2.741   3.977
   48PVPG  H10R40307   0.353   2.706   4.076
   48PVPG  H10S40308   0.386   2.701   3.899
   48PVPG  C21140309   0.178   2.694   3.947
   48PVPG  H11140310   0.150   2.706   3.841
   48PVPG  C21240311   0.094   2.628   4.026
   48PVPG  H12140312  -0.006   2.603   3.990
   48PVPG  C21340313   0.125   2.584   4.165
   48PVPG  H13R40314   0.225   2.536   4.167
   48PVPG  H13S40315   0.051   2.505   4.188
   48PVPG  C21440316   0.123   2.682   4.285
   48PVPG  H14R40317   0.027   2.737   4.285
   48PVPG  H14S40318   0.206   2.755   4.276
   48PVPG  C21540319   0.134   2.600   4.415
   48PVPG  H15R40320   0.133   2.494   4.384
   48PVPG  H15S40321   0.045   2.618   4.480
   48PVPG  C21640322   0.264   2.611   4.495
   48PVPG  H16R40323   0.256   2.702   4.557
   48PVPG  H16S40324   0.345   2.622   4.419
   48PVPG  C21740325   0.304   2.494   4.585
   48PVPG  H17R40326   0.415   2.488   4.580
   48PVPG  H17S40327   0.265   2.398   4.546
   48PVPG  C21840328   0.266   2.513   4.733
   48PVPG  H18R40329   0.157   2.503   4.748
   48PVPG  H18S40330   0.317   2.436   4.795
   48PVPG  H18T40331   0.299   2.613   4.767
   48PVPG   C3340332   0.657   2.731   3.391
   48PVPG   H3X40333   0.568   2.669   3.413
   48PVPG   H3Y40334   0.621   2.830   3.354
   48PVPG   C3440335   0.734   2.754   3.523
   48PVPG   H4X40336   0.758   2.658   3.572
   48PVPG   H4Y40337   0.664   2.809   3.590
   48PVPG   C3540338   0.865   2.833   3.504
   48PVPG   H5X40339   0.845   2.922   3.440
   48PVPG   H5Y40340   0.939   2.770   3.451
   48PVPG   C3640341   0.928   2.880   3.636
   48PVPG   H6X40342   1.013   2.949   3.613
   48PVPG   H6Y40343   0.970   2.792   3.690
   48PVPG   C3740344   0.831   2.952   3.731
   48PVPG   H7X40345   0.887   2.990   3.819
   48PVPG   H7Y40346   0.758   2.877   3.770
   48PVPG   C3840347   0.753   3.067   3.667
   48PVPG   H8X40348   0.718   3.040   3.564
   48PVPG   H8Y40349   0.820   3.155   3.657
   48PVPG   C3940350   0.628   3.106   3.747
   48PVPG   H9X40351   0.552   3.025   3.740
   48PVPG   H9Y40352   0.585   3.198   3.702
   48PVPG  C31040353   0.659   3.129   3.894
   48PVPG  H10X40354   0.754   3.187   3.900
   48PVPG  H10Y40355   0.676   3.033   3.948
   48PVPG  C31140356   0.550   3.208   3.964
   48PVPG  H11X40357   0.470   3.142   4.004
   48PVPG  H11Y40358   0.502   3.276   3.891
   48PVPG  C31240359   0.608   3.297   4.075
   48PVPG  H12X40360   0.536   3.381   4.087
   48PVPG  H12Y40361   0.704   3.342   4.042
   48PVPG  C31340362   0.629   3.229   4.212
   48PVPG  H13X40363   0.678   3.304   4.276
   48PVPG  H13Y40364   0.699   3.143   4.201
   48PVPG  C31440365   0.500   3.183   4.280
   48PVPG  H14X40366   0.487   3.074   4.260
   48PVPG  H14Y40367   0.412   3.233   4.233
   48PVPG  C31540368   0.495   3.212   4.431
   48PVPG  H15X40369   0.401   3.169   4.474
   48PVPG  H15Y40370   0.484   3.321   4.450
   48PVPG  C31640371   0.616   3.165   4.513
   48PVPG  H16X40372   0.646   3.062   4.485
   48PVPG  H16Y40373   0.703   3.233   4.497
   48PVPG  H16Z40374   0.592   3.167   4.622
   49PVPG   C1340375   7.150   1.347   2.453
   49PVPG  H13A40376   7.255   1.381   2.454
   49PVPG  H13B40377   7.149   1.239   2.479
   49PVPG   OC340378   7.099   1.367   2.320
   49PVPG   HO340379   7.173   1.339   2.265
   49PVPG   C1240380   7.078   1.427   2.566
   49PVPG  H12A40381   7.143   1.422   2.656
   49PVPG   OC240382   6.952   1.368   2.599
   49PVPG   HO240383   6.937   1.396   2.690
   49PVPG   C1140384   7.056   1.575   2.525
   49PVPG  H11A40385   6.970   1.576   2.455
   49PVPG  H11B40386   7.144   1.609   2.466
   49PVPG     P40387   7.146   1.719   2.724
   49PVPG   O1340388   7.099   1.844   2.785
   49PVPG   O1440389   7.267   1.729   2.640
   49PVPG   O1240390   7.027   1.663   2.634
   49PVPG   O1140391   7.166   1.605   2.832
   49PVPG    C140392   7.065   1.563   2.925
   49PVPG    HA40393   7.048   1.454   2.912
   49PVPG    HB40394   6.968   1.613   2.911
   49PVPG    C240395   7.110   1.582   3.075
   49PVPG    HS40396   7.056   1.506   3.135
   49PVPG   O2140397   7.079   1.716   3.115
   49PVPG   C2140398   6.979   1.728   3.200
   49PVPG   O2240399   6.907   1.639   3.241
   49PVPG   C2240400   6.969   1.874   3.242
   49PVPG   H2R40401   6.892   1.881   3.323
   49PVPG   H2S40402   6.934   1.931   3.155
   49PVPG    C340403   7.262   1.555   3.094
   49PVPG    HX40404   7.277   1.446   3.082
   49PVPG    HY40405   7.316   1.606   3.011
   49PVPG   O3140406   7.320   1.603   3.219
   49PVPG   C3140407   7.289   1.528   3.325
   49PVPG   O3240408   7.205   1.440   3.325
   49PVPG   C3240409   7.382   1.561   3.440
   49PVPG   H2X40410   7.355   1.662   3.479
   49PVPG   H2Y40411   7.486   1.566   3.401
   49PVPG   C2340412   7.104   1.931   3.289
   49PVPG   H3R40413   7.096   2.041   3.292
   49PVPG   H3S40414   7.186   1.906   3.219
   49PVPG   C2440415   7.139   1.885   3.431
   49PVPG   H4R40416   7.153   1.774   3.434
   49PVPG   H4S40417   7.054   1.909   3.497
   49PVPG   C2540418   7.265   1.955   3.484
   49PVPG   H5R40419   7.267   2.058   3.443
   49PVPG   H5S40420   7.356   1.902   3.448
   49PVPG   C2640421   7.264   1.966   3.636
   49PVPG   H6R40422   7.175   2.024   3.667
   49PVPG   H6S40423   7.354   2.024   3.667
   49PVPG   C2740424   7.262   1.832   3.710
   49PVPG   H7R40425   7.357   1.778   3.690
   49PVPG   H7S40426   7.179   1.768   3.674
   49PVPG   C2840427   7.244   1.849   3.862
   49PVPG   H8R40428   7.143   1.891   3.882
   49PVPG   H8S40429   7.317   1.926   3.898
   49PVPG   C2940430   7.265   1.718   3.939
   49PVPG   H9R40431   7.362   1.673   3.907
   49PVPG   H9S40432   7.184   1.648   3.910
   49PVPG  C21040433   7.267   1.727   4.094
   49PVPG  H10R40434   7.278   1.624   4.134
   49PVPG  H10S40435   7.169   1.764   4.130
   49PVPG  C21140436   7.377   1.815   4.146
   49PVPG  H11140437   7.375   1.916   4.103
   49PVPG  C21240438   7.470   1.788   4.240
   49PVPG  H12140439   7.541   1.867   4.267
   49PVPG  C21340440   7.491   1.663   4.318
   49PVPG  H13R40441   7.598   1.637   4.311
   49PVPG  H13S40442   7.435   1.580   4.271
   49PVPG  C21440443   7.456   1.667   4.469
   49PVPG  H14R40444   7.445   1.562   4.502
   49PVPG  H14S40445   7.359   1.720   4.484
   49PVPG  C21540446   7.560   1.732   4.561
   49PVPG  H15R40447   7.574   1.836   4.528
   49PVPG  H15S40448   7.657   1.678   4.554
   49PVPG  C21640449   7.517   1.735   4.709
   49PVPG  H16R40450   7.416   1.780   4.720
   49PVPG  H16S40451   7.589   1.802   4.762
   49PVPG  C21740452   7.519   1.599   4.782
   49PVPG  H17R40453   7.548   1.618   4.887
   49PVPG  H17S40454   7.598   1.534   4.738
   49PVPG  C21840455   7.385   1.524   4.785
   49PVPG  H18R40456   7.393   1.433   4.846
   49PVPG  H18S40457   7.306   1.589   4.827
   49PVPG  H18T40458   7.354   1.494   4.682
   49PVPG   C3340459   7.374   1.456   3.554
   49PVPG   H3X40460   7.394   1.355   3.511
   49PVPG   H3Y40461   7.272   1.455   3.597
   49PVPG   C3440462   7.476   1.481   3.665
   49PVPG   H4X40463   7.459   1.582   3.707
   49PVPG   H4Y40464   7.578   1.480   3.620
   49PVPG   C3540465   7.473   1.379   3.780
   49PVPG   H5X40466   7.558   1.402   3.847
   49PVPG   H5Y40467   7.488   1.276   3.742
   49PVPG   C3640468   7.345   1.384   3.865
   49PVPG   H6X40469   7.275   1.303   3.835
   49PVPG   H6Y40470   7.291   1.479   3.844
   49PVPG   C3740471   7.370   1.372   4.016
   49PVPG   H7X40472   7.428   1.460   4.051
   49PVPG   H7Y40473   7.431   1.281   4.035
   49PVPG   C3840474   7.239   1.361   4.095
   49PVPG   H8X40475   7.179   1.276   4.056
   49PVPG   H8Y40476   7.177   1.452   4.080
   49PVPG   C3940477   7.265   1.338   4.245
   49PVPG   H9X40478   7.331   1.417   4.286
   49PVPG   H9Y40479   7.321   1.243   4.255
   49PVPG  C31040480   7.137   1.330   4.328
   49PVPG  H10X40481   7.163   1.285   4.426
   49PVPG  H10Y40482   7.066   1.262   4.276
   49PVPG  C31140483   7.069   1.464   4.358
   49PVPG  H11X40484   6.978   1.443   4.417
   49PVPG  H11Y40485   7.037   1.514   4.263
   49PVPG  C31240486   7.159   1.558   4.438
   49PVPG  H12X40487   7.206   1.631   4.368
   49PVPG  H12Y40488   7.240   1.496   4.483
   49PVPG  C31340489   7.092   1.632   4.554
   49PVPG  H13X40490   7.168   1.692   4.608
   49PVPG  H13Y40491   7.053   1.558   4.627
   49PVPG  C31440492   6.979   1.725   4.509
   49PVPG  H14X40493   6.914   1.672   4.436
   49PVPG  H14Y40494   7.026   1.811   4.458
   49PVPG  C31540495   6.889   1.775   4.624
   49PVPG  H15X40496   6.833   1.689   4.667
   49PVPG  H15Y40497   6.814   1.844   4.582
   49PVPG  C31640498   6.964   1.845   4.738
   49PVPG  H16X40499   7.032   1.774   4.790
   49PVPG  H16Y40500   7.025   1.929   4.700
   49PVPG  H16Z40501   6.892   1.885   4.812
   50PVPG   C1340502   1.569   1.347   2.808
   50PVPG  H13A40503   1.482   1.346   2.877
   50PVPG  H13B40504   1.649   1.283   2.852
   50PVPG   OC340505   1.619   1.481   2.793
   50PVPG   HO340506   1.671   1.501   2.872
   50PVPG   C1240507   1.527   1.287   2.671
   50PVPG  H12A40508   1.596   1.324   2.593
   50PVPG   OC240509   1.393   1.320   2.637
   50PVPG   HO240510   1.372   1.242   2.586
   50PVPG   C1140511   1.529   1.132   2.669
   50PVPG  H11A40512   1.471   1.095   2.756
   50PVPG  H11B40513   1.634   1.098   2.682
   50PVPG     P40514   1.483   0.926   2.516
   50PVPG   O1340515   1.588   0.909   2.413
   50PVPG   O1440516   1.348   0.880   2.476
   50PVPG   O1240517   1.474   1.082   2.546
   50PVPG   O1140518   1.528   0.866   2.655
   50PVPG    C140519   1.470   0.750   2.716
   50PVPG    HA40520   1.546   0.668   2.718
   50PVPG    HB40521   1.383   0.712   2.659
   50PVPG    C240522   1.422   0.770   2.863
   50PVPG    HS40523   1.362   0.680   2.887
   50PVPG   O2140524   1.346   0.892   2.873
   50PVPG   C2140525   1.253   0.890   2.969
   50PVPG   O2240526   1.213   0.789   3.024
   50PVPG   C2240527   1.192   1.029   2.987
   50PVPG   H2R40528   1.085   1.013   3.009
   50PVPG   H2S40529   1.201   1.086   2.892
   50PVPG    C340530   1.541   0.772   2.965
   50PVPG    HX40531   1.606   0.684   2.947
   50PVPG    HY40532   1.602   0.862   2.943
   50PVPG   O3140533   1.494   0.781   3.102
   50PVPG   C3140534   1.487   0.666   3.170
   50PVPG   O3240535   1.527   0.559   3.129
   50PVPG   C3240536   1.412   0.688   3.302
   50PVPG   H2X40537   1.380   0.587   3.337
   50PVPG   H2Y40538   1.321   0.747   3.280
   50PVPG   C2340539   1.256   1.107   3.104
   50PVPG   H3R40540   1.265   1.042   3.194
   50PVPG   H3S40541   1.186   1.189   3.132
   50PVPG   C2440542   1.390   1.172   3.068
   50PVPG   H4R40543   1.384   1.280   3.091
   50PVPG   H4S40544   1.407   1.160   2.958
   50PVPG   C2540545   1.512   1.118   3.143
   50PVPG   H5R40546   1.602   1.173   3.108
   50PVPG   H5S40547   1.528   1.011   3.120
   50PVPG   C2640548   1.501   1.136   3.295
   50PVPG   H6R40549   1.432   1.060   3.337
   50PVPG   H6S40550   1.458   1.236   3.318
   50PVPG   C2740551   1.637   1.126   3.365
   50PVPG   H7R40552   1.703   1.207   3.328
   50PVPG   H7S40553   1.686   1.029   3.337
   50PVPG   C2840554   1.625   1.134   3.516
   50PVPG   H8R40555   1.570   1.044   3.552
   50PVPG   H8S40556   1.566   1.223   3.546
   50PVPG   C2940557   1.762   1.141   3.583
   50PVPG   H9R40558   1.810   1.238   3.557
   50PVPG   H9S40559   1.827   1.061   3.540
   50PVPG  C21040560   1.758   1.128   3.737
   50PVPG  H10R40561   1.698   1.212   3.778
   50PVPG  H10S40562   1.861   1.141   3.775
   50PVPG  C21140563   1.705   0.995   3.785
   50PVPG  H11140564   1.710   0.913   3.710
   50PVPG  C21240565   1.656   0.970   3.906
   50PVPG  H12140566   1.623   0.868   3.931
   50PVPG  C21340567   1.645   1.069   4.020
   50PVPG  H13R40568   1.554   1.048   4.080
   50PVPG  H13S40569   1.633   1.173   3.983
   50PVPG  C21440570   1.766   1.067   4.116
   50PVPG  H14R40571   1.742   1.133   4.202
   50PVPG  H14S40572   1.854   1.110   4.065
   50PVPG  C21540573   1.805   0.928   4.171
   50PVPG  H15R40574   1.880   0.943   4.252
   50PVPG  H15S40575   1.854   0.870   4.091
   50PVPG  C21640576   1.688   0.845   4.227
   50PVPG  H16R40577   1.626   0.809   4.142
   50PVPG  H16S40578   1.623   0.909   4.292
   50PVPG  C21740579   1.735   0.723   4.308
   50PVPG  H17R40580   1.834   0.691   4.269
   50PVPG  H17S40581   1.664   0.640   4.292
   50PVPG  C21840582   1.745   0.749   4.458
   50PVPG  H18R40583   1.799   0.844   4.479
   50PVPG  H18S40584   1.643   0.756   4.503
   50PVPG  H18T40585   1.799   0.666   4.510
   50PVPG   C3340586   1.494   0.754   3.415
   50PVPG   H3X40587   1.522   0.858   3.387
   50PVPG   H3Y40588   1.588   0.698   3.431
   50PVPG   C3440589   1.418   0.755   3.549
   50PVPG   H4X40590   1.490   0.781   3.630
   50PVPG   H4Y40591   1.379   0.653   3.570
   50PVPG   C3540592   1.300   0.853   3.556
   50PVPG   H5X40593   1.231   0.833   3.471
   50PVPG   H5Y40594   1.338   0.957   3.546
   50PVPG   C3640595   1.219   0.841   3.688
   50PVPG   H6X40596   1.182   0.737   3.700
   50PVPG   H6Y40597   1.131   0.909   3.679
   50PVPG   C3740598   1.299   0.882   3.812
   50PVPG   H7X40599   1.340   0.983   3.796
   50PVPG   H7Y40600   1.385   0.813   3.826
   50PVPG   C3840601   1.216   0.882   3.943
   50PVPG   H8X40602   1.195   0.778   3.973
   50PVPG   H8Y40603   1.119   0.934   3.925
   50PVPG   C3940604   1.293   0.955   4.054
   50PVPG   H9X40605   1.302   1.063   4.028
   50PVPG   H9Y40606   1.395   0.912   4.058
   50PVPG  C31040607   1.232   0.942   4.193
   50PVPG  H10X40608   1.243   0.836   4.223
   50PVPG  H10Y40609   1.123   0.967   4.193
   50PVPG  C31140610   1.305   1.029   4.296
   50PVPG  H11X40611   1.273   1.135   4.287
   50PVPG  H11Y40612   1.414   1.025   4.271
   50PVPG  C31240613   1.288   0.981   4.441
   50PVPG  H12X40614   1.317   0.874   4.446
   50PVPG  H12Y40615   1.181   0.987   4.470
   50PVPG  C31340616   1.374   1.058   4.543
   50PVPG  H13X40617   1.355   1.015   4.643
   50PVPG  H13Y40618   1.342   1.165   4.547
   50PVPG  C31440619   1.524   1.051   4.511
   50PVPG  H14X40620   1.546   1.116   4.424
   50PVPG  H14Y40621   1.547   0.946   4.483
   50PVPG  C31540622   1.618   1.088   4.627
   50PVPG  H15X40623   1.592   1.189   4.664
   50PVPG  H15Y40624   1.721   1.094   4.587
   50PVPG  C31640625   1.619   0.987   4.742
   50PVPG  H16X40626   1.643   0.885   4.705
   50PVPG  H16Y40627   1.694   1.015   4.818
   50PVPG  H16Z40628   1.519   0.983   4.792
   51PVPG   C1340629   7.406   6.702   2.423
   51PVPG  H13A40630   7.501   6.715   2.368
   51PVPG  H13B40631   7.380   6.594   2.422
   51PVPG   OC340632   7.304   6.779   2.360
   51PVPG   HO340633   7.326   6.867   2.390
   51PVPG   C1240634   7.429   6.745   2.570
   51PVPG  H12A40635   7.337   6.723   2.629
   51PVPG   OC240636   7.455   6.886   2.576
   51PVPG   HO240637   7.487   6.905   2.664
   51PVPG   C1140638   7.548   6.670   2.631
   51PVPG  H11A40639   7.560   6.696   2.738
   51PVPG  H11B40640   7.638   6.704   2.576
   51PVPG     P40641   7.521   6.418   2.717
   51PVPG   O1340642   7.622   6.317   2.680
   51PVPG   O1440643   7.381   6.372   2.715
   51PVPG   O1240644   7.534   6.530   2.608
   51PVPG   O1140645   7.562   6.487   2.852
   51PVPG    C140646   7.486   6.475   2.973
   51PVPG    HA40647   7.552   6.434   3.054
   51PVPG    HB40648   7.401   6.404   2.964
   51PVPG    C240649   7.435   6.614   3.018
   51PVPG    HS40650   7.469   6.686   2.940
   51PVPG   O2140651   7.498   6.647   3.143
   51PVPG   C2140652   7.484   6.774   3.179
   51PVPG   O2240653   7.433   6.861   3.110
   51PVPG   C2240654   7.546   6.795   3.318
   51PVPG   H2R40655   7.548   6.904   3.339
   51PVPG   H2S40656   7.651   6.759   3.311
   51PVPG    C340657   7.279   6.623   3.024
   51PVPG    HX40658   7.254   6.729   3.002
   51PVPG    HY40659   7.236   6.563   2.941
   51PVPG   O3140660   7.221   6.592   3.153
   51PVPG   C3140661   7.175   6.469   3.168
   51PVPG   O3240662   7.193   6.376   3.092
   51PVPG   C3240663   7.079   6.465   3.287
   51PVPG   H2X40664   7.034   6.363   3.290
   51PVPG   H2Y40665   6.998   6.539   3.264
   51PVPG   C2340666   7.471   6.717   3.427
   51PVPG   H3R40667   7.438   6.620   3.386
   51PVPG   H3S40668   7.380   6.772   3.460
   51PVPG   C2440669   7.559   6.685   3.549
   51PVPG   H4R40670   7.658   6.649   3.512
   51PVPG   H4S40671   7.515   6.602   3.608
   51PVPG   C2540672   7.580   6.804   3.643
   51PVPG   H5R40673   7.487   6.827   3.700
   51PVPG   H5S40674   7.605   6.893   3.582
   51PVPG   C2640675   7.697   6.782   3.741
   51PVPG   H6R40676   7.724   6.880   3.785
   51PVPG   H6S40677   7.784   6.747   3.682
   51PVPG   C2740678   7.675   6.684   3.858
   51PVPG   H7R40679   7.614   6.596   3.826
   51PVPG   H7S40680   7.620   6.736   3.938
   51PVPG   C2840681   7.812   6.636   3.910
   51PVPG   H8R40682   7.876   6.726   3.913
   51PVPG   H8S40683   7.853   6.565   3.834
   51PVPG   C2940684   7.819   6.569   4.047
   51PVPG   H9R40685   7.781   6.465   4.038
   51PVPG   H9S40686   7.747   6.623   4.113
   51PVPG  C21040687   7.960   6.567   4.115
   51PVPG  H10R40688   8.030   6.517   4.046
   51PVPG  H10S40689   7.953   6.501   4.204
   51PVPG  C21140690   8.014   6.703   4.156
   51PVPG  H11140691   8.027   6.769   4.069
   51PVPG  C21240692   8.047   6.756   4.278
   51PVPG  H12140693   8.077   6.862   4.278
   51PVPG  C21340694   8.041   6.700   4.419
   51PVPG  H13R40695   8.142   6.699   4.466
   51PVPG  H13S40696   8.007   6.595   4.417
   51PVPG  C21440697   7.947   6.779   4.514
   51PVPG  H14R40698   7.915   6.713   4.597
   51PVPG  H14S40699   7.857   6.807   4.457
   51PVPG  C21540700   7.995   6.911   4.575
   51PVPG  H15R40701   8.043   6.973   4.497
   51PVPG  H15S40702   8.070   6.888   4.653
   51PVPG  C21640703   7.883   6.998   4.637
   51PVPG  H16R40704   7.930   7.075   4.701
   51PVPG  H16S40705   7.819   6.935   4.702
   51PVPG  C21740706   7.796   7.071   4.533
   51PVPG  H17R40707   7.732   6.996   4.481
   51PVPG  H17S40708   7.862   7.117   4.457
   51PVPG  C21840709   7.705   7.180   4.590
   51PVPG  H18R40710   7.646   7.228   4.509
   51PVPG  H18S40711   7.633   7.137   4.663
   51PVPG  H18T40712   7.764   7.259   4.641
   51PVPG   C3340713   7.139   6.499   3.424
   51PVPG   H3X40714   7.056   6.492   3.498
   51PVPG   H3Y40715   7.176   6.604   3.429
   51PVPG   C3440716   7.250   6.403   3.469
   51PVPG   H4X40717   7.348   6.440   3.431
   51PVPG   H4Y40718   7.234   6.303   3.421
   51PVPG   C3540719   7.258   6.384   3.620
   51PVPG   H5X40720   7.355   6.336   3.645
   51PVPG   H5Y40721   7.177   6.316   3.655
   51PVPG   C3640722   7.245   6.516   3.697
   51PVPG   H6X40723   7.139   6.550   3.700
   51PVPG   H6Y40724   7.303   6.595   3.643
   51PVPG   C3740725   7.298   6.508   3.840
   51PVPG   H7X40726   7.402   6.469   3.840
   51PVPG   H7Y40727   7.236   6.438   3.900
   51PVPG   C3840728   7.297   6.647   3.905
   51PVPG   H8X40729   7.193   6.686   3.907
   51PVPG   H8Y40730   7.356   6.715   3.840
   51PVPG   C3940731   7.356   6.650   4.044
   51PVPG   H9X40732   7.379   6.756   4.068
   51PVPG   H9Y40733   7.453   6.595   4.045
   51PVPG  C31040734   7.266   6.596   4.156
   51PVPG  H10X40735   7.246   6.488   4.143
   51PVPG  H10Y40736   7.169   6.651   4.156
   51PVPG  C31140737   7.339   6.622   4.288
   51PVPG  H11X40738   7.368   6.729   4.289
   51PVPG  H11Y40739   7.431   6.559   4.282
   51PVPG  C31240740   7.270   6.594   4.422
   51PVPG  H12X40741   7.181   6.532   4.401
   51PVPG  H12Y40742   7.234   6.690   4.466
   51PVPG  C31340743   7.359   6.518   4.525
   51PVPG  H13X40744   7.427   6.450   4.470
   51PVPG  H13Y40745   7.290   6.452   4.583
   51PVPG  C31440746   7.440   6.593   4.634
   51PVPG  H14X40747   7.373   6.624   4.715
   51PVPG  H14Y40748   7.485   6.687   4.595
   51PVPG  C31540749   7.555   6.509   4.693
   51PVPG  H15X40750   7.616   6.573   4.760
   51PVPG  H15Y40751   7.622   6.476   4.610
   51PVPG  C31640752   7.509   6.386   4.771
   51PVPG  H16X40753   7.523   6.400   4.880
   51PVPG  H16Y40754   7.401   6.367   4.753
   51PVPG  H16Z40755   7.566   6.295   4.741
   52PVPG   C1340756   3.268   0.284   2.676
   52PVPG  H13A40757   3.345   0.327   2.608
   52PVPG  H13B40758   3.321   0.227   2.756
   52PVPG   OC340759   3.188   0.192   2.602
   52PVPG   HO340760   3.111   0.179   2.656
   52PVPG   C1240761   3.187   0.398   2.745
   52PVPG  H12A40762   3.258   0.462   2.803
   52PVPG   OC240763   3.097   0.340   2.837
   52PVPG   HO240764   3.009   0.349   2.800
   52PVPG   C1140765   3.111   0.491   2.643
   52PVPG  H11A40766   3.189   0.555   2.596
   52PVPG  H11B40767   3.046   0.560   2.701
   52PVPG     P40768   2.887   0.388   2.553
   52PVPG   O1340769   2.857   0.268   2.472
   52PVPG   O1440770   2.810   0.509   2.515
   52PVPG   O1240771   3.041   0.423   2.538
   52PVPG   O1140772   2.874   0.360   2.707
   52PVPG    C140773   2.748   0.360   2.775
   52PVPG    HA40774   2.705   0.258   2.768
   52PVPG    HB40775   2.675   0.430   2.729
   52PVPG    C240776   2.760   0.399   2.926
   52PVPG    HS40777   2.804   0.501   2.929
   52PVPG   O2140778   2.846   0.304   2.995
   52PVPG   C2140779   2.913   0.357   3.098
   52PVPG   O2240780   2.909   0.474   3.131
   52PVPG   C2240781   3.007   0.254   3.164
   52PVPG   H2R40782   3.099   0.312   3.188
   52PVPG   H2S40783   3.034   0.176   3.089
   52PVPG    C340784   2.618   0.407   2.992
   52PVPG    HX40785   2.567   0.496   2.950
   52PVPG    HY40786   2.561   0.318   2.960
   52PVPG   O3140787   2.623   0.417   3.136
   52PVPG   C3140788   2.502   0.404   3.191
   52PVPG   O3240789   2.401   0.375   3.130
   52PVPG   C3240790   2.505   0.437   3.340
   52PVPG   H2X40791   2.400   0.465   3.365
   52PVPG   H2Y40792   2.569   0.526   3.356
   52PVPG   C2340793   2.955   0.190   3.296
   52PVPG   H3R40794   2.909   0.092   3.273
   52PVPG   H3S40795   2.876   0.253   3.342
   52PVPG   C2440796   3.067   0.170   3.401
   52PVPG   H4R40797   3.097   0.270   3.439
   52PVPG   H4S40798   3.156   0.125   3.352
   52PVPG   C2540799   3.026   0.082   3.521
   52PVPG   H5R40800   3.005  -0.020   3.483
   52PVPG   H5S40801   2.933   0.122   3.568
   52PVPG   C2640802   3.135   0.071   3.629
   52PVPG   H6R40803   3.149   0.169   3.679
   52PVPG   H6S40804   3.231   0.045   3.579
   52PVPG   C2740805   3.109  -0.038   3.736
   52PVPG   H7R40806   3.205  -0.064   3.785
   52PVPG   H7S40807   3.070  -0.130   3.688
   52PVPG   C2840808   3.013   0.005   3.849
   52PVPG   H8R40809   2.913   0.028   3.806
   52PVPG   H8S40810   3.052   0.098   3.895
   52PVPG   C2940811   2.997  -0.102   3.959
   52PVPG   H9R40812   3.090  -0.102   4.021
   52PVPG   H9S40813   2.989  -0.202   3.912
   52PVPG  C21040814   2.875  -0.084   4.052
   52PVPG  H10R40815   2.886  -0.154   4.138
   52PVPG  H10S40816   2.785  -0.118   3.997
   52PVPG  C21140817   2.853   0.057   4.102
   52PVPG  H11140818   2.905   0.136   4.046
   52PVPG  C21240819   2.777   0.093   4.207
   52PVPG  H12140820   2.772   0.200   4.234
   52PVPG  C21340821   2.697   0.002   4.297
   52PVPG  H13R40822   2.673  -0.094   4.248
   52PVPG  H13S40823   2.602   0.053   4.323
   52PVPG  C21440824   2.772  -0.025   4.429
   52PVPG  H14R40825   2.787   0.070   4.483
   52PVPG  H14S40826   2.873  -0.067   4.405
   52PVPG  C21540827   2.705  -0.124   4.525
   52PVPG  H15R40828   2.688  -0.221   4.473
   52PVPG  H15S40829   2.606  -0.085   4.558
   52PVPG  C21640830   2.798  -0.145   4.645
   52PVPG  H16R40831   2.802  -0.053   4.708
   52PVPG  H16S40832   2.899  -0.159   4.603
   52PVPG  C21740833   2.770  -0.268   4.733
   52PVPG  H17R40834   2.709  -0.340   4.675
   52PVPG  H17S40835   2.711  -0.239   4.821
   52PVPG  C21840836   2.902  -0.335   4.774
   52PVPG  H18R40837   2.967  -0.262   4.828
   52PVPG  H18S40838   2.883  -0.421   4.842
   52PVPG  H18T40839   2.956  -0.372   4.686
   52PVPG   C3340840   2.549   0.321   3.432
   52PVPG   H3X40841   2.657   0.334   3.455
   52PVPG   H3Y40842   2.536   0.222   3.384
   52PVPG   C3440843   2.465   0.320   3.561
   52PVPG   H4X40844   2.361   0.289   3.536
   52PVPG   H4Y40845   2.456   0.424   3.599
   52PVPG   C3540846   2.518   0.226   3.670
   52PVPG   H5X40847   2.523   0.124   3.628
   52PVPG   H5Y40848   2.445   0.224   3.755
   52PVPG   C3640849   2.655   0.267   3.726
   52PVPG   H6X40850   2.729   0.262   3.642
   52PVPG   H6Y40851   2.689   0.194   3.802
   52PVPG   C3740852   2.659   0.406   3.789
   52PVPG   H7X40853   2.629   0.399   3.896
   52PVPG   H7Y40854   2.588   0.476   3.740
   52PVPG   C3840855   2.798   0.469   3.778
   52PVPG   H8X40856   2.793   0.574   3.813
   52PVPG   H8Y40857   2.827   0.473   3.670
   52PVPG   C3940858   2.902   0.392   3.856
   52PVPG   H9X40859   2.911   0.288   3.819
   52PVPG   H9Y40860   2.868   0.387   3.962
   52PVPG  C31040861   3.039   0.460   3.848
   52PVPG  H10X40862   3.030   0.564   3.886
   52PVPG  H10Y40863   3.071   0.464   3.742
   52PVPG  C31140864   3.146   0.387   3.931
   52PVPG  H11X40865   3.241   0.444   3.919
   52PVPG  H11Y40866   3.163   0.285   3.889
   52PVPG  C31240867   3.114   0.379   4.079
   52PVPG  H12X40868   3.024   0.316   4.094
   52PVPG  H12Y40869   3.091   0.481   4.117
   52PVPG  C31340870   3.230   0.320   4.160
   52PVPG  H13X40871   3.322   0.380   4.141
   52PVPG  H13Y40872   3.249   0.216   4.127
   52PVPG  C31440873   3.202   0.319   4.311
   52PVPG  H14X40874   3.197   0.423   4.349
   52PVPG  H14Y40875   3.286   0.268   4.362
   52PVPG  C31540876   3.072   0.247   4.347
   52PVPG  H15X40877   3.072   0.147   4.297
   52PVPG  H15Y40878   2.984   0.304   4.308
   52PVPG  C31640879   3.054   0.228   4.497
   52PVPG  H16X40880   2.970   0.159   4.520
   52PVPG  H16Y40881   3.147   0.188   4.543
   52PVPG  H16Z40882   3.031   0.326   4.544
   53PVPG   C1340883   0.250   5.205   2.405
   53PVPG  H13A40884   0.148   5.164   2.421
   53PVPG  H13B40885   0.267   5.214   2.295
   53PVPG   OC340886   0.347   5.116   2.460
   53PVPG   HO340887   0.407   5.177   2.504
   53PVPG   C1240888   0.260   5.347   2.467
   53PVPG  H12A40889   0.194   5.416   2.411
   53PVPG   OC240890   0.395   5.393   2.456
   53PVPG   HO240891   0.413   5.438   2.539
   53PVPG   C1140892   0.211   5.346   2.615
   53PVPG  H11A40893   0.265   5.267   2.672
   53PVPG  H11B40894   0.104   5.315   2.616
   53PVPG     P40895   0.339   5.503   2.777
   53PVPG   O1340896   0.460   5.500   2.692
   53PVPG   O1440897   0.329   5.405   2.887
   53PVPG   O1240898   0.220   5.476   2.675
   53PVPG   O1140899   0.308   5.649   2.828
   53PVPG    C140900   0.380   5.763   2.781
   53PVPG    HA40901   0.331   5.803   2.689
   53PVPG    HB40902   0.485   5.738   2.755
   53PVPG    C240903   0.385   5.876   2.888
   53PVPG    HS40904   0.453   5.956   2.852
   53PVPG   O2140905   0.432   5.825   3.013
   53PVPG   C2140906   0.558   5.793   3.019
   53PVPG   O2240907   0.643   5.815   2.934
   53PVPG   C2240908   0.586   5.724   3.153
   53PVPG   H2R40909   0.661   5.644   3.134
   53PVPG   H2S40910   0.492   5.675   3.188
   53PVPG    C340911   0.245   5.944   2.911
   53PVPG    HX40912   0.256   6.024   2.986
   53PVPG    HY40913   0.216   5.993   2.816
   53PVPG   O3140914   0.142   5.849   2.945
   53PVPG   C3140915   0.141   5.815   3.075
   53PVPG   O3240916   0.201   5.872   3.163
   53PVPG   C3240917   0.041   5.702   3.095
   53PVPG   H2X40918   0.056   5.626   3.016
   53PVPG   H2Y40919  -0.060   5.747   3.084
   53PVPG   C2340920   0.639   5.821   3.259
   53PVPG   H3R40921   0.725   5.881   3.221
   53PVPG   H3S40922   0.676   5.761   3.345
   53PVPG   C2440923   0.530   5.914   3.314
   53PVPG   H4R40924   0.439   5.854   3.333
   53PVPG   H4S40925   0.502   5.992   3.240
   53PVPG   C2540926   0.574   5.981   3.445
   53PVPG   H5R40927   0.650   6.060   3.424
   53PVPG   H5S40928   0.622   5.904   3.509
   53PVPG   C2640929   0.459   6.043   3.525
   53PVPG   H6R40930   0.399   6.106   3.457
   53PVPG   H6S40931   0.500   6.109   3.603
   53PVPG   C2740932   0.367   5.938   3.592
   53PVPG   H7R40933   0.340   5.859   3.519
   53PVPG   H7S40934   0.273   5.988   3.624
   53PVPG   C2840935   0.427   5.873   3.717
   53PVPG   H8R40936   0.530   5.836   3.698
   53PVPG   H8S40937   0.364   5.786   3.745
   53PVPG   C2940938   0.426   5.970   3.837
   53PVPG   H9R40939   0.326   6.019   3.837
   53PVPG   H9S40940   0.502   6.050   3.821
   53PVPG  C21040941   0.445   5.903   3.973
   53PVPG  H10R40942   0.370   5.823   3.984
   53PVPG  H10S40943   0.423   5.978   4.052
   53PVPG  C21140944   0.584   5.848   3.985
   53PVPG  H11140945   0.606   5.762   3.919
   53PVPG  C21240946   0.680   5.890   4.069
   53PVPG  H12140947   0.777   5.837   4.068
   53PVPG  C21340948   0.672   6.002   4.169
   53PVPG  H13R40949   0.586   6.070   4.149
   53PVPG  H13S40950   0.763   6.066   4.164
   53PVPG  C21440951   0.659   5.947   4.313
   53PVPG  H14R40952   0.671   6.030   4.386
   53PVPG  H14S40953   0.742   5.877   4.334
   53PVPG  C21540954   0.523   5.880   4.337
   53PVPG  H15R40955   0.496   5.818   4.248
   53PVPG  H15S40956   0.443   5.957   4.346
   53PVPG  C21640957   0.516   5.788   4.458
   53PVPG  H16R40958   0.553   5.838   4.550
   53PVPG  H16S40959   0.580   5.699   4.439
   53PVPG  C21740960   0.371   5.742   4.479
   53PVPG  H17R40961   0.323   5.730   4.379
   53PVPG  H17S40962   0.317   5.823   4.532
   53PVPG  C21840963   0.357   5.611   4.556
   53PVPG  H18R40964   0.252   5.574   4.549
   53PVPG  H18S40965   0.424   5.534   4.511
   53PVPG  H18T40966   0.384   5.626   4.661
   53PVPG   C3340967   0.054   5.638   3.235
   53PVPG   H3X40968  -0.039   5.580   3.255
   53PVPG   H3Y40969   0.060   5.714   3.316
   53PVPG   C3440970   0.172   5.540   3.247
   53PVPG   H4X40971   0.256   5.589   3.300
   53PVPG   H4Y40972   0.209   5.516   3.144
   53PVPG   C3540973   0.135   5.407   3.315
   53PVPG   H5X40974   0.225   5.342   3.318
   53PVPG   H5Y40975   0.059   5.356   3.252
   53PVPG   C3640976   0.078   5.421   3.457
   53PVPG   H6X40977   0.040   5.321   3.490
   53PVPG   H6Y40978  -0.008   5.491   3.457
   53PVPG   C3740979   0.179   5.469   3.563
   53PVPG   H7X40980   0.215   5.571   3.537
   53PVPG   H7Y40981   0.266   5.400   3.563
   53PVPG   C3840982   0.118   5.471   3.704
   53PVPG   H8X40983   0.078   5.370   3.728
   53PVPG   H8Y40984   0.032   5.542   3.708
   53PVPG   C3940985   0.221   5.509   3.811
   53PVPG   H9X40986   0.251   5.615   3.796
   53PVPG   H9Y40987   0.310   5.445   3.795
   53PVPG  C31040988   0.171   5.491   3.955
   53PVPG  H10X40989   0.147   5.384   3.971
   53PVPG  H10Y40990   0.078   5.550   3.970
   53PVPG  C31140991   0.274   5.535   4.061
   53PVPG  H11X40992   0.238   5.504   4.162
   53PVPG  H11Y40993   0.282   5.645   4.062
   53PVPG  C31240994   0.414   5.476   4.038
   53PVPG  H12X40995   0.454   5.513   3.941
   53PVPG  H12Y40996   0.407   5.365   4.032
   53PVPG  C31340997   0.517   5.513   4.145
   53PVPG  H13X40998   0.486   5.469   4.243
   53PVPG  H13Y40999   0.519   5.623   4.158
   53PVPG  C31441000   0.657   5.464   4.108
   53PVPG  H14X41001   0.693   5.517   4.018
   53PVPG  H14Y41002   0.650   5.356   4.083
   53PVPG  C31541003   0.760   5.480   4.221
   53PVPG  H15X41004   0.850   5.420   4.197
   53PVPG  H15Y41005   0.716   5.438   4.315
   53PVPG  C31641006   0.805   5.622   4.247
   53PVPG  H16X41007   0.857   5.664   4.158
   53PVPG  H16Y41008   0.716   5.685   4.269
   53PVPG  H16Z41009   0.874   5.627   4.334
   54PVPG   C1341010   1.376   7.237   2.511
   54PVPG  H13A41011   1.481   7.203   2.505
   54PVPG  H13B41012   1.348   7.241   2.619
   54PVPG   OC341013   1.290   7.143   2.445
   54PVPG   HO341014   1.313   7.058   2.484
   54PVPG   C1241015   1.366   7.381   2.453
   54PVPG  H12A41016   1.260   7.413   2.457
   54PVPG   OC241017   1.412   7.388   2.318
   54PVPG   HO241018   1.477   7.317   2.310
   54PVPG   C1141019   1.449   7.480   2.539
   54PVPG  H11A41020   1.442   7.580   2.491
   54PVPG  H11B41021   1.555   7.447   2.536
   54PVPG     P41022   1.464   7.594   2.770
   54PVPG   O1341023   1.370   7.710   2.774
   54PVPG   O1441024   1.598   7.626   2.716
   54PVPG   O1241025   1.401   7.483   2.674
   54PVPG   O1141026   1.480   7.520   2.910
   54PVPG    C141027   1.365   7.458   2.971
   54PVPG    HA41028   1.324   7.379   2.905
   54PVPG    HB41029   1.286   7.534   2.986
   54PVPG    C241030   1.385   7.392   3.115
   54PVPG    HS41031   1.293   7.411   3.174
   54PVPG   O2141032   1.500   7.442   3.186
   54PVPG   C2141033   1.496   7.570   3.217
   54PVPG   O2241034   1.411   7.650   3.181
   54PVPG   C2241035   1.611   7.609   3.312
   54PVPG   H2R41036   1.582   7.709   3.353
   54PVPG   H2S41037   1.703   7.623   3.252
   54PVPG    C341038   1.400   7.236   3.103
   54PVPG    HX41039   1.325   7.195   3.031
   54PVPG    HY41040   1.498   7.212   3.056
   54PVPG   O3141041   1.391   7.168   3.231
   54PVPG   C3141042   1.266   7.154   3.276
   54PVPG   O3241043   1.166   7.190   3.216
   54PVPG   C3241044   1.263   7.092   3.415
   54PVPG   H2X41045   1.367   7.073   3.448
   54PVPG   H2Y41046   1.211   6.994   3.410
   54PVPG   C2341047   1.638   7.515   3.432
   54PVPG   H3R41048   1.682   7.418   3.399
   54PVPG   H3S41049   1.543   7.492   3.485
   54PVPG   C2441050   1.735   7.579   3.532
   54PVPG   H4R41051   1.682   7.670   3.569
   54PVPG   H4S41052   1.828   7.613   3.480
   54PVPG   C2541053   1.774   7.497   3.657
   54PVPG   H5R41054   1.683   7.444   3.695
   54PVPG   H5S41055   1.803   7.569   3.735
   54PVPG   C2641056   1.896   7.403   3.644
   54PVPG   H6R41057   1.982   7.471   3.627
   54PVPG   H6S41058   1.887   7.339   3.554
   54PVPG   C2741059   1.930   7.318   3.769
   54PVPG   H7R41060   1.879   7.358   3.859
   54PVPG   H7S41061   2.039   7.329   3.787
   54PVPG   C2841062   1.907   7.165   3.756
   54PVPG   H8R41063   1.938   7.136   3.653
   54PVPG   H8S41064   1.799   7.142   3.767
   54PVPG   C2941065   1.985   7.070   3.851
   54PVPG   H9R41066   2.094   7.079   3.832
   54PVPG   H9S41067   1.956   6.967   3.819
   54PVPG  C21041068   1.959   7.079   4.003
   54PVPG  H10R41069   2.046   7.127   4.054
   54PVPG  H10S41070   1.959   6.975   4.042
   54PVPG  C21141071   1.831   7.146   4.044
   54PVPG  H11141072   1.741   7.097   4.005
   54PVPG  C21241073   1.819   7.255   4.122
   54PVPG  H12141074   1.717   7.292   4.143
   54PVPG  C21341075   1.930   7.333   4.184
   54PVPG  H13R41076   1.998   7.370   4.104
   54PVPG  H13S41077   1.989   7.261   4.247
   54PVPG  C21441078   1.898   7.454   4.275
   54PVPG  H14R41079   1.841   7.533   4.221
   54PVPG  H14S41080   1.995   7.501   4.304
   54PVPG  C21541081   1.825   7.422   4.407
   54PVPG  H15R41082   1.879   7.341   4.459
   54PVPG  H15S41083   1.723   7.382   4.388
   54PVPG  C21641084   1.813   7.545   4.500
   54PVPG  H16R41085   1.746   7.620   4.452
   54PVPG  H16S41086   1.913   7.592   4.511
   54PVPG  C21741087   1.760   7.512   4.641
   54PVPG  H17R41088   1.658   7.467   4.631
   54PVPG  H17S41089   1.748   7.607   4.697
   54PVPG  C21841090   1.849   7.420   4.723
   54PVPG  H18R41091   1.865   7.322   4.674
   54PVPG  H18S41092   1.949   7.467   4.738
   54PVPG  H18T41093   1.804   7.401   4.822
   54PVPG   C3341094   1.189   7.188   3.510
   54PVPG   H3X41095   1.079   7.182   3.495
   54PVPG   H3Y41096   1.219   7.292   3.488
   54PVPG   C3441097   1.221   7.167   3.660
   54PVPG   H4X41098   1.330   7.154   3.668
   54PVPG   H4Y41099   1.179   7.072   3.700
   54PVPG   C3541100   1.179   7.289   3.743
   54PVPG   H5X41101   1.088   7.335   3.700
   54PVPG   H5Y41102   1.261   7.363   3.733
   54PVPG   C3641103   1.153   7.264   3.893
   54PVPG   H6X41104   1.217   7.181   3.929
   54PVPG   H6Y41105   1.048   7.229   3.907
   54PVPG   C3741106   1.178   7.394   3.973
   54PVPG   H7X41107   1.090   7.460   3.958
   54PVPG   H7Y41108   1.264   7.447   3.929
   54PVPG   C3841109   1.205   7.384   4.124
   54PVPG   H8X41110   1.315   7.375   4.141
   54PVPG   H8Y41111   1.162   7.291   4.168
   54PVPG   C3941112   1.146   7.502   4.203
   54PVPG   H9X41113   1.038   7.482   4.224
   54PVPG   H9Y41114   1.152   7.590   4.137
   54PVPG  C31041115   1.215   7.546   4.333
   54PVPG  H10X41116   1.161   7.635   4.372
   54PVPG  H10Y41117   1.317   7.584   4.311
   54PVPG  C31141118   1.217   7.444   4.445
   54PVPG  H11X41119   1.256   7.346   4.410
   54PVPG  H11Y41120   1.112   7.429   4.478
   54PVPG  C31241121   1.303   7.493   4.563
   54PVPG  H12X41122   1.310   7.604   4.559
   54PVPG  H12Y41123   1.406   7.454   4.549
   54PVPG  C31341124   1.252   7.456   4.704
   54PVPG  H13X41125   1.178   7.532   4.735
   54PVPG  H13Y41126   1.337   7.462   4.775
   54PVPG  C31441127   1.186   7.318   4.717
   54PVPG  H14X41128   1.093   7.316   4.656
   54PVPG  H14Y41129   1.154   7.302   4.822
   54PVPG  C31541130   1.275   7.201   4.674
   54PVPG  H15X41131   1.357   7.240   4.608
   54PVPG  H15Y41132   1.216   7.133   4.609
   54PVPG  C31641133   1.334   7.121   4.789
   54PVPG  H16X41134   1.253   7.080   4.854
   54PVPG  H16Y41135   1.394   7.035   4.752
   54PVPG  H16Z41136   1.400   7.185   4.852
   55PVPG   C1341137   7.244   0.029   2.492
   55PVPG  H13A41138   7.216  -0.016   2.590
   55PVPG  H13B41139   7.159   0.017   2.422
   55PVPG   OC341140   7.359  -0.041   2.443
   55PVPG   HO341141   7.430  -0.006   2.497
   55PVPG   C1241142   7.268   0.181   2.515
   55PVPG  H12A41143   7.171   0.231   2.533
   55PVPG   OC241144   7.330   0.241   2.402
   55PVPG   HO241145   7.423   0.223   2.421
   55PVPG   C1141146   7.359   0.206   2.637
   55PVPG  H11A41147   7.308   0.169   2.728
   55PVPG  H11B41148   7.371   0.316   2.648
   55PVPG     P41149   7.605   0.183   2.712
   55PVPG   O1341150   7.553   0.273   2.817
   55PVPG   O1441151   7.707   0.239   2.620
   55PVPG   O1241152   7.484   0.139   2.619
   55PVPG   O1141153   7.656   0.047   2.772
   55PVPG    C141154   7.581  -0.075   2.781
   55PVPG    HA41155   7.645  -0.157   2.742
   55PVPG    HB41156   7.489  -0.074   2.719
   55PVPG    C241157   7.546  -0.112   2.927
   55PVPG    HS41158   7.499  -0.214   2.929
   55PVPG   O2141159   7.457  -0.018   2.987
   55PVPG   C2141160   7.334  -0.007   2.948
   55PVPG   O2241161   7.278  -0.063   2.854
   55PVPG   C2241162   7.264   0.088   3.045
   55PVPG   H2R41163   7.185   0.144   2.990
   55PVPG   H2S41164   7.339   0.161   3.082
   55PVPG    C341165   7.671  -0.118   3.019
   55PVPG    HX41166   7.743  -0.193   2.977
   55PVPG    HY41167   7.719  -0.018   3.013
   55PVPG   O3141168   7.633  -0.156   3.153
   55PVPG   C3141169   7.702  -0.098   3.252
   55PVPG   O3241170   7.797  -0.024   3.237
   55PVPG   C3241171   7.643  -0.140   3.386
   55PVPG   H2X41172   7.704  -0.224   3.426
   55PVPG   H2Y41173   7.539  -0.176   3.370
   55PVPG   C2341174   7.204   0.011   3.164
   55PVPG   H3R41175   7.268  -0.075   3.193
   55PVPG   H3S41176   7.104  -0.029   3.136
   55PVPG   C2441177   7.190   0.101   3.288
   55PVPG   H4R41178   7.115   0.056   3.358
   55PVPG   H4S41179   7.152   0.200   3.256
   55PVPG   C2541180   7.321   0.117   3.366
   55PVPG   H5R41181   7.398   0.167   3.304
   55PVPG   H5S41182   7.360   0.016   3.391
   55PVPG   C2641183   7.305   0.194   3.497
   55PVPG   H6R41184   7.397   0.186   3.558
   55PVPG   H6S41185   7.224   0.145   3.556
   55PVPG   C2741186   7.268   0.343   3.481
   55PVPG   H7R41187   7.232   0.377   3.582
   55PVPG   H7S41188   7.183   0.352   3.410
   55PVPG   C2841189   7.381   0.436   3.434
   55PVPG   H8R41190   7.339   0.538   3.417
   55PVPG   H8S41191   7.419   0.399   3.337
   55PVPG   C2941192   7.500   0.449   3.531
   55PVPG   H9R41193   7.581   0.504   3.478
   55PVPG   H9S41194   7.537   0.347   3.554
   55PVPG  C21041195   7.470   0.521   3.664
   55PVPG  H10R41196   7.392   0.464   3.719
   55PVPG  H10S41197   7.428   0.621   3.642
   55PVPG  C21141198   7.595   0.535   3.747
   55PVPG  H11141199   7.648   0.631   3.738
   55PVPG  C21241200   7.646   0.441   3.830
   55PVPG  H12141201   7.738   0.464   3.886
   55PVPG  C21341202   7.589   0.304   3.856
   55PVPG  H13R41203   7.668   0.226   3.842
   55PVPG  H13S41204   7.507   0.279   3.785
   55PVPG  C21441205   7.532   0.292   3.999
   55PVPG  H14R41206   7.474   0.197   4.006
   55PVPG  H14S41207   7.462   0.375   4.018
   55PVPG  C21541208   7.640   0.289   4.108
   55PVPG  H15R41209   7.711   0.374   4.096
   55PVPG  H15S41210   7.700   0.196   4.097
   55PVPG  C21641211   7.582   0.295   4.250
   55PVPG  H16R41212   7.662   0.266   4.322
   55PVPG  H16S41213   7.500   0.221   4.261
   55PVPG  C21741214   7.531   0.435   4.289
   55PVPG  H17R41215   7.442   0.459   4.227
   55PVPG  H17S41216   7.610   0.509   4.264
   55PVPG  C21841217   7.496   0.448   4.438
   55PVPG  H18R41218   7.424   0.369   4.467
   55PVPG  H18S41219   7.588   0.436   4.500
   55PVPG  H18T41220   7.451   0.547   4.459
   55PVPG   C3341221   7.643  -0.023   3.487
   55PVPG   H3X41222   7.599   0.067   3.438
   55PVPG   H3Y41223   7.747   0.003   3.516
   55PVPG   C3441224   7.562  -0.050   3.615
   55PVPG   H4X41225   7.456  -0.070   3.589
   55PVPG   H4Y41226   7.564   0.042   3.677
   55PVPG   C3541227   7.615  -0.167   3.700
   55PVPG   H5X41228   7.725  -0.155   3.714
   55PVPG   H5Y41229   7.597  -0.263   3.646
   55PVPG   C3641230   7.549  -0.171   3.837
   55PVPG   H6X41231   7.439  -0.177   3.825
   55PVPG   H6Y41232   7.572  -0.077   3.892
   55PVPG   C3741233   7.595  -0.291   3.922
   55PVPG   H7X41234   7.706  -0.290   3.933
   55PVPG   H7Y41235   7.568  -0.384   3.868
   55PVPG   C3841236   7.529  -0.294   4.061
   55PVPG   H8X41237   7.540  -0.396   4.103
   55PVPG   H8Y41238   7.421  -0.272   4.052
   55PVPG   C3941239   7.594  -0.199   4.163
   55PVPG   H9X41240   7.604  -0.097   4.122
   55PVPG   H9Y41241   7.697  -0.237   4.181
   55PVPG  C31041242   7.518  -0.196   4.296
   55PVPG  H10X41243   7.592  -0.179   4.378
   55PVPG  H10Y41244   7.474  -0.295   4.318
   55PVPG  C31141245   7.409  -0.087   4.304
   55PVPG  H11X41246   7.313  -0.132   4.271
   55PVPG  H11Y41247   7.434  -0.007   4.230
   55PVPG  C31241248   7.392  -0.019   4.440
   55PVPG  H12X41249   7.308   0.053   4.433
   55PVPG  H12Y41250   7.484   0.039   4.464
   55PVPG  C31341251   7.365  -0.115   4.558
   55PVPG  H13X41252   7.450  -0.185   4.568
   55PVPG  H13Y41253   7.273  -0.174   4.535
   55PVPG  C31441254   7.343  -0.040   4.690
   55PVPG  H14X41255   7.243   0.007   4.690
   55PVPG  H14Y41256   7.418   0.042   4.695
   55PVPG  C31541257   7.361  -0.124   4.818
   55PVPG  H15X41258   7.368  -0.053   4.903
   55PVPG  H15Y41259   7.457  -0.179   4.813
   55PVPG  C31641260   7.249  -0.223   4.853
   55PVPG  H16X41261   7.255  -0.314   4.789
   55PVPG  H16Y41262   7.258  -0.256   4.958
   55PVPG  H16Z41263   7.149  -0.177   4.839
   56PVPG   C1341264   0.052   0.827   2.663
   56PVPG  H13A41265   0.046   0.842   2.773
   56PVPG  H13B41266   0.095   0.919   2.619
   56PVPG   OC341267  -0.081   0.805   2.611
   56PVPG   HO341268  -0.110   0.724   2.654
   56PVPG   C1241269   0.149   0.708   2.636
   56PVPG  H12A41270   0.243   0.725   2.693
   56PVPG   OC241271   0.182   0.697   2.498
   56PVPG   HO241272   0.200   0.602   2.498
   56PVPG   C1141273   0.091   0.570   2.676
   56PVPG  H11A41274  -0.016   0.564   2.647
   56PVPG  H11B41275   0.094   0.562   2.787
   56PVPG     P41276   0.240   0.353   2.690
   56PVPG   O1341277   0.363   0.415   2.741
   56PVPG   O1441278   0.253   0.239   2.596
   56PVPG   O1241279   0.160   0.463   2.608
   56PVPG   O1141280   0.136   0.322   2.803
   56PVPG    C141281   0.165   0.237   2.914
   56PVPG    HA41282   0.273   0.220   2.929
   56PVPG    HB41283   0.119   0.137   2.896
   56PVPG    C241284   0.108   0.297   3.047
   56PVPG    HS41285   0.120   0.222   3.128
   56PVPG   O2141286  -0.030   0.335   3.033
   56PVPG   C2141287  -0.114   0.232   3.028
   56PVPG   O2241288  -0.083   0.115   3.030
   56PVPG   C2241289  -0.259   0.282   3.017
   56PVPG   H2R41290  -0.323   0.202   3.061
   56PVPG   H2S41291  -0.283   0.291   2.910
   56PVPG    C341292   0.193   0.421   3.090
   56PVPG    HX41293   0.297   0.386   3.108
   56PVPG    HY41294   0.198   0.491   3.003
   56PVPG   O3141295   0.144   0.482   3.212
   56PVPG   C3141296   0.084   0.599   3.198
   56PVPG   O3241297   0.061   0.656   3.094
   56PVPG   C3241298   0.045   0.659   3.334
   56PVPG   H2X41299  -0.065   0.674   3.332
   56PVPG   H2Y41300   0.093   0.759   3.339
   56PVPG   C2341301  -0.287   0.417   3.089
   56PVPG   H3R41302  -0.392   0.447   3.068
   56PVPG   H3S41303  -0.220   0.495   3.045
   56PVPG   C2441304  -0.266   0.413   3.240
   56PVPG   H4R41305  -0.275   0.516   3.281
   56PVPG   H4S41306  -0.163   0.379   3.261
   56PVPG   C2541307  -0.367   0.324   3.314
   56PVPG   H5R41308  -0.359   0.220   3.276
   56PVPG   H5S41309  -0.470   0.359   3.293
   56PVPG   C2641310  -0.345   0.320   3.466
   56PVPG   H6R41311  -0.426   0.261   3.513
   56PVPG   H6S41312  -0.348   0.423   3.509
   56PVPG   C2741313  -0.213   0.253   3.507
   56PVPG   H7R41314  -0.128   0.307   3.462
   56PVPG   H7S41315  -0.215   0.150   3.466
   56PVPG   C2841316  -0.193   0.249   3.660
   56PVPG   H8R41317  -0.258   0.171   3.703
   56PVPG   H8S41318  -0.225   0.347   3.701
   56PVPG   C2941319  -0.047   0.227   3.697
   56PVPG   H9R41320   0.016   0.302   3.643
   56PVPG   H9S41321  -0.011   0.128   3.661
   56PVPG  C21041322  -0.019   0.242   3.848
   56PVPG  H10R41323  -0.049   0.344   3.878
   56PVPG  H10S41324   0.091   0.234   3.862
   56PVPG  C21141325  -0.087   0.141   3.936
   56PVPG  H11141326  -0.147   0.063   3.886
   56PVPG  C21241327  -0.079   0.142   4.070
   56PVPG  H12141328  -0.129   0.063   4.128
   56PVPG  C21341329  -0.002   0.242   4.153
   56PVPG  H13R41330   0.056   0.312   4.089
   56PVPG  H13S41331   0.073   0.192   4.216
   56PVPG  C21441332  -0.095   0.325   4.242
   56PVPG  H14R41333  -0.200   0.321   4.207
   56PVPG  H14S41334  -0.066   0.432   4.238
   56PVPG  C21541335  -0.090   0.279   4.388
   56PVPG  H15R41336   0.004   0.314   4.436
   56PVPG  H15S41337  -0.090   0.168   4.393
   56PVPG  C21641338  -0.211   0.331   4.467
   56PVPG  H16R41339  -0.302   0.290   4.419
   56PVPG  H16S41340  -0.218   0.442   4.457
   56PVPG  C21741341  -0.209   0.292   4.615
   56PVPG  H17R41342  -0.133   0.353   4.669
   56PVPG  H17S41343  -0.178   0.186   4.625
   56PVPG  C21841344  -0.347   0.309   4.681
   56PVPG  H18R41345  -0.386   0.412   4.669
   56PVPG  H18S41346  -0.420   0.242   4.634
   56PVPG  H18T41347  -0.341   0.285   4.790
   56PVPG   C3341348   0.082   0.580   3.462
   56PVPG   H3X41349   0.191   0.556   3.464
   56PVPG   H3Y41350   0.026   0.484   3.464
   56PVPG   C3441351   0.048   0.662   3.589
   56PVPG   H4X41352  -0.054   0.703   3.575
   56PVPG   H4Y41353   0.118   0.747   3.598
   56PVPG   C3541354   0.048   0.581   3.719
   56PVPG   H5X41355  -0.024   0.497   3.707
   56PVPG   H5Y41356   0.008   0.644   3.802
   56PVPG   C3641357   0.185   0.524   3.759
   56PVPG   H6X41358   0.234   0.478   3.671
   56PVPG   H6Y41359   0.170   0.442   3.833
   56PVPG   C3741360   0.280   0.628   3.823
   56PVPG   H7X41361   0.299   0.710   3.752
   56PVPG   H7Y41362   0.377   0.577   3.842
   56PVPG   C3841363   0.232   0.687   3.957
   56PVPG   H8X41364   0.141   0.749   3.941
   56PVPG   H8Y41365   0.311   0.754   3.997
   56PVPG   C3941366   0.202   0.580   4.063
   56PVPG   H9X41367   0.292   0.515   4.072
   56PVPG   H9Y41368   0.118   0.515   4.030
   56PVPG  C31041369   0.168   0.635   4.202
   56PVPG  H10X41370   0.061   0.662   4.207
   56PVPG  H10Y41371   0.227   0.728   4.221
   56PVPG  C31141372   0.202   0.532   4.311
   56PVPG  H11X41373   0.310   0.506   4.304
   56PVPG  H11Y41374   0.146   0.438   4.292
   56PVPG  C31241375   0.175   0.578   4.457
   56PVPG  H12X41376   0.242   0.662   4.483
   56PVPG  H12Y41377   0.200   0.493   4.524
   56PVPG  C31341378   0.030   0.620   4.483
   56PVPG  H13X41379  -0.040   0.546   4.436
   56PVPG  H13Y41380   0.011   0.717   4.431
   56PVPG  C31441381  -0.000   0.632   4.632
   56PVPG  H14X41382   0.089   0.676   4.681
   56PVPG  H14Y41383  -0.013   0.531   4.676
   56PVPG  C31541384  -0.122   0.720   4.664
   56PVPG  H15X41385  -0.110   0.818   4.612
   56PVPG  H15Y41386  -0.122   0.741   4.773
   56PVPG  C31641387  -0.257   0.661   4.627
   56PVPG  H16X41388  -0.259   0.632   4.519
   56PVPG  H16Y41389  -0.276   0.573   4.690
   56PVPG  H16Z41390  -0.340   0.734   4.643
   57PPPE     N41391   4.073   4.516   2.773
   57PPPE   HN141392   4.053   4.531   2.874
   57PPPE   HN241393   4.169   4.550   2.752
   57PPPE   HN341394   4.007   4.572   2.716
   57PPPE   C1241395   4.056   4.371   2.738
   57PPPE  H12A41396   4.115   4.311   2.810
   57PPPE  H12B41397   4.097   4.358   2.635
   57PPPE   C1141398   3.907   4.329   2.740
   57PPPE  H11A41399   3.869   4.333   2.844
   57PPPE  H11B41400   3.900   4.223   2.709
   57PPPE     P41401   3.671   4.395   2.646
   57PPPE   O1341402   3.620   4.476   2.533
   57PPPE   O1441403   3.642   4.250   2.639
   57PPPE   O1141404   3.619   4.453   2.782
   57PPPE   O1241405   3.830   4.413   2.653
   57PPPE    C141406   3.643   4.587   2.827
   57PPPE    HA41407   3.553   4.624   2.880
   57PPPE    HB41408   3.663   4.657   2.743
   57PPPE    C241409   3.762   4.592   2.929
   57PPPE    HS41410   3.848   4.550   2.872
   57PPPE   O2141411   3.727   4.510   3.042
   57PPPE   C2141412   3.825   4.435   3.092
   57PPPE   O2241413   3.942   4.439   3.056
   57PPPE   C2241414   3.761   4.332   3.186
   57PPPE   H2R41415   3.725   4.250   3.120
   57PPPE   H2S41416   3.671   4.376   3.234
   57PPPE    C341417   3.802   4.736   2.970
   57PPPE    HX41418   3.802   4.799   2.878
   57PPPE    HY41419   3.725   4.780   3.037
   57PPPE   O3141420   3.937   4.737   3.024
   57PPPE   C3141421   3.944   4.748   3.158
   57PPPE   O3241422   3.849   4.766   3.231
   57PPPE   C3241423   4.088   4.722   3.201
   57PPPE   H2X41424   4.154   4.799   3.156
   57PPPE   H2Y41425   4.116   4.622   3.160
   57PPPE   C2341426   3.853   4.270   3.294
   57PPPE   H3R41427   3.947   4.231   3.249
   57PPPE   H3S41428   3.798   4.183   3.335
   57PPPE   C2441429   3.886   4.362   3.413
   57PPPE   H4R41430   3.798   4.425   3.439
   57PPPE   H4S41431   3.969   4.431   3.385
   57PPPE   C2541432   3.924   4.281   3.538
   57PPPE   H5R41433   3.993   4.200   3.506
   57PPPE   H5S41434   3.834   4.233   3.580
   57PPPE   C2641435   3.996   4.361   3.648
   57PPPE   H6R41436   4.081   4.417   3.604
   57PPPE   H6S41437   4.037   4.289   3.722
   57PPPE   C2741438   3.907   4.459   3.727
   57PPPE   H7R41439   3.820   4.404   3.771
   57PPPE   H7S41440   3.866   4.536   3.658
   57PPPE   C2841441   3.986   4.527   3.840
   57PPPE   H8R41442   4.076   4.575   3.796
   57PPPE   H8S41443   4.025   4.446   3.906
   57PPPE   C2941444   3.908   4.630   3.918
   57PPPE   H9141445   3.865   4.710   3.855
   57PPPE  C21041446   3.883   4.632   4.050
   57PPPE  H10141447   3.823   4.714   4.092
   57PPPE  C21141448   3.929   4.530   4.153
   57PPPE  H11R41449   3.978   4.579   4.240
   57PPPE  H11S41450   4.003   4.459   4.111
   57PPPE  C21241451   3.809   4.449   4.202
   57PPPE  H12R41452   3.841   4.346   4.228
   57PPPE  H12S41453   3.735   4.438   4.120
   57PPPE  C21341454   3.741   4.510   4.325
   57PPPE  H13R41455   3.633   4.482   4.323
   57PPPE  H13S41456   3.746   4.621   4.323
   57PPPE  C21441457   3.800   4.456   4.457
   57PPPE  H14R41458   3.897   4.505   4.480
   57PPPE  H14S41459   3.820   4.348   4.444
   57PPPE  C21541460   3.704   4.469   4.576
   57PPPE  H15R41461   3.600   4.452   4.542
   57PPPE  H15S41462   3.710   4.572   4.617
   57PPPE  C21641463   3.733   4.369   4.688
   57PPPE  H16R41464   3.840   4.374   4.717
   57PPPE  H16S41465   3.670   4.389   4.776
   57PPPE  H16T41466   3.713   4.265   4.655
   57PPPE   C3341467   4.106   4.718   3.354
   57PPPE   H3X41468   4.188   4.647   3.380
   57PPPE   H3Y41469   4.014   4.679   3.405
   57PPPE   C3441470   4.145   4.854   3.413
   57PPPE   H4X41471   4.076   4.933   3.377
   57PPPE   H4Y41472   4.247   4.881   3.377
   57PPPE   C3541473   4.147   4.855   3.566
   57PPPE   H5X41474   4.191   4.951   3.601
   57PPPE   H5Y41475   4.214   4.773   3.601
   57PPPE   C3641476   4.010   4.836   3.634
   57PPPE   H6X41477   4.023   4.848   3.743
   57PPPE   H6Y41478   3.974   4.732   3.616
   57PPPE   C3741479   3.904   4.934   3.583
   57PPPE   H7X41480   3.886   4.914   3.476
   57PPPE   H7Y41481   3.940   5.039   3.592
   57PPPE   C3841482   3.769   4.921   3.655
   57PPPE   H8X41483   3.739   4.814   3.658
   57PPPE   H8Y41484   3.693   4.974   3.594
   57PPPE   C3941485   3.763   4.977   3.797
   57PPPE   H9X41486   3.803   5.081   3.800
   57PPPE   H9Y41487   3.826   4.916   3.866
   57PPPE  C31041488   3.617   4.973   3.844
   57PPPE  H10X41489   3.587   4.866   3.839
   57PPPE  H10Y41490   3.554   5.027   3.769
   57PPPE  C31141491   3.584   5.028   3.983
   57PPPE  H11X41492   3.478   5.004   4.004
   57PPPE  H11Y41493   3.591   5.139   3.981
   57PPPE  C31241494   3.671   4.979   4.098
   57PPPE  H12X41495   3.776   5.011   4.080
   57PPPE  H12Y41496   3.671   4.868   4.108
   57PPPE  C31341497   3.623   5.040   4.230
   57PPPE  H13X41498   3.604   5.148   4.212
   57PPPE  H13Y41499   3.704   5.036   4.306
   57PPPE  C31441500   3.496   4.977   4.287
   57PPPE  H14X41501   3.418   4.966   4.209
   57PPPE  H14Y41502   3.456   5.047   4.363
   57PPPE  C31541503   3.519   4.841   4.358
   57PPPE  H15X41504   3.534   4.763   4.280
   57PPPE  H15Y41505   3.426   4.816   4.412
   57PPPE  C31641506   3.636   4.839   4.455
   57PPPE  H16X41507   3.733   4.845   4.401
   57PPPE  H16Y41508   3.629   4.924   4.525
   57PPPE  H16Z41509   3.636   4.744   4.513
   58PPPE     N41510   4.002   3.509   2.666
   58PPPE   HN141511   4.040   3.602   2.692
   58PPPE   HN241512   3.925   3.483   2.730
   58PPPE   HN341513   4.078   3.438   2.670
   58PPPE   C1241514   3.938   3.518   2.530
   58PPPE  H12A41515   3.934   3.415   2.488
   58PPPE  H12B41516   4.001   3.582   2.465
   58PPPE   C1141517   3.796   3.573   2.547
   58PPPE  H11A41518   3.746   3.578   2.448
   58PPPE  H11B41519   3.801   3.676   2.587
   58PPPE     P41520   3.584   3.532   2.694
   58PPPE   O1341521   3.527   3.634   2.602
   58PPPE   O1441522   3.504   3.411   2.719
   58PPPE   O1141523   3.630   3.599   2.830
   58PPPE   O1241524   3.725   3.486   2.635
   58PPPE    C141525   3.725   3.531   2.912
   58PPPE    HA41526   3.827   3.548   2.872
   58PPPE    HB41527   3.707   3.421   2.915
   58PPPE    C241528   3.729   3.585   3.058
   58PPPE    HS41529   3.826   3.552   3.103
   58PPPE   O2141530   3.618   3.534   3.134
   58PPPE   C2141531   3.633   3.408   3.174
   58PPPE   O2241532   3.734   3.342   3.157
   58PPPE   C2241533   3.503   3.355   3.233
   58PPPE   H2R41534   3.473   3.268   3.170
   58PPPE   H2S41535   3.424   3.432   3.226
   58PPPE    C341536   3.730   3.740   3.063
   58PPPE    HX41537   3.775   3.776   2.969
   58PPPE    HY41538   3.626   3.778   3.068
   58PPPE   O3141539   3.814   3.785   3.171
   58PPPE   C3141540   3.752   3.808   3.287
   58PPPE   O3241541   3.631   3.817   3.302
   58PPPE   C3241542   3.856   3.819   3.398
   58PPPE   H2X41543   3.870   3.926   3.424
   58PPPE   H2Y41544   3.952   3.777   3.362
   58PPPE   C2341545   3.519   3.307   3.379
   58PPPE   H3R41546   3.613   3.249   3.393
   58PPPE   H3S41547   3.435   3.239   3.403
   58PPPE   C2441548   3.512   3.423   3.480
   58PPPE   H4R41549   3.420   3.482   3.460
   58PPPE   H4S41550   3.599   3.491   3.467
   58PPPE   C2541551   3.506   3.376   3.627
   58PPPE   H5R41552   3.425   3.301   3.637
   58PPPE   H5S41553   3.480   3.462   3.691
   58PPPE   C2641554   3.638   3.317   3.679
   58PPPE   H6R41555   3.718   3.394   3.670
   58PPPE   H6S41556   3.669   3.232   3.615
   58PPPE   C2741557   3.626   3.268   3.823
   58PPPE   H7R41558   3.541   3.197   3.826
   58PPPE   H7S41559   3.600   3.352   3.891
   58PPPE   C2841560   3.751   3.194   3.874
   58PPPE   H8R41561   3.780   3.116   3.801
   58PPPE   H8S41562   3.720   3.141   3.967
   58PPPE   C2941563   3.868   3.284   3.903
   58PPPE   H9141564   3.895   3.353   3.821
   58PPPE  C21041565   3.939   3.288   4.017
   58PPPE  H10141566   4.022   3.360   4.026
   58PPPE  C21141567   3.918   3.202   4.139
   58PPPE  H11R41568   4.012   3.199   4.198
   58PPPE  H11S41569   3.894   3.097   4.113
   58PPPE  C21241570   3.809   3.257   4.233
   58PPPE  H12R41571   3.709   3.233   4.188
   58PPPE  H12S41572   3.817   3.367   4.240
   58PPPE  C21341573   3.816   3.200   4.375
   58PPPE  H13R41574   3.832   3.090   4.372
   58PPPE  H13S41575   3.719   3.217   4.425
   58PPPE  C21441576   3.924   3.269   4.459
   58PPPE  H14R41577   3.915   3.379   4.446
   58PPPE  H14S41578   4.025   3.240   4.424
   58PPPE  C21541579   3.912   3.239   4.609
   58PPPE  H15R41580   3.924   3.130   4.627
   58PPPE  H15S41581   3.810   3.267   4.644
   58PPPE  C21641582   4.016   3.315   4.693
   58PPPE  H16R41583   4.000   3.296   4.801
   58PPPE  H16S41584   4.119   3.284   4.667
   58PPPE  H16T41585   4.007   3.425   4.676
   58PPPE   C3341586   3.812   3.741   3.525
   58PPPE   H3X41587   3.780   3.639   3.497
   58PPPE   H3Y41588   3.725   3.792   3.572
   58PPPE   C3441589   3.925   3.728   3.627
   58PPPE   H4X41590   3.957   3.828   3.663
   58PPPE   H4Y41591   4.012   3.680   3.577
   58PPPE   C3541592   3.886   3.641   3.747
   58PPPE   H5X41593   3.976   3.617   3.807
   58PPPE   H5Y41594   3.846   3.544   3.710
   58PPPE   C3641595   3.785   3.706   3.844
   58PPPE   H6X41596   3.688   3.720   3.792
   58PPPE   H6Y41597   3.823   3.805   3.875
   58PPPE   C3741598   3.765   3.618   3.967
   58PPPE   H7X41599   3.863   3.599   4.016
   58PPPE   H7Y41600   3.724   3.520   3.936
   58PPPE   C3841601   3.669   3.677   4.071
   58PPPE   H8X41602   3.713   3.769   4.115
   58PPPE   H8Y41603   3.659   3.604   4.155
   58PPPE   C3941604   3.529   3.708   4.016
   58PPPE   H9X41605   3.496   3.624   3.951
   58PPPE   H9Y41606   3.535   3.799   3.953
   58PPPE  C31041607   3.424   3.730   4.127
   58PPPE  H10X41608   3.400   3.633   4.174
   58PPPE  H10Y41609   3.332   3.769   4.079
   58PPPE  C31141610   3.472   3.827   4.234
   58PPPE  H11X41611   3.513   3.918   4.184
   58PPPE  H11Y41612   3.557   3.783   4.292
   58PPPE  C31241613   3.362   3.869   4.332
   58PPPE  H12X41614   3.261   3.844   4.292
   58PPPE  H12Y41615   3.366   3.980   4.342
   58PPPE  C31341616   3.380   3.810   4.472
   58PPPE  H13X41617   3.488   3.813   4.499
   58PPPE  H13Y41618   3.345   3.704   4.471
   58PPPE  C31441619   3.307   3.888   4.582
   58PPPE  H14X41620   3.198   3.890   4.557
   58PPPE  H14Y41621   3.347   3.992   4.578
   58PPPE  C31541622   3.327   3.842   4.726
   58PPPE  H15X41623   3.254   3.895   4.790
   58PPPE  H15Y41624   3.428   3.875   4.759
   58PPPE  C31641625   3.315   3.692   4.749
   58PPPE  H16X41626   3.279   3.670   4.852
   58PPPE  H16Y41627   3.242   3.646   4.679
   58PPPE  H16Z41628   3.412   3.641   4.735
   59PPPE     N41629   4.523   2.620   2.690
   59PPPE   HN141630   4.532   2.642   2.791
   59PPPE   HN241631   4.422   2.614   2.668
   59PPPE   HN341632   4.569   2.529   2.670
   59PPPE   C1241633   4.584   2.730   2.605
   59PPPE  H12A41634   4.558   2.709   2.500
   59PPPE  H12B41635   4.695   2.725   2.618
   59PPPE   C1141636   4.532   2.870   2.644
   59PPPE  H11A41637   4.578   2.944   2.575
   59PPPE  H11B41638   4.566   2.894   2.747
   59PPPE     P41639   4.308   3.009   2.645
   59PPPE   O1341640   4.392   3.119   2.590
   59PPPE   O1441641   4.179   2.985   2.577
   59PPPE   O1141642   4.284   3.033   2.801
   59PPPE   O1241643   4.390   2.873   2.636
   59PPPE    C141644   4.338   2.945   2.899
   59PPPE    HA41645   4.438   2.980   2.933
   59PPPE    HB41646   4.349   2.842   2.858
   59PPPE    C241647   4.248   2.923   3.025
   59PPPE    HS41648   4.143   2.930   2.992
   59PPPE   O2141649   4.277   3.025   3.124
   59PPPE   C2141650   4.194   3.027   3.228
   59PPPE   O2241651   4.094   2.958   3.240
   59PPPE   C2241652   4.243   3.133   3.327
   59PPPE   H2R41653   4.234   3.230   3.274
   59PPPE   H2S41654   4.350   3.113   3.348
   59PPPE    C341655   4.271   2.778   3.082
   59PPPE    HX41656   4.194   2.756   3.158
   59PPPE    HY41657   4.256   2.704   3.002
   59PPPE   O3141658   4.400   2.764   3.143
   59PPPE   C3141659   4.504   2.725   3.071
   59PPPE   O3241660   4.505   2.697   2.952
   59PPPE   C3241661   4.630   2.732   3.156
   59PPPE   H2X41662   4.688   2.821   3.122
   59PPPE   H2Y41663   4.688   2.641   3.134
   59PPPE   C2341664   4.166   3.144   3.462
   59PPPE   H3R41665   4.057   3.123   3.450
   59PPPE   H3S41666   4.175   3.250   3.495
   59PPPE   C2441667   4.226   3.056   3.572
   59PPPE   H4R41668   4.337   3.065   3.570
   59PPPE   H4S41669   4.201   2.950   3.549
   59PPPE   C2541670   4.179   3.086   3.716
   59PPPE   H5R41671   4.231   3.018   3.786
   59PPPE   H5S41672   4.071   3.063   3.724
   59PPPE   C2641673   4.201   3.231   3.766
   59PPPE   H6R41674   4.160   3.239   3.870
   59PPPE   H6S41675   4.140   3.299   3.703
   59PPPE   C2741676   4.346   3.280   3.768
   59PPPE   H7R41677   4.346   3.390   3.748
   59PPPE   H7S41678   4.403   3.234   3.684
   59PPPE   C2841679   4.423   3.256   3.900
   59PPPE   H8R41680   4.523   3.300   3.884
   59PPPE   H8S41681   4.438   3.146   3.911
   59PPPE   C2941682   4.372   3.318   4.028
   59PPPE   H9141683   4.398   3.424   4.043
   59PPPE  C21041684   4.303   3.255   4.123
   59PPPE  H10141685   4.271   3.311   4.214
   59PPPE  C21141686   4.263   3.110   4.120
   59PPPE  H11R41687   4.337   3.046   4.068
   59PPPE  H11S41688   4.168   3.099   4.063
   59PPPE  C21241689   4.241   3.054   4.262
   59PPPE  H12R41690   4.186   3.129   4.323
   59PPPE  H12S41691   4.338   3.035   4.312
   59PPPE  C21341692   4.155   2.927   4.263
   59PPPE  H13R41693   4.218   2.839   4.237
   59PPPE  H13S41694   4.076   2.936   4.186
   59PPPE  C21441695   4.085   2.906   4.398
   59PPPE  H14R41696   4.015   2.820   4.389
   59PPPE  H14S41697   4.025   2.996   4.421
   59PPPE  C21541698   4.182   2.882   4.514
   59PPPE  H15R41699   4.255   2.965   4.520
   59PPPE  H15S41700   4.238   2.788   4.493
   59PPPE  C21641701   4.110   2.871   4.648
   59PPPE  H16R41702   4.071   2.970   4.681
   59PPPE  H16S41703   4.024   2.801   4.641
   59PPPE  H16T41704   4.178   2.834   4.727
   59PPPE   C3341705   4.607   2.741   3.309
   59PPPE   H3X41706   4.703   2.717   3.360
   59PPPE   H3Y41707   4.534   2.664   3.344
   59PPPE   C3441708   4.562   2.878   3.361
   59PPPE   H4X41709   4.451   2.885   3.356
   59PPPE   H4Y41710   4.604   2.958   3.297
   59PPPE   C3541711   4.608   2.902   3.505
   59PPPE   H5X41712   4.570   3.000   3.542
   59PPPE   H5Y41713   4.719   2.909   3.504
   59PPPE   C3641714   4.573   2.792   3.605
   59PPPE   H6X41715   4.653   2.789   3.682
   59PPPE   H6Y41716   4.571   2.691   3.559
   59PPPE   C3741717   4.439   2.817   3.676
   59PPPE   H7X41718   4.359   2.809   3.599
   59PPPE   H7Y41719   4.437   2.920   3.719
   59PPPE   C3841720   4.408   2.718   3.789
   59PPPE   H8X41721   4.448   2.617   3.764
   59PPPE   H8Y41722   4.297   2.709   3.795
   59PPPE   C3941723   4.456   2.763   3.927
   59PPPE   H9X41724   4.419   2.690   4.003
   59PPPE   H9Y41725   4.410   2.861   3.951
   59PPPE  C31041726   4.609   2.773   3.940
   59PPPE  H10X41727   4.645   2.857   3.877
   59PPPE  H10Y41728   4.654   2.679   3.905
   59PPPE  C31141729   4.656   2.799   4.082
   59PPPE  H11X41730   4.767   2.801   4.083
   59PPPE  H11Y41731   4.626   2.715   4.148
   59PPPE  C31241732   4.601   2.928   4.144
   59PPPE  H12X41733   4.490   2.925   4.144
   59PPPE  H12Y41734   4.634   3.016   4.085
   59PPPE  C31341735   4.646   2.943   4.290
   59PPPE  H13X41736   4.756   2.924   4.295
   59PPPE  H13Y41737   4.595   2.864   4.351
   59PPPE  C31441738   4.618   3.081   4.348
   59PPPE  H14X41739   4.542   3.132   4.287
   59PPPE  H14Y41740   4.712   3.140   4.342
   59PPPE  C31541741   4.569   3.078   4.495
   59PPPE  H15X41742   4.471   3.026   4.497
   59PPPE  H15Y41743   4.553   3.182   4.528
   59PPPE  C31641744   4.664   3.008   4.592
   59PPPE  H16X41745   4.763   3.057   4.594
   59PPPE  H16Y41746   4.621   3.011   4.694
   59PPPE  H16Z41747   4.677   2.901   4.564
   60PPPE     N41748   4.998   3.375   2.960
   60PPPE   HN141749   4.993   3.347   3.061
   60PPPE   HN241750   5.040   3.470   2.951
   60PPPE   HN341751   4.901   3.381   2.922
   60PPPE   C1241752   5.077   3.276   2.879
   60PPPE  H12A41753   5.024   3.178   2.884
   60PPPE  H12B41754   5.178   3.266   2.924
   60PPPE   C1141755   5.086   3.322   2.733
   60PPPE  H11A41756   5.134   3.242   2.672
   60PPPE  H11B41757   5.153   3.411   2.729
   60PPPE     P41758   4.940   3.428   2.545
   60PPPE   O1341759   4.992   3.343   2.436
   60PPPE   O1441760   4.801   3.475   2.529
   60PPPE   O1141761   5.034   3.553   2.564
   60PPPE   O1241762   4.956   3.352   2.683
   60PPPE    C141763   4.995   3.657   2.654
   60PPPE    HA41764   4.943   3.618   2.744
   60PPPE    HB41765   4.927   3.727   2.602
   60PPPE    C241766   5.118   3.736   2.705
   60PPPE    HS41767   5.176   3.767   2.616
   60PPPE   O2141768   5.198   3.648   2.787
   60PPPE   C2141769   5.315   3.696   2.828
   60PPPE   O2241770   5.355   3.810   2.813
   60PPPE   C2241771   5.391   3.581   2.895
   60PPPE   H2R41772   5.497   3.586   2.862
   60PPPE   H2S41773   5.350   3.485   2.858
   60PPPE    C341774   5.070   3.863   2.781
   60PPPE    HX41775   5.155   3.930   2.804
   60PPPE    HY41776   5.001   3.919   2.713
   60PPPE   O3141777   5.001   3.824   2.900
   60PPPE   C3141778   4.962   3.929   2.973
   60PPPE   O3241779   4.978   4.045   2.941
   60PPPE   C3241780   4.899   3.880   3.103
   60PPPE   H2X41781   4.791   3.908   3.098
   60PPPE   H2Y41782   4.946   3.935   3.186
   60PPPE   C2341783   5.386   3.579   3.050
   60PPPE   H3R41784   5.289   3.617   3.089
   60PPPE   H3S41785   5.466   3.646   3.089
   60PPPE   C2441786   5.408   3.437   3.104
   60PPPE   H4R41787   5.496   3.393   3.054
   60PPPE   H4S41788   5.320   3.373   3.079
   60PPPE   C2541789   5.434   3.428   3.255
   60PPPE   H5R41790   5.526   3.484   3.283
   60PPPE   H5S41791   5.453   3.321   3.280
   60PPPE   C2641792   5.316   3.476   3.341
   60PPPE   H6R41793   5.221   3.454   3.289
   60PPPE   H6S41794   5.324   3.586   3.353
   60PPPE   C2741795   5.312   3.408   3.478
   60PPPE   H7R41796   5.409   3.423   3.531
   60PPPE   H7S41797   5.301   3.298   3.464
   60PPPE   C2841798   5.196   3.458   3.566
   60PPPE   H8R41799   5.189   3.393   3.656
   60PPPE   H8S41800   5.101   3.446   3.511
   60PPPE   C2941801   5.216   3.602   3.605
   60PPPE   H9141802   5.156   3.675   3.549
   60PPPE  C21041803   5.297   3.645   3.702
   60PPPE  H10141804   5.303   3.753   3.723
   60PPPE  C21141805   5.384   3.559   3.790
   60PPPE  H11R41806   5.491   3.571   3.764
   60PPPE  H11S41807   5.359   3.451   3.781
   60PPPE  C21241808   5.365   3.599   3.938
   60PPPE  H12R41809   5.414   3.521   4.000
   60PPPE  H12S41810   5.257   3.599   3.965
   60PPPE  C21341811   5.426   3.736   3.971
   60PPPE  H13R41812   5.364   3.816   3.925
   60PPPE  H13S41813   5.528   3.742   3.926
   60PPPE  C21441814   5.436   3.761   4.122
   60PPPE  H14R41815   5.334   3.755   4.163
   60PPPE  H14S41816   5.474   3.865   4.138
   60PPPE  C21541817   5.525   3.661   4.196
   60PPPE  H15R41818   5.616   3.641   4.136
   60PPPE  H15S41819   5.470   3.565   4.207
   60PPPE  C21641820   5.566   3.709   4.335
   60PPPE  H16R41821   5.634   3.636   4.384
   60PPPE  H16S41822   5.616   3.808   4.332
   60PPPE  H16T41823   5.475   3.720   4.398
   60PPPE   C3341824   4.912   3.727   3.127
   60PPPE   H3X41825   5.017   3.704   3.156
   60PPPE   H3Y41826   4.890   3.670   3.035
   60PPPE   C3441827   4.815   3.677   3.233
   60PPPE   H4X41828   4.824   3.567   3.242
   60PPPE   H4Y41829   4.711   3.701   3.205
   60PPPE   C3541830   4.848   3.739   3.370
   60PPPE   H5X41831   4.831   3.849   3.367
   60PPPE   H5Y41832   4.955   3.722   3.389
   60PPPE   C3641833   4.767   3.679   3.485
   60PPPE   H6X41834   4.750   3.571   3.466
   60PPPE   H6Y41835   4.668   3.729   3.491
   60PPPE   C3741836   4.842   3.694   3.618
   60PPPE   H7X41837   4.928   3.624   3.620
   60PPPE   H7Y41838   4.773   3.664   3.701
   60PPPE   C3841839   4.894   3.836   3.642
   60PPPE   H8X41840   4.808   3.906   3.643
   60PPPE   H8Y41841   4.961   3.868   3.559
   60PPPE   C3941842   4.975   3.850   3.773
   60PPPE   H9X41843   5.013   3.954   3.778
   60PPPE   H9Y41844   5.063   3.783   3.768
   60PPPE  C31041845   4.895   3.819   3.899
   60PPPE  H10X41846   4.957   3.846   3.987
   60PPPE  H10Y41847   4.876   3.710   3.905
   60PPPE  C31141848   4.760   3.893   3.906
   60PPPE  H11X41849   4.694   3.854   3.826
   60PPPE  H11Y41850   4.775   4.001   3.889
   60PPPE  C31241851   4.690   3.872   4.040
   60PPPE  H12X41852   4.695   3.763   4.064
   60PPPE  H12Y41853   4.583   3.899   4.032
   60PPPE  C31341854   4.753   3.953   4.155
   60PPPE  H13X41855   4.688   4.040   4.179
   60PPPE  H13Y41856   4.853   3.992   4.125
   60PPPE  C31441857   4.770   3.865   4.278
   60PPPE  H14X41858   4.853   3.793   4.261
   60PPPE  H14Y41859   4.676   3.807   4.292
   60PPPE  C31541860   4.796   3.940   4.408
   60PPPE  H15X41861   4.715   4.015   4.424
   60PPPE  H15Y41862   4.892   3.995   4.405
   60PPPE  C31641863   4.797   3.841   4.525
   60PPPE  H16X41864   4.886   3.776   4.519
   60PPPE  H16Y41865   4.797   3.895   4.623
   60PPPE  H16Z41866   4.707   3.776   4.523
   61PPPE     N41867   5.390   4.070   2.711
   61PPPE   HN141868   5.342   4.151   2.755
   61PPPE   HN241869   5.381   3.986   2.772
   61PPPE   HN341870   5.490   4.093   2.699
   61PPPE   C1241871   5.322   4.043   2.578
   61PPPE  H12A41872   5.307   3.934   2.571
   61PPPE  H12B41873   5.391   4.076   2.497
   61PPPE   C1141874   5.186   4.115   2.563
   61PPPE  H11A41875   5.128   4.116   2.658
   61PPPE  H11B41876   5.126   4.056   2.491
   61PPPE     P41877   5.239   4.371   2.597
   61PPPE   O1341878   5.364   4.422   2.537
   61PPPE   O1441879   5.121   4.459   2.598
   61PPPE   O1141880   5.269   4.304   2.738
   61PPPE   O1241881   5.202   4.246   2.509
   61PPPE    C141882   5.199   4.336   2.859
   61PPPE    HA41883   5.100   4.285   2.863
   61PPPE    HB41884   5.182   4.445   2.868
   61PPPE    C241885   5.284   4.290   2.981
   61PPPE    HS41886   5.384   4.336   2.966
   61PPPE   O2141887   5.292   4.145   2.979
   61PPPE   C2141888   5.384   4.101   3.064
   61PPPE   O2241889   5.489   4.158   3.087
   61PPPE   C2241890   5.334   3.972   3.128
   61PPPE   H2R41891   5.305   3.902   3.047
   61PPPE   H2S41892   5.243   3.996   3.188
   61PPPE    C341893   5.232   4.340   3.122
   61PPPE    HX41894   5.320   4.340   3.189
   61PPPE    HY41895   5.197   4.445   3.111
   61PPPE   O3141896   5.127   4.255   3.175
   61PPPE   C3141897   5.099   4.281   3.304
   61PPPE   O3241898   5.156   4.365   3.372
   61PPPE   C3241899   4.992   4.183   3.355
   61PPPE   H2X41900   5.043   4.101   3.410
   61PPPE   H2Y41901   4.942   4.140   3.266
   61PPPE   C2341902   5.440   3.905   3.219
   61PPPE   H3R41903   5.533   3.890   3.160
   61PPPE   H3S41904   5.405   3.805   3.250
   61PPPE   C2441905   5.474   3.985   3.345
   61PPPE   H4R41906   5.503   4.090   3.322
   61PPPE   H4S41907   5.565   3.938   3.387
   61PPPE   C2541908   5.370   3.984   3.457
   61PPPE   H5R41909   5.308   3.892   3.453
   61PPPE   H5S41910   5.303   4.072   3.446
   61PPPE   C2641911   5.442   3.989   3.594
   61PPPE   H6R41912   5.532   4.054   3.582
   61PPPE   H6S41913   5.477   3.887   3.618
   61PPPE   C2741914   5.360   4.045   3.710
   61PPPE   H7R41915   5.291   3.967   3.747
   61PPPE   H7S41916   5.298   4.129   3.674
   61PPPE   C2841917   5.449   4.096   3.826
   61PPPE   H8R41918   5.529   4.022   3.848
   61PPPE   H8S41919   5.384   4.100   3.917
   61PPPE   C2941920   5.504   4.234   3.799
   61PPPE   H9141921   5.462   4.282   3.709
   61PPPE  C21041922   5.596   4.304   3.870
   61PPPE  H10141923   5.623   4.404   3.833
   61PPPE  C21141924   5.669   4.263   3.995
   61PPPE  H11R41925   5.737   4.344   4.026
   61PPPE  H11S41926   5.736   4.178   3.970
   61PPPE  C21241927   5.586   4.222   4.118
   61PPPE  H12R41928   5.652   4.155   4.179
   61PPPE  H12S41929   5.496   4.162   4.092
   61PPPE  C21341930   5.549   4.337   4.214
   61PPPE  H13R41931   5.454   4.385   4.181
   61PPPE  H13S41932   5.629   4.413   4.212
   61PPPE  C21441933   5.536   4.286   4.358
   61PPPE  H14R41934   5.630   4.232   4.384
   61PPPE  H14S41935   5.453   4.213   4.365
   61PPPE  C21541936   5.515   4.397   4.460
   61PPPE  H15R41937   5.419   4.449   4.439
   61PPPE  H15S41938   5.596   4.473   4.450
   61PPPE  C21641939   5.515   4.344   4.603
   61PPPE  H16R41940   5.613   4.297   4.628
   61PPPE  H16S41941   5.497   4.426   4.675
   61PPPE  H16T41942   5.435   4.268   4.617
   61PPPE   C3341943   4.883   4.248   3.444
   61PPPE   H3X41944   4.784   4.210   3.411
   61PPPE   H3Y41945   4.880   4.358   3.427
   61PPPE   C3441946   4.893   4.220   3.595
   61PPPE   H4X41947   4.869   4.114   3.615
   61PPPE   H4Y41948   4.815   4.281   3.646
   61PPPE   C3541949   5.028   4.252   3.661
   61PPPE   H5X41950   5.064   4.352   3.629
   61PPPE   H5Y41951   5.103   4.178   3.627
   61PPPE   C3641952   5.020   4.252   3.815
   61PPPE   H6X41953   5.003   4.147   3.849
   61PPPE   H6Y41954   4.931   4.311   3.848
   61PPPE   C3741955   5.145   4.311   3.882
   61PPPE   H7X41956   5.152   4.419   3.860
   61PPPE   H7Y41957   5.234   4.262   3.837
   61PPPE   C3841958   5.151   4.290   4.035
   61PPPE   H8X41959   5.075   4.352   4.085
   61PPPE   H8Y41960   5.251   4.324   4.070
   61PPPE   C3941961   5.131   4.143   4.075
   61PPPE   H9X41962   5.182   4.077   4.002
   61PPPE   H9Y41963   5.023   4.120   4.073
   61PPPE  C31041964   5.186   4.109   4.214
   61PPPE  H10X41965   5.141   4.175   4.292
   61PPPE  H10Y41966   5.296   4.127   4.215
   61PPPE  C31141967   5.158   3.963   4.252
   61PPPE  H11X41968   5.191   3.899   4.167
   61PPPE  H11Y41969   5.048   3.949   4.261
   61PPPE  C31241970   5.227   3.921   4.380
   61PPPE  H12X41971   5.186   3.981   4.464
   61PPPE  H12Y41972   5.336   3.943   4.374
   61PPPE  C31341973   5.208   3.772   4.412
   61PPPE  H13X41974   5.271   3.707   4.348
   61PPPE  H13Y41975   5.102   3.745   4.391
   61PPPE  C31441976   5.234   3.739   4.559
   61PPPE  H14X41977   5.219   3.630   4.577
   61PPPE  H14Y41978   5.151   3.792   4.611
   61PPPE  C31541979   5.366   3.785   4.623
   61PPPE  H15X41980   5.346   3.846   4.714
   61PPPE  H15Y41981   5.422   3.852   4.554
   61PPPE  C31641982   5.454   3.670   4.668
   61PPPE  H16X41983   5.463   3.596   4.585
   61PPPE  H16Y41984   5.556   3.704   4.696
   61PPPE  H16Z41985   5.409   3.618   4.755
   62PPPE     N41986   3.305   4.118   2.690
   62PPPE   HN141987   3.249   4.032   2.711
   62PPPE   HN241988   3.302   4.126   2.587
   62PPPE   HN341989   3.403   4.107   2.723
   62PPPE   C1241990   3.234   4.235   2.753
   62PPPE  H12A41991   3.289   4.327   2.723
   62PPPE  H12B41992   3.239   4.223   2.863
   62PPPE   C1141993   3.086   4.243   2.708
   62PPPE  H11A41994   3.079   4.257   2.598
   62PPPE  H11B41995   3.042   4.334   2.754
   62PPPE     P41996   2.970   4.011   2.660
   62PPPE   O1341997   2.872   4.059   2.561
   62PPPE   O1441998   3.098   3.958   2.607
   62PPPE   O1141999   2.908   3.904   2.758
   62PPPE   O1242000   3.012   4.130   2.755
   62PPPE    C142001   2.984   3.856   2.872
   62PPPE    HA42002   3.090   3.889   2.870
   62PPPE    HB42003   2.984   3.745   2.870
   62PPPE    C242004   2.922   3.901   3.007
   62PPPE    HS42005   2.819   3.860   3.011
   62PPPE   O2142006   2.927   4.044   3.018
   62PPPE   C2142007   2.811   4.107   3.023
   62PPPE   O2242008   2.700   4.057   3.012
   62PPPE   C2242009   2.836   4.255   3.054
   62PPPE   H2R42010   2.787   4.316   2.976
   62PPPE   H2S42011   2.945   4.273   3.049
   62PPPE    C342012   3.002   3.840   3.125
   62PPPE    HX42013   3.005   3.729   3.111
   62PPPE    HY42014   3.107   3.875   3.118
   62PPPE   O3142015   2.940   3.868   3.252
   62PPPE   C3142016   3.002   3.953   3.333
   62PPPE   O3242017   3.103   4.015   3.307
   62PPPE   C3242018   2.922   3.958   3.464
   62PPPE   H2X42019   2.896   3.853   3.488
   62PPPE   H2Y42020   2.828   4.013   3.441
   62PPPE   C2342021   2.782   4.294   3.194
   62PPPE   H3R42022   2.792   4.208   3.266
   62PPPE   H3S42023   2.673   4.318   3.186
   62PPPE   C2442024   2.857   4.411   3.259
   62PPPE   H4R42025   2.806   4.439   3.353
   62PPPE   H4S42026   2.852   4.500   3.193
   62PPPE   C2542027   3.004   4.378   3.289
   62PPPE   H5R42028   3.070   4.447   3.231
   62PPPE   H5S42029   3.026   4.275   3.255
   62PPPE   C2642030   3.042   4.386   3.438
   62PPPE   H6R42031   2.973   4.322   3.497
   62PPPE   H6S42032   3.030   4.490   3.474
   62PPPE   C2742033   3.187   4.339   3.457
   62PPPE   H7R42034   3.251   4.398   3.387
   62PPPE   H7S42035   3.193   4.233   3.425
   62PPPE   C2842036   3.241   4.354   3.599
   62PPPE   H8R42037   3.175   4.298   3.669
   62PPPE   H8S42038   3.239   4.461   3.629
   62PPPE   C2942039   3.382   4.299   3.604
   62PPPE   H9142040   3.441   4.314   3.512
   62PPPE  C21042041   3.439   4.238   3.708
   62PPPE  H10142042   3.543   4.204   3.700
   62PPPE  C21142043   3.376   4.212   3.842
   62PPPE  H11R42044   3.306   4.125   3.839
   62PPPE  H11S42045   3.317   4.300   3.877
   62PPPE  C21242046   3.486   4.185   3.945
   62PPPE  H12R42047   3.557   4.270   3.944
   62PPPE  H12S42048   3.543   4.093   3.920
   62PPPE  C21342049   3.434   4.171   4.089
   62PPPE  H13R42050   3.393   4.069   4.106
   62PPPE  H13S42051   3.348   4.240   4.102
   62PPPE  C21442052   3.543   4.206   4.190
   62PPPE  H14R42053   3.590   4.302   4.160
   62PPPE  H14S42054   3.622   4.127   4.189
   62PPPE  C21542055   3.492   4.225   4.333
   62PPPE  H15R42056   3.387   4.188   4.333
   62PPPE  H15S42057   3.486   4.333   4.359
   62PPPE  C21642058   3.572   4.150   4.440
   62PPPE  H16R42059   3.677   4.186   4.443
   62PPPE  H16S42060   3.527   4.167   4.540
   62PPPE  H16T42061   3.573   4.041   4.420
   62PPPE   C3342062   2.990   4.021   3.587
   62PPPE   H3X42063   3.016   4.128   3.566
   62PPPE   H3Y42064   3.085   3.968   3.610
   62PPPE   C3442065   2.896   4.013   3.708
   62PPPE   H4X42066   2.880   3.906   3.731
   62PPPE   H4Y42067   2.797   4.056   3.681
   62PPPE   C3542068   2.947   4.082   3.835
   62PPPE   H5X42069   3.053   4.054   3.852
   62PPPE   H5Y42070   2.889   4.043   3.922
   62PPPE   C3642071   2.934   4.235   3.839
   62PPPE   H6X42072   2.991   4.280   3.754
   62PPPE   H6Y42073   2.979   4.270   3.933
   62PPPE   C3742074   2.789   4.288   3.830
   62PPPE   H7X42075   2.728   4.235   3.906
   62PPPE   H7Y42076   2.746   4.262   3.731
   62PPPE   C3842077   2.776   4.440   3.849
   62PPPE   H8X42078   2.669   4.468   3.842
   62PPPE   H8Y42079   2.829   4.491   3.766
   62PPPE   C3942080   2.832   4.496   3.981
   62PPPE   H9X42081   2.820   4.606   3.983
   62PPPE   H9Y42082   2.941   4.474   3.986
   62PPPE  C31042083   2.764   4.439   4.106
   62PPPE  H10X42084   2.752   4.330   4.090
   62PPPE  H10Y42085   2.662   4.484   4.115
   62PPPE  C31142086   2.842   4.461   4.237
   62PPPE  H11X42087   2.842   4.569   4.264
   62PPPE  H11Y42088   2.947   4.432   4.217
   62PPPE  C31242089   2.795   4.378   4.358
   62PPPE  H12X42090   2.716   4.430   4.417
   62PPPE  H12Y42091   2.882   4.369   4.427
   62PPPE  C31342092   2.749   4.236   4.320
   62PPPE  H13X42093   2.819   4.199   4.242
   62PPPE  H13Y42094   2.648   4.237   4.276
   62PPPE  C31442095   2.754   4.135   4.436
   62PPPE  H14X42096   2.663   4.142   4.498
   62PPPE  H14Y42097   2.840   4.159   4.502
   62PPPE  C31542098   2.775   3.993   4.384
   62PPPE  H15X42099   2.846   3.993   4.299
   62PPPE  H15Y42100   2.678   3.957   4.342
   62PPPE  C31642101   2.823   3.894   4.488
   62PPPE  H16X42102   2.815   3.790   4.450
   62PPPE  H16Y42103   2.930   3.913   4.512
   62PPPE  H16Z42104   2.764   3.903   4.582
   63PPPE     N42105   3.791   5.197   2.567
   63PPPE   HN142106   3.866   5.268   2.558
   63PPPE   HN242107   3.776   5.158   2.472
   63PPPE   HN342108   3.706   5.245   2.605
   63PPPE   C1242109   3.841   5.091   2.661
   63PPPE  H12A42110   3.884   5.009   2.599
   63PPPE  H12B42111   3.755   5.052   2.720
   63PPPE   C1142112   3.951   5.148   2.752
   63PPPE  H11A42113   3.982   5.069   2.824
   63PPPE  H11B42114   3.908   5.231   2.813
   63PPPE     P42115   4.093   5.340   2.642
   63PPPE   O1342116   4.232   5.353   2.592
   63PPPE   O1442117   3.985   5.377   2.548
   63PPPE   O1142118   4.069   5.413   2.781
   63PPPE   O1242119   4.065   5.188   2.676
   63PPPE    C142120   4.140   5.372   2.899
   63PPPE    HA42121   4.238   5.423   2.903
   63PPPE    HB42122   4.160   5.263   2.900
   63PPPE    C242123   4.069   5.403   3.035
   63PPPE    HS42124   4.128   5.353   3.115
   63PPPE   O2142125   3.931   5.361   3.035
   63PPPE   C2142126   3.908   5.241   3.084
   63PPPE   O2242127   3.992   5.161   3.120
   63PPPE   C2242128   3.757   5.212   3.082
   63PPPE   H2R42129   3.741   5.112   3.129
   63PPPE   H2S42130   3.727   5.206   2.976
   63PPPE    C342131   4.073   5.555   3.070
   63PPPE    HX42132   4.168   5.596   3.030
   63PPPE    HY42133   3.991   5.608   3.018
   63PPPE   O3142134   4.074   5.574   3.214
   63PPPE   C3142135   3.957   5.601   3.271
   63PPPE   O3242136   3.851   5.614   3.214
   63PPPE   C3242137   3.976   5.616   3.422
   63PPPE   H2X42138   3.878   5.644   3.465
   63PPPE   H2Y42139   4.047   5.700   3.438
   63PPPE   C2342140   3.669   5.318   3.153
   63PPPE   H3R42141   3.565   5.306   3.117
   63PPPE   H3S42142   3.701   5.421   3.125
   63PPPE   C2442143   3.667   5.304   3.306
   63PPPE   H4R42144   3.769   5.319   3.346
   63PPPE   H4S42145   3.633   5.202   3.334
   63PPPE   C2542146   3.572   5.407   3.370
   63PPPE   H5R42147   3.468   5.387   3.339
   63PPPE   H5S42148   3.601   5.507   3.329
   63PPPE   C2642149   3.581   5.413   3.523
   63PPPE   H6R42150   3.531   5.508   3.554
   63PPPE   H6S42151   3.687   5.419   3.554
   63PPPE   C2742152   3.508   5.300   3.596
   63PPPE   H7R42153   3.553   5.202   3.569
   63PPPE   H7S42154   3.402   5.298   3.563
   63PPPE   C2842155   3.510   5.320   3.749
   63PPPE   H8R42156   3.453   5.237   3.796
   63PPPE   H8S42157   3.457   5.413   3.775
   63PPPE   C2942158   3.652   5.320   3.804
   63PPPE   H9142159   3.719   5.256   3.745
   63PPPE  C21042160   3.703   5.387   3.907
   63PPPE  H10142161   3.809   5.371   3.931
   63PPPE  C21142162   3.634   5.483   4.002
   63PPPE  H11R42163   3.542   5.525   3.954
   63PPPE  H11S42164   3.702   5.569   4.018
   63PPPE  C21242165   3.593   5.429   4.141
   63PPPE  H12R42166   3.602   5.513   4.214
   63PPPE  H12S42167   3.665   5.350   4.171
   63PPPE  C21342168   3.449   5.376   4.148
   63PPPE  H13R42169   3.440   5.288   4.082
   63PPPE  H13S42170   3.379   5.454   4.111
   63PPPE  C21442171   3.404   5.335   4.290
   63PPPE  H14R42172   3.482   5.271   4.337
   63PPPE  H14S42173   3.312   5.274   4.282
   63PPPE  C21542174   3.376   5.452   4.385
   63PPPE  H15R42175   3.296   5.516   4.339
   63PPPE  H15S42176   3.468   5.513   4.393
   63PPPE  C21642177   3.331   5.415   4.526
   63PPPE  H16R42178   3.343   5.501   4.595
   63PPPE  H16S42179   3.224   5.385   4.528
   63PPPE  H16T42180   3.392   5.330   4.566
   63PPPE   C3342181   4.030   5.490   3.495
   63PPPE   H3X42182   4.129   5.463   3.451
   63PPPE   H3Y42183   3.962   5.404   3.479
   63PPPE   C3442184   4.047   5.516   3.645
   63PPPE   H4X42185   3.947   5.531   3.691
   63PPPE   H4Y42186   4.105   5.610   3.658
   63PPPE   C3542187   4.121   5.405   3.720
   63PPPE   H5X42188   4.140   5.440   3.825
   63PPPE   H5Y42189   4.220   5.389   3.674
   63PPPE   C3642190   4.046   5.271   3.726
   63PPPE   H6X42191   4.029   5.237   3.622
   63PPPE   H6Y42192   3.947   5.285   3.774
   63PPPE   C3742193   4.125   5.162   3.800
   63PPPE   H7X42194   4.228   5.161   3.760
   63PPPE   H7Y42195   4.080   5.063   3.780
   63PPPE   C3842196   4.131   5.181   3.953
   63PPPE   H8X42197   4.137   5.289   3.980
   63PPPE   H8Y42198   4.225   5.133   3.988
   63PPPE   C3942199   4.015   5.115   4.030
   63PPPE   H9X42200   4.004   5.011   3.990
   63PPPE   H9Y42201   3.919   5.167   4.009
   63PPPE  C31042202   4.042   5.104   4.181
   63PPPE  H10X42203   4.151   5.118   4.200
   63PPPE  H10Y42204   4.017   5.001   4.214
   63PPPE  C31142205   3.963   5.201   4.269
   63PPPE  H11X42206   4.005   5.195   4.372
   63PPPE  H11Y42207   3.858   5.165   4.275
   63PPPE  C31242208   3.959   5.346   4.223
   63PPPE  H12X42209   3.896   5.352   4.131
   63PPPE  H12Y42210   4.061   5.380   4.195
   63PPPE  C31342211   3.902   5.444   4.327
   63PPPE  H13X42212   3.857   5.531   4.274
   63PPPE  H13Y42213   3.986   5.483   4.388
   63PPPE  C31442214   3.799   5.385   4.426
   63PPPE  H14X42215   3.848   5.309   4.490
   63PPPE  H14Y42216   3.716   5.334   4.372
   63PPPE  C31542217   3.739   5.493   4.517
   63PPPE  H15X42218   3.669   5.556   4.458
   63PPPE  H15Y42219   3.821   5.561   4.551
   63PPPE  C31642220   3.670   5.439   4.642
   63PPPE  H16X42221   3.622   5.521   4.700
   63PPPE  H16Y42222   3.592   5.364   4.615
   63PPPE  H16Z42223   3.743   5.389   4.709
   64PPPE     N42224   3.841   2.504   2.674
   64PPPE   HN142225   3.867   2.516   2.574
   64PPPE   HN242226   3.924   2.517   2.735
   64PPPE   HN342227   3.808   2.406   2.684
   64PPPE   C1242228   3.731   2.600   2.710
   64PPPE  H12A42229   3.763   2.702   2.680
   64PPPE  H12B42230   3.716   2.598   2.820
   64PPPE   C1142231   3.601   2.561   2.638
   64PPPE  H11A42232   3.561   2.468   2.684
   64PPPE  H11B42233   3.622   2.541   2.531
   64PPPE     P42234   3.354   2.647   2.664
   64PPPE   O1342235   3.290   2.778   2.680
   64PPPE   O1442236   3.311   2.569   2.546
   64PPPE   O1142237   3.345   2.559   2.796
   64PPPE   O1242238   3.510   2.671   2.645
   64PPPE    C142239   3.372   2.616   2.925
   64PPPE    HA42240   3.296   2.691   2.953
   64PPPE    HB42241   3.471   2.667   2.925
   64PPPE    C242242   3.378   2.508   3.040
   64PPPE    HS42243   3.408   2.412   2.992
   64PPPE   O2142244   3.245   2.493   3.098
   64PPPE   C2142245   3.231   2.393   3.189
   64PPPE   O2242246   3.321   2.321   3.226
   64PPPE   C2242247   3.081   2.384   3.229
   64PPPE   H2R42248   3.030   2.336   3.142
   64PPPE   H2S42249   3.046   2.489   3.235
   64PPPE    C342250   3.490   2.545   3.144
   64PPPE    HX42251   3.495   2.468   3.223
   64PPPE    HY42252   3.586   2.540   3.089
   64PPPE   O3142253   3.475   2.677   3.202
   64PPPE   C3142254   3.566   2.702   3.297
   64PPPE   O3242255   3.657   2.627   3.327
   64PPPE   C3242256   3.545   2.842   3.356
   64PPPE   H2X42257   3.442   2.874   3.328
   64PPPE   H2Y42258   3.618   2.911   3.308
   64PPPE   C2342259   3.024   2.319   3.361
   64PPPE   H3R42260   3.074   2.222   3.384
   64PPPE   H3S42261   2.917   2.297   3.342
   64PPPE   C2442262   3.027   2.410   3.486
   64PPPE   H4R42263   3.068   2.507   3.453
   64PPPE   H4S42264   3.102   2.367   3.556
   64PPPE   C2542265   2.897   2.441   3.568
   64PPPE   H5R42266   2.876   2.360   3.639
   64PPPE   H5S42267   2.815   2.443   3.492
   64PPPE   C2642268   2.892   2.580   3.639
   64PPPE   H6R42269   2.788   2.619   3.631
   64PPPE   H6S42270   2.956   2.652   3.584
   64PPPE   C2742271   2.934   2.594   3.788
   64PPPE   H7R42272   3.011   2.518   3.815
   64PPPE   H7S42273   2.848   2.573   3.855
   64PPPE   C2842274   2.991   2.734   3.823
   64PPPE   H8R42275   2.929   2.811   3.773
   64PPPE   H8S42276   3.093   2.742   3.780
   64PPPE   C2942277   2.994   2.765   3.971
   64PPPE   H9142278   2.908   2.821   4.009
   64PPPE  C21042279   3.090   2.729   4.059
   64PPPE  H10142280   3.080   2.762   4.164
   64PPPE  C21142281   3.214   2.650   4.028
   64PPPE  H11R42282   3.298   2.718   4.005
   64PPPE  H11S42283   3.196   2.588   3.938
   64PPPE  C21242284   3.261   2.554   4.139
   64PPPE  H12R42285   3.360   2.513   4.111
   64PPPE  H12S42286   3.190   2.468   4.145
   64PPPE  C21342287   3.271   2.614   4.280
   64PPPE  H13R42288   3.317   2.536   4.344
   64PPPE  H13S42289   3.169   2.634   4.318
   64PPPE  C21442290   3.355   2.742   4.295
   64PPPE  H14R42291   3.322   2.820   4.223
   64PPPE  H14S42292   3.460   2.716   4.273
   64PPPE  C21542293   3.352   2.800   4.438
   64PPPE  H15R42294   3.367   2.717   4.510
   64PPPE  H15S42295   3.251   2.842   4.457
   64PPPE  C21642296   3.458   2.907   4.462
   64PPPE  H16R42297   3.450   2.989   4.388
   64PPPE  H16S42298   3.448   2.950   4.564
   64PPPE  H16T42299   3.560   2.863   4.454
   64PPPE   C3342300   3.561   2.848   3.510
   64PPPE   H3X42301   3.668   2.846   3.539
   64PPPE   H3Y42302   3.514   2.758   3.557
   64PPPE   C3442303   3.492   2.972   3.569
   64PPPE   H4X42304   3.407   3.002   3.503
   64PPPE   H4Y42305   3.564   3.056   3.569
   64PPPE   C3542306   3.434   2.954   3.710
   64PPPE   H5X42307   3.349   2.883   3.709
   64PPPE   H5Y42308   3.394   3.052   3.742
   64PPPE   C3642309   3.535   2.906   3.815
   64PPPE   H6X42310   3.634   2.954   3.796
   64PPPE   H6Y42311   3.549   2.796   3.806
   64PPPE   C3742312   3.491   2.941   3.958
   64PPPE   H7X42313   3.393   2.893   3.979
   64PPPE   H7Y42314   3.475   3.050   3.967
   64PPPE   C3842315   3.592   2.899   4.068
   64PPPE   H8X42316   3.549   2.927   4.165
   64PPPE   H8Y42317   3.687   2.956   4.056
   64PPPE   C3942318   3.625   2.750   4.068
   64PPPE   H9X42319   3.679   2.721   3.976
   64PPPE   H9Y42320   3.530   2.693   4.070
   64PPPE  C31042321   3.709   2.712   4.191
   64PPPE  H10X42322   3.676   2.771   4.278
   64PPPE  H10Y42323   3.815   2.739   4.171
   64PPPE  C31142324   3.698   2.563   4.227
   64PPPE  H11X42325   3.724   2.504   4.137
   64PPPE  H11Y42326   3.593   2.536   4.256
   64PPPE  C31242327   3.794   2.525   4.341
   64PPPE  H12X42328   3.880   2.595   4.333
   64PPPE  H12Y42329   3.833   2.423   4.322
   64PPPE  C31342330   3.738   2.532   4.484
   64PPPE  H13X42331   3.638   2.582   4.486
   64PPPE  H13Y42332   3.807   2.596   4.543
   64PPPE  C31442333   3.731   2.395   4.554
   64PPPE  H14X42334   3.815   2.333   4.516
   64PPPE  H14Y42335   3.638   2.341   4.526
   64PPPE  C31542336   3.747   2.401   4.708
   64PPPE  H15X42337   3.769   2.505   4.740
   64PPPE  H15Y42338   3.836   2.340   4.734
   64PPPE  C31642339   3.632   2.346   4.792
   64PPPE  H16X42340   3.662   2.340   4.899
   64PPPE  H16Y42341   3.543   2.412   4.786
   64PPPE  H16Z42342   3.605   2.243   4.759
   65PPPE     N42343   2.929   3.460   2.612
   65PPPE   HN142344   2.886   3.510   2.531
   65PPPE   HN242345   3.006   3.519   2.651
   65PPPE   HN342346   2.965   3.369   2.579
   65PPPE   C1242347   2.823   3.428   2.714
   65PPPE  H12A42348   2.762   3.519   2.731
   65PPPE  H12B42349   2.874   3.400   2.809
   65PPPE   C1142350   2.738   3.310   2.665
   65PPPE  H11A42351   2.678   3.345   2.578
   65PPPE  H11B42352   2.668   3.279   2.745
   65PPPE     P42353   2.754   3.074   2.560
   65PPPE   O1342354   2.670   3.124   2.450
   65PPPE   O1442355   2.855   2.973   2.522
   65PPPE   O1142356   2.661   3.014   2.672
   65PPPE   O1242357   2.824   3.201   2.628
   65PPPE    C142358   2.719   2.963   2.793
   65PPPE    HA42359   2.801   3.028   2.830
   65PPPE    HB42360   2.761   2.861   2.777
   65PPPE    C242361   2.615   2.954   2.910
   65PPPE    HS42362   2.539   2.879   2.879
   65PPPE   O2142363   2.554   3.084   2.922
   65PPPE   C2142364   2.444   3.086   2.995
   65PPPE   O2242365   2.388   2.990   3.043
   65PPPE   C2242366   2.397   3.230   3.002
   65PPPE   H2R42367   2.304   3.237   2.941
   65PPPE   H2S42368   2.475   3.294   2.953
   65PPPE    C342369   2.680   2.909   3.043
   65PPPE    HX42370   2.603   2.904   3.123
   65PPPE    HY42371   2.714   2.804   3.025
   65PPPE   O3142372   2.794   2.991   3.076
   65PPPE   C3142373   2.802   3.038   3.200
   65PPPE   O3242374   2.719   3.024   3.288
   65PPPE   C3242375   2.935   3.114   3.214
   65PPPE   H2X42376   2.925   3.209   3.156
   65PPPE   H2Y42377   3.013   3.052   3.164
   65PPPE   C2342378   2.369   3.278   3.145
   65PPPE   H3R42379   2.283   3.222   3.188
   65PPPE   H3S42380   2.338   3.385   3.139
   65PPPE   C2442381   2.485   3.268   3.245
   65PPPE   H4R42382   2.578   3.313   3.205
   65PPPE   H4S42383   2.505   3.161   3.268
   65PPPE   C2542384   2.444   3.339   3.375
   65PPPE   H5R42385   2.344   3.303   3.405
   65PPPE   H5S42386   2.436   3.448   3.353
   65PPPE   C2642387   2.538   3.322   3.495
   65PPPE   H6R42388   2.640   3.356   3.467
   65PPPE   H6S42389   2.543   3.216   3.525
   65PPPE   C2742390   2.488   3.409   3.612
   65PPPE   H7R42391   2.384   3.379   3.638
   65PPPE   H7S42392   2.483   3.513   3.573
   65PPPE   C2842393   2.576   3.409   3.738
   65PPPE   H8R42394   2.555   3.503   3.794
   65PPPE   H8S42395   2.683   3.413   3.708
   65PPPE   C2942396   2.550   3.290   3.826
   65PPPE   H9142397   2.597   3.197   3.792
   65PPPE  C21042398   2.475   3.286   3.938
   65PPPE  H10142399   2.466   3.190   3.992
   65PPPE  C21142400   2.399   3.399   4.004
   65PPPE  H11R42401   2.291   3.372   4.006
   65PPPE  H11S42402   2.406   3.493   3.946
   65PPPE  C21242403   2.442   3.425   4.150
   65PPPE  H12R42404   2.445   3.330   4.207
   65PPPE  H12S42405   2.365   3.489   4.198
   65PPPE  C21342406   2.577   3.498   4.165
   65PPPE  H13R42407   2.569   3.596   4.115
   65PPPE  H13S42408   2.658   3.441   4.115
   65PPPE  C21442409   2.615   3.522   4.313
   65PPPE  H14R42410   2.522   3.529   4.374
   65PPPE  H14S42411   2.668   3.619   4.322
   65PPPE  C21542412   2.706   3.413   4.372
   65PPPE  H15R42413   2.808   3.425   4.328
   65PPPE  H15S42414   2.668   3.314   4.341
   65PPPE  C21642415   2.715   3.414   4.523
   65PPPE  H16R42416   2.740   3.516   4.561
   65PPPE  H16S42417   2.617   3.384   4.568
   65PPPE  H16T42418   2.792   3.343   4.559
   65PPPE   C3342419   2.980   3.144   3.358
   65PPPE   H3X42420   3.084   3.183   3.353
   65PPPE   H3Y42421   2.982   3.052   3.419
   65PPPE   C3442422   2.895   3.250   3.429
   65PPPE   H4X42423   2.804   3.202   3.470
   65PPPE   H4Y42424   2.861   3.326   3.354
   65PPPE   C3542425   2.969   3.324   3.542
   65PPPE   H5X42426   2.902   3.402   3.584
   65PPPE   H5Y42427   3.057   3.376   3.497
   65PPPE   C3642428   3.017   3.233   3.655
   65PPPE   H6X42429   3.080   3.151   3.615
   65PPPE   H6Y42430   2.929   3.187   3.703
   65PPPE   C3742431   3.099   3.311   3.759
   65PPPE   H7X42432   3.037   3.393   3.801
   65PPPE   H7Y42433   3.186   3.358   3.708
   65PPPE   C3842434   3.152   3.224   3.874
   65PPPE   H8X42435   3.212   3.288   3.943
   65PPPE   H8Y42436   3.220   3.146   3.834
   65PPPE   C3942437   3.043   3.155   3.957
   65PPPE   H9X42438   3.091   3.102   4.042
   65PPPE   H9Y42439   2.992   3.079   3.895
   65PPPE  C31042440   2.939   3.253   4.014
   65PPPE  H10X42441   2.874   3.292   3.933
   65PPPE  H10Y42442   2.992   3.339   4.061
   65PPPE  C31142443   2.850   3.189   4.123
   65PPPE  H11X42444   2.787   3.269   4.168
   65PPPE  H11Y42445   2.915   3.148   4.203
   65PPPE  C31242446   2.758   3.080   4.070
   65PPPE  H12X42447   2.816   3.014   4.002
   65PPPE  H12Y42448   2.675   3.123   4.010
   65PPPE  C31342449   2.702   2.991   4.182
   65PPPE  H13X42450   2.784   2.963   4.250
   65PPPE  H13Y42451   2.665   2.899   4.134
   65PPPE  C31442452   2.584   3.046   4.263
   65PPPE  H14X42453   2.489   3.005   4.221
   65PPPE  H14Y42454   2.577   3.157   4.253
   65PPPE  C31542455   2.594   3.008   4.411
   65PPPE  H15X42456   2.668   3.074   4.462
   65PPPE  H15Y42457   2.634   2.904   4.418
   65PPPE  C31642458   2.461   3.012   4.487
   65PPPE  H16X42459   2.476   2.980   4.592
   65PPPE  H16Y42460   2.419   3.115   4.487
   65PPPE  H16Z42461   2.387   2.943   4.440
   66PPPE     N42462   5.384   5.184   2.390
   66PPPE   HN142463   5.433   5.141   2.309
   66PPPE   HN242464   5.334   5.271   2.362
   66PPPE   HN342465   5.454   5.208   2.463
   66PPPE   C1242466   5.293   5.086   2.459
   66PPPE  H12A42467   5.351   4.993   2.475
   66PPPE  H12B42468   5.206   5.064   2.393
   66PPPE   C1142469   5.249   5.144   2.594
   66PPPE  H11A42470   5.220   5.062   2.663
   66PPPE  H11B42471   5.157   5.205   2.578
   66PPPE     P42472   5.478   5.172   2.720
   66PPPE   O1342473   5.538   5.085   2.616
   66PPPE   O1442474   5.561   5.288   2.759
   66PPPE   O1142475   5.424   5.089   2.843
   66PPPE   O1242476   5.348   5.230   2.652
   66PPPE    C142477   5.311   5.132   2.920
   66PPPE    HA42478   5.254   5.043   2.955
   66PPPE    HB42479   5.239   5.191   2.859
   66PPPE    C242480   5.353   5.215   3.044
   66PPPE    HS42481   5.458   5.247   3.028
   66PPPE   O2142482   5.343   5.132   3.162
   66PPPE   C2142483   5.414   5.179   3.264
   66PPPE   O2242484   5.482   5.280   3.261
   66PPPE   C2242485   5.395   5.093   3.388
   66PPPE   H2R42486   5.289   5.103   3.421
   66PPPE   H2S42487   5.460   5.137   3.466
   66PPPE    C342488   5.266   5.345   3.057
   66PPPE    HX42489   5.274   5.390   3.158
   66PPPE    HY42490   5.314   5.418   2.990
   66PPPE   O3142491   5.131   5.328   3.011
   66PPPE   C3142492   5.026   5.288   3.084
   66PPPE   O3242493   4.917   5.266   3.035
   66PPPE   C3242494   5.055   5.274   3.233
   66PPPE   H2X42495   5.120   5.185   3.245
   66PPPE   H2Y42496   5.108   5.364   3.271
   66PPPE   C2342497   5.431   4.944   3.370
   66PPPE   H3R42498   5.523   4.935   3.307
   66PPPE   H3S42499   5.349   4.891   3.315
   66PPPE   C2442500   5.460   4.873   3.503
   66PPPE   H4R42501   5.547   4.924   3.550
   66PPPE   H4S42502   5.489   4.767   3.486
   66PPPE   C2542503   5.342   4.877   3.602
   66PPPE   H5R42504   5.263   4.805   3.572
   66PPPE   H5S42505   5.297   4.979   3.599
   66PPPE   C2642506   5.386   4.850   3.747
   66PPPE   H6R42507   5.483   4.902   3.766
   66PPPE   H6S42508   5.405   4.742   3.760
   66PPPE   C2742509   5.286   4.898   3.855
   66PPPE   H7R42510   5.332   4.880   3.955
   66PPPE   H7S42511   5.195   4.835   3.849
   66PPPE   C2842512   5.245   5.047   3.846
   66PPPE   H8R42513   5.181   5.067   3.936
   66PPPE   H8S42514   5.178   5.059   3.759
   66PPPE   C2942515   5.361   5.143   3.835
   66PPPE   H9142516   5.427   5.124   3.750
   66PPPE  C21042517   5.390   5.247   3.917
   66PPPE  H10142518   5.480   5.307   3.895
   66PPPE  C21142519   5.313   5.291   4.038
   66PPPE  H11R42520   5.223   5.228   4.054
   66PPPE  H11S42521   5.276   5.395   4.024
   66PPPE  C21242522   5.395   5.287   4.168
   66PPPE  H12R42523   5.325   5.310   4.252
   66PPPE  H12S42524   5.473   5.366   4.168
   66PPPE  C21342525   5.461   5.151   4.200
   66PPPE  H13R42526   5.553   5.139   4.138
   66PPPE  H13S42527   5.391   5.069   4.169
   66PPPE  C21442528   5.493   5.135   4.348
   66PPPE  H14R42529   5.398   5.143   4.406
   66PPPE  H14S42530   5.557   5.220   4.380
   66PPPE  C21542531   5.562   5.002   4.384
   66PPPE  H15R42532   5.665   5.004   4.341
   66PPPE  H15S42533   5.509   4.919   4.332
   66PPPE  C21642534   5.569   4.972   4.533
   66PPPE  H16R42535   5.639   4.889   4.554
   66PPPE  H16S42536   5.603   5.061   4.590
   66PPPE  H16T42537   5.469   4.944   4.572
   66PPPE   C3342538   4.928   5.256   3.321
   66PPPE   H3X42539   4.834   5.252   3.262
   66PPPE   H3Y42540   4.919   5.345   3.387
   66PPPE   C3442541   4.936   5.129   3.406
   66PPPE   H4X42542   5.041   5.108   3.434
   66PPPE   H4Y42543   4.899   5.045   3.345
   66PPPE   C3542544   4.855   5.137   3.536
   66PPPE   H5X42545   4.848   5.034   3.576
   66PPPE   H5Y42546   4.751   5.171   3.514
   66PPPE   C3642547   4.919   5.229   3.641
   66PPPE   H6X42548   4.921   5.333   3.602
   66PPPE   H6Y42549   5.025   5.198   3.658
   66PPPE   C3742550   4.844   5.229   3.774
   66PPPE   H7X42551   4.738   5.254   3.753
   66PPPE   H7Y42552   4.886   5.307   3.841
   66PPPE   C3842553   4.850   5.094   3.845
   66PPPE   H8X42554   4.955   5.069   3.872
   66PPPE   H8Y42555   4.814   5.014   3.778
   66PPPE   C3942556   4.761   5.087   3.969
   66PPPE   H9X42557   4.763   4.980   4.002
   66PPPE   H9Y42558   4.656   5.111   3.943
   66PPPE  C31042559   4.806   5.170   4.090
   66PPPE  H10X42560   4.738   5.147   4.175
   66PPPE  H10Y42561   4.797   5.279   4.069
   66PPPE  C31142562   4.949   5.135   4.128
   66PPPE  H11X42563   5.019   5.192   4.064
   66PPPE  H11Y42564   4.967   5.027   4.108
   66PPPE  C31242565   4.983   5.158   4.276
   66PPPE  H12X42566   4.904   5.117   4.341
   66PPPE  H12Y42567   4.990   5.267   4.294
   66PPPE  C31342568   5.117   5.091   4.311
   66PPPE  H13X42569   5.169   5.152   4.388
   66PPPE  H13Y42570   5.181   5.091   4.221
   66PPPE  C31442571   5.104   4.947   4.363
   66PPPE  H14X42572   5.044   4.886   4.292
   66PPPE  H14Y42573   5.051   4.948   4.462
   66PPPE  C31542574   5.242   4.884   4.380
   66PPPE  H15X42575   5.303   4.957   4.436
   66PPPE  H15Y42576   5.289   4.871   4.280
   66PPPE  C31642577   5.247   4.752   4.457
   66PPPE  H16X42578   5.197   4.670   4.399
   66PPPE  H16Y42579   5.353   4.721   4.476
   66PPPE  H16Z42580   5.197   4.763   4.556
   67PPPE     N42581   4.878   5.568   2.379
   67PPPE   HN142582   4.901   5.478   2.332
   67PPPE   HN242583   4.878   5.646   2.310
   67PPPE   HN342584   4.949   5.590   2.452
   67PPPE   C1242585   4.741   5.562   2.441
   67PPPE  H12A42586   4.740   5.478   2.514
   67PPPE  H12B42587   4.667   5.541   2.361
   67PPPE   C1142588   4.710   5.694   2.510
   67PPPE  H11A42589   4.703   5.776   2.435
   67PPPE  H11B42590   4.793   5.720   2.578
   67PPPE     P42591   4.562   5.726   2.728
   67PPPE   O1342592   4.684   5.800   2.767
   67PPPE   O1442593   4.436   5.803   2.726
   67PPPE   O1142594   4.549   5.590   2.806
   67PPPE   O1242595   4.584   5.683   2.576
   67PPPE    C142596   4.518   5.462   2.750
   67PPPE    HA42597   4.530   5.458   2.640
   67PPPE    HB42598   4.411   5.440   2.772
   67PPPE    C242599   4.603   5.347   2.814
   67PPPE    HS42600   4.551   5.250   2.795
   67PPPE   O2142601   4.622   5.369   2.954
   67PPPE   C2142602   4.516   5.344   3.028
   67PPPE   O2242603   4.418   5.281   2.991
   67PPPE   C2242604   4.536   5.405   3.167
   67PPPE   H2R42605   4.631   5.461   3.168
   67PPPE   H2S42606   4.542   5.321   3.238
   67PPPE    C342607   4.744   5.333   2.750
   67PPPE    HX42608   4.799   5.256   2.808
   67PPPE    HY42609   4.732   5.297   2.645
   67PPPE   O3142610   4.812   5.460   2.754
   67PPPE   C3142611   4.941   5.458   2.730
   67PPPE   O3242612   5.002   5.365   2.679
   67PPPE   C3242613   4.997   5.599   2.749
   67PPPE   H2X42614   4.914   5.672   2.739
   67PPPE   H2Y42615   5.071   5.615   2.668
   67PPPE   C2342616   4.419   5.500   3.202
   67PPPE   H3R42617   4.325   5.441   3.212
   67PPPE   H3S42618   4.405   5.575   3.122
   67PPPE   C2442619   4.441   5.575   3.335
   67PPPE   H4R42620   4.349   5.632   3.359
   67PPPE   H4S42621   4.524   5.648   3.325
   67PPPE   C2542622   4.473   5.479   3.450
   67PPPE   H5R42623   4.575   5.437   3.436
   67PPPE   H5S42624   4.401   5.395   3.447
   67PPPE   C2642625   4.466   5.543   3.589
   67PPPE   H6R42626   4.362   5.579   3.608
   67PPPE   H6S42627   4.534   5.630   3.595
   67PPPE   C2742628   4.504   5.438   3.694
   67PPPE   H7R42629   4.612   5.415   3.681
   67PPPE   H7S42630   4.446   5.346   3.672
   67PPPE   C2842631   4.479   5.479   3.840
   67PPPE   H8R42632   4.374   5.513   3.853
   67PPPE   H8S42633   4.545   5.564   3.867
   67PPPE   C2942634   4.509   5.358   3.924
   67PPPE   H9142635   4.588   5.294   3.881
   67PPPE  C21042636   4.457   5.322   4.042
   67PPPE  H10142637   4.494   5.230   4.089
   67PPPE  C21142638   4.352   5.393   4.123
   67PPPE  H11R42639   4.290   5.318   4.176
   67PPPE  H11S42640   4.284   5.454   4.059
   67PPPE  C21242641   4.417   5.486   4.228
   67PPPE  H12R42642   4.344   5.502   4.311
   67PPPE  H12S42643   4.439   5.584   4.181
   67PPPE  C21342644   4.549   5.431   4.287
   67PPPE  H13R42645   4.627   5.432   4.208
   67PPPE  H13S42646   4.535   5.327   4.320
   67PPPE  C21442647   4.601   5.515   4.403
   67PPPE  H14R42648   4.538   5.492   4.492
   67PPPE  H14S42649   4.588   5.623   4.380
   67PPPE  C21542650   4.748   5.487   4.438
   67PPPE  H15R42651   4.780   5.558   4.517
   67PPPE  H15S42652   4.809   5.509   4.346
   67PPPE  C21642653   4.779   5.346   4.485
   67PPPE  H16R42654   4.737   5.269   4.415
   67PPPE  H16S42655   4.889   5.331   4.492
   67PPPE  H16T42656   4.736   5.330   4.587
   67PPPE   C3342657   5.065   5.624   2.885
   67PPPE   H3X42658   5.121   5.719   2.880
   67PPPE   H3Y42659   5.139   5.543   2.907
   67PPPE   C3442660   4.963   5.636   3.000
   67PPPE   H4X42661   4.894   5.721   2.979
   67PPPE   H4Y42662   4.901   5.544   3.006
   67PPPE   C3542663   5.032   5.659   3.135
   67PPPE   H5X42664   5.092   5.753   3.131
   67PPPE   H5Y42665   5.103   5.575   3.153
   67PPPE   C3642666   4.933   5.667   3.252
   67PPPE   H6X42667   4.862   5.582   3.245
   67PPPE   H6Y42668   4.874   5.761   3.245
   67PPPE   C3742669   5.004   5.661   3.388
   67PPPE   H7X42670   5.079   5.742   3.395
   67PPPE   H7Y42671   5.058   5.564   3.396
   67PPPE   C3842672   4.907   5.673   3.506
   67PPPE   H8X42673   4.825   5.598   3.495
   67PPPE   H8Y42674   4.860   5.774   3.504
   67PPPE   C3942675   4.976   5.651   3.641
   67PPPE   H9X42676   5.015   5.547   3.646
   67PPPE   H9Y42677   5.063   5.720   3.648
   67PPPE  C31042678   4.882   5.677   3.759
   67PPPE  H10X42679   4.794   5.609   3.753
   67PPPE  H10Y42680   4.844   5.781   3.752
   67PPPE  C31142681   4.951   5.659   3.894
   67PPPE  H11X42682   5.046   5.717   3.894
   67PPPE  H11Y42683   4.976   5.552   3.911
   67PPPE  C31242684   4.863   5.711   4.009
   67PPPE  H12X42685   4.771   5.649   4.016
   67PPPE  H12Y42686   4.832   5.815   3.984
   67PPPE  C31342687   4.933   5.714   4.144
   67PPPE  H13X42688   5.028   5.771   4.136
   67PPPE  H13Y42689   4.957   5.611   4.177
   67PPPE  C31442690   4.843   5.781   4.249
   67PPPE  H14X42691   4.749   5.723   4.257
   67PPPE  H14Y42692   4.816   5.883   4.214
   67PPPE  C31542693   4.907   5.793   4.387
   67PPPE  H15X42694   4.993   5.864   4.382
   67PPPE  H15Y42695   4.948   5.695   4.418
   67PPPE  C31642696   4.807   5.842   4.491
   67PPPE  H16X42697   4.758   5.936   4.457
   67PPPE  H16Y42698   4.727   5.766   4.507
   67PPPE  H16Z42699   4.856   5.861   4.589
   68PPPE     N42700   6.039   3.796   2.468
   68PPPE   HN142701   5.965   3.730   2.499
   68PPPE   HN242702   6.038   3.794   2.364
   68PPPE   HN342703   6.131   3.760   2.502
   68PPPE   C1242704   6.003   3.932   2.523
   68PPPE  H12A42705   5.926   3.976   2.456
   68PPPE  H12B42706   6.094   3.996   2.520
   68PPPE   C1142707   5.946   3.922   2.665
   68PPPE  H11A42708   5.940   4.026   2.706
   68PPPE  H11B42709   6.015   3.866   2.732
   68PPPE     P42710   5.778   3.715   2.679
   68PPPE   O1342711   5.632   3.702   2.691
   68PPPE   O1442712   5.840   3.650   2.561
   68PPPE   O1142713   5.852   3.665   2.807
   68PPPE   O1242714   5.814   3.868   2.666
   68PPPE    C142715   5.862   3.740   2.929
   68PPPE    HA42716   5.775   3.718   2.995
   68PPPE    HB42717   5.864   3.849   2.911
   68PPPE    C242718   5.992   3.699   3.002
   68PPPE    HS42719   6.064   3.665   2.924
   68PPPE   O2142720   5.958   3.595   3.095
   68PPPE   C2142721   6.060   3.513   3.123
   68PPPE   O2242722   6.168   3.516   3.068
   68PPPE   C2242723   6.016   3.412   3.230
   68PPPE   H2R42724   5.995   3.316   3.179
   68PPPE   H2S42725   5.922   3.449   3.276
   68PPPE    C342726   6.056   3.821   3.075
   68PPPE    HX42727   6.147   3.789   3.131
   68PPPE    HY42728   6.090   3.893   2.998
   68PPPE   O3142729   5.957   3.886   3.157
   68PPPE   C3142730   5.951   3.840   3.282
   68PPPE   O3242731   6.040   3.780   3.339
   68PPPE   C3242732   5.809   3.864   3.332
   68PPPE   H2X42733   5.741   3.821   3.255
   68PPPE   H2Y42734   5.791   3.974   3.337
   68PPPE   C2342735   6.122   3.390   3.341
   68PPPE   H3R42736   6.194   3.474   3.344
   68PPPE   H3S42737   6.181   3.299   3.318
   68PPPE   C2442738   6.060   3.377   3.481
   68PPPE   H4R42739   6.124   3.315   3.546
   68PPPE   H4S42740   5.961   3.328   3.473
   68PPPE   C2542741   6.044   3.515   3.546
   68PPPE   H5R42742   6.003   3.582   3.469
   68PPPE   H5S42743   6.144   3.556   3.575
   68PPPE   C2642744   5.949   3.523   3.667
   68PPPE   H6R42745   5.850   3.481   3.637
   68PPPE   H6S42746   5.938   3.631   3.686
   68PPPE   C2742747   5.999   3.460   3.796
   68PPPE   H7R42748   6.098   3.504   3.821
   68PPPE   H7S42749   6.016   3.351   3.783
   68PPPE   C2842750   5.905   3.483   3.918
   68PPPE   H8R42751   5.916   3.591   3.943
   68PPPE   H8S42752   5.950   3.429   4.004
   68PPPE   C2942753   5.757   3.454   3.903
   68PPPE   H9142754   5.709   3.504   3.818
   68PPPE  C21042755   5.679   3.377   3.983
   68PPPE  H10142756   5.572   3.367   3.958
   68PPPE  C21142757   5.722   3.301   4.105
   68PPPE  H11R42758   5.829   3.323   4.127
   68PPPE  H11S42759   5.717   3.192   4.085
   68PPPE  C21242760   5.651   3.325   4.241
   68PPPE  H12R42761   5.547   3.287   4.238
   68PPPE  H12S42762   5.649   3.434   4.263
   68PPPE  C21342763   5.732   3.255   4.352
   68PPPE  H13R42764   5.833   3.300   4.353
   68PPPE  H13S42765   5.742   3.147   4.325
   68PPPE  C21442766   5.681   3.264   4.497
   68PPPE  H14R42767   5.745   3.198   4.558
   68PPPE  H14S42768   5.577   3.224   4.502
   68PPPE  C21542769   5.685   3.404   4.557
   68PPPE  H15R42770   5.672   3.393   4.667
   68PPPE  H15S42771   5.598   3.460   4.517
   68PPPE  C21642772   5.811   3.487   4.537
   68PPPE  H16R42773   5.900   3.432   4.575
   68PPPE  H16S42774   5.825   3.510   4.429
   68PPPE  H16T42775   5.803   3.583   4.592
   68PPPE   C3342776   5.778   3.798   3.469
   68PPPE   H3X42777   5.824   3.697   3.476
   68PPPE   H3Y42778   5.668   3.783   3.477
   68PPPE   C3442779   5.821   3.886   3.585
   68PPPE   H4X42780   5.790   3.991   3.568
   68PPPE   H4Y42781   5.932   3.884   3.594
   68PPPE   C3542782   5.760   3.841   3.719
   68PPPE   H5X42783   5.778   3.732   3.733
   68PPPE   H5Y42784   5.649   3.852   3.717
   68PPPE   C3642785   5.816   3.919   3.837
   68PPPE   H6X42786   5.756   4.012   3.847
   68PPPE   H6Y42787   5.921   3.949   3.818
   68PPPE   C3742788   5.811   3.835   3.964
   68PPPE   H7X42789   5.911   3.790   3.981
   68PPPE   H7Y42790   5.739   3.752   3.950
   68PPPE   C3842791   5.766   3.912   4.089
   68PPPE   H8X42792   5.709   3.842   4.153
   68PPPE   H8Y42793   5.694   3.991   4.058
   68PPPE   C3942794   5.881   3.964   4.174
   68PPPE   H9X42795   5.843   4.037   4.249
   68PPPE   H9Y42796   5.956   4.016   4.110
   68PPPE  C31042797   5.947   3.848   4.249
   68PPPE  H10X42798   5.973   3.768   4.177
   68PPPE  H10Y42799   5.872   3.804   4.320
   68PPPE  C31142800   6.074   3.883   4.326
   68PPPE  H11X42801   6.047   3.934   4.421
   68PPPE  H11Y42802   6.136   3.953   4.266
   68PPPE  C31242803   6.158   3.757   4.358
   68PPPE  H12X42804   6.242   3.785   4.424
   68PPPE  H12Y42805   6.202   3.719   4.262
   68PPPE  C31342806   6.075   3.644   4.420
   68PPPE  H13X42807   5.996   3.615   4.348
   68PPPE  H13Y42808   6.024   3.681   4.512
   68PPPE  C31442809   6.153   3.516   4.452
   68PPPE  H14X42810   6.237   3.503   4.380
   68PPPE  H14Y42811   6.084   3.430   4.438
   68PPPE  C31542812   6.205   3.508   4.596
   68PPPE  H15X42813   6.249   3.408   4.612
   68PPPE  H15Y42814   6.119   3.517   4.667
   68PPPE  C31642815   6.309   3.614   4.631
   68PPPE  H16X42816   6.392   3.614   4.557
   68PPPE  H16Y42817   6.263   3.715   4.632
   68PPPE  H16Z42818   6.352   3.595   4.733
   69PPPE     N42819   5.114   2.129   2.746
   69PPPE   HN142820   5.106   2.163   2.844
   69PPPE   HN242821   5.181   2.050   2.744
   69PPPE   HN342822   5.149   2.207   2.687
   69PPPE   C1242823   4.979   2.086   2.693
   69PPPE  H12A42824   4.945   1.999   2.753
   69PPPE  H12B42825   4.993   2.054   2.588
   69PPPE   C1142826   4.874   2.200   2.700
   69PPPE  H11A42827   4.861   2.230   2.807
   69PPPE  H11B42828   4.778   2.159   2.665
   69PPPE     P42829   4.818   2.440   2.617
   69PPPE   O1342830   4.857   2.526   2.503
   69PPPE   O1442831   4.676   2.405   2.620
   69PPPE   O1142832   4.848   2.516   2.750
   69PPPE   O1242833   4.913   2.312   2.620
   69PPPE    C142834   4.974   2.578   2.776
   69PPPE    HA42835   4.956   2.669   2.837
   69PPPE    HB42836   5.025   2.613   2.683
   69PPPE    C242837   5.069   2.486   2.855
   69PPPE    HS42838   5.079   2.392   2.797
   69PPPE   O2142839   5.013   2.463   2.986
   69PPPE   C2142840   5.047   2.349   3.045
   69PPPE   O2242841   5.104   2.256   2.990
   69PPPE   C2242842   4.996   2.352   3.190
   69PPPE   H2R42843   4.885   2.356   3.186
   69PPPE   H2S42844   5.032   2.446   3.236
   69PPPE    C342845   5.209   2.553   2.865
   69PPPE    HX42846   5.280   2.492   2.925
   69PPPE    HY42847   5.251   2.560   2.762
   69PPPE   O3142848   5.191   2.687   2.915
   69PPPE   C3142849   5.183   2.692   3.047
   69PPPE   O3242850   5.227   2.608   3.124
   69PPPE   C3242851   5.103   2.816   3.087
   69PPPE   H2X42852   5.094   2.883   2.998
   69PPPE   H2Y42853   5.156   2.869   3.168
   69PPPE   C2342854   5.039   2.234   3.282
   69PPPE   H3R42855   5.146   2.246   3.311
   69PPPE   H3S42856   5.030   2.139   3.226
   69PPPE   C2442857   4.952   2.220   3.408
   69PPPE   H4R42858   4.977   2.125   3.460
   69PPPE   H4S42859   4.846   2.210   3.375
   69PPPE   C2542860   4.960   2.335   3.512
   69PPPE   H5R42861   4.865   2.334   3.570
   69PPPE   H5S42862   4.968   2.434   3.462
   69PPPE   C2642863   5.074   2.316   3.613
   69PPPE   H6R42864   5.172   2.327   3.561
   69PPPE   H6S42865   5.069   2.213   3.653
   69PPPE   C2742866   5.071   2.412   3.735
   69PPPE   H7R42867   4.972   2.407   3.785
   69PPPE   H7S42868   5.086   2.517   3.700
   69PPPE   C2842869   5.181   2.375   3.837
   69PPPE   H8R42870   5.274   2.367   3.776
   69PPPE   H8S42871   5.158   2.273   3.874
   69PPPE   C2942872   5.212   2.470   3.948
   69PPPE   H9142873   5.251   2.567   3.914
   69PPPE  C21042874   5.205   2.450   4.082
   69PPPE  H10142875   5.236   2.532   4.148
   69PPPE  C21142876   5.162   2.326   4.156
   69PPPE  H11R42877   5.249   2.279   4.207
   69PPPE  H11S42878   5.119   2.249   4.089
   69PPPE  C21242879   5.055   2.356   4.264
   69PPPE  H12R42880   5.017   2.261   4.306
   69PPPE  H12S42881   4.969   2.407   4.215
   69PPPE  C21342882   5.103   2.443   4.382
   69PPPE  H13R42883   5.013   2.484   4.433
   69PPPE  H13S42884   5.161   2.531   4.344
   69PPPE  C21442885   5.187   2.369   4.487
   69PPPE  H14R42886   5.278   2.327   4.440
   69PPPE  H14S42887   5.128   2.284   4.528
   69PPPE  C21542888   5.227   2.462   4.603
   69PPPE  H15R42889   5.135   2.505   4.648
   69PPPE  H15S42890   5.288   2.545   4.563
   69PPPE  C21642891   5.305   2.393   4.715
   69PPPE  H16R42892   5.240   2.319   4.768
   69PPPE  H16S42893   5.393   2.339   4.674
   69PPPE  H16T42894   5.340   2.467   4.790
   69PPPE   C3342895   4.963   2.777   3.138
   69PPPE   H3X42896   4.914   2.708   3.066
   69PPPE   H3Y42897   4.900   2.869   3.145
   69PPPE   C3442898   4.968   2.712   3.278
   69PPPE   H4X42899   5.058   2.647   3.285
   69PPPE   H4Y42900   4.880   2.645   3.290
   69PPPE   C3542901   4.974   2.811   3.393
   69PPPE   H5X42902   4.884   2.877   3.391
   69PPPE   H5Y42903   5.062   2.877   3.382
   69PPPE   C3642904   4.983   2.735   3.526
   69PPPE   H6X42905   5.056   2.653   3.513
   69PPPE   H6Y42906   4.885   2.689   3.549
   69PPPE   C3742907   5.031   2.820   3.644
   69PPPE   H7X42908   5.060   2.922   3.611
   69PPPE   H7Y42909   5.122   2.772   3.686
   69PPPE   C3842910   4.927   2.830   3.756
   69PPPE   H8X42911   4.880   2.730   3.774
   69PPPE   H8Y42912   4.846   2.900   3.726
   69PPPE   C3942913   4.986   2.879   3.889
   69PPPE   H9X42914   4.902   2.907   3.957
   69PPPE   H9Y42915   5.048   2.969   3.872
   69PPPE  C31042916   5.069   2.772   3.962
   69PPPE  H10X42917   5.159   2.752   3.899
   69PPPE  H10Y42918   5.011   2.678   3.969
   69PPPE  C31142919   5.116   2.813   4.102
   69PPPE  H11X42920   5.159   2.916   4.101
   69PPPE  H11Y42921   5.196   2.744   4.134
   69PPPE  C31242922   5.004   2.808   4.207
   69PPPE  H12X42923   4.949   2.712   4.197
   69PPPE  H12Y42924   4.933   2.891   4.186
   69PPPE  C31342925   5.054   2.820   4.351
   69PPPE  H13X42926   5.104   2.918   4.365
   69PPPE  H13Y42927   5.128   2.739   4.370
   69PPPE  C31442928   4.944   2.804   4.457
   69PPPE  H14X42929   4.883   2.714   4.434
   69PPPE  H14Y42930   4.878   2.893   4.454
   69PPPE  C31542931   4.998   2.792   4.601
   69PPPE  H15X42932   5.066   2.704   4.605
   69PPPE  H15Y42933   4.913   2.771   4.669
   69PPPE  C31642934   5.072   2.916   4.650
   69PPPE  H16X42935   5.006   3.005   4.646
   69PPPE  H16Y42936   5.106   2.902   4.755
   69PPPE  H16Z42937   5.162   2.936   4.587
   70PPPE     N42938   6.342   4.488   2.514
   70PPPE   HN142939   6.356   4.386   2.527
   70PPPE   HN242940   6.428   4.527   2.470
   70PPPE   HN342941   6.322   4.530   2.607
   70PPPE   C1242942   6.224   4.506   2.425
   70PPPE  H12A42943   6.257   4.498   2.319
   70PPPE  H12B42944   6.183   4.608   2.443
   70PPPE   C1142945   6.120   4.398   2.457
   70PPPE  H11A42946   6.157   4.300   2.420
   70PPPE  H11B42947   6.026   4.419   2.402
   70PPPE     P42948   5.989   4.479   2.667
   70PPPE   O1342949   5.967   4.594   2.576
   70PPPE   O1442950   5.875   4.391   2.697
   70PPPE   O1142951   6.067   4.529   2.795
   70PPPE   O1242952   6.100   4.389   2.599
   70PPPE    C142953   6.063   4.452   2.915
   70PPPE    HA42954   6.109   4.352   2.898
   70PPPE    HB42955   5.959   4.437   2.951
   70PPPE    C242956   6.147   4.522   3.026
   70PPPE    HS42957   6.189   4.443   3.092
   70PPPE   O2142958   6.067   4.615   3.103
   70PPPE   C2142959   5.989   4.555   3.193
   70PPPE   O2242960   5.982   4.434   3.210
   70PPPE   C2242961   5.915   4.659   3.278
   70PPPE   H2R42962   5.807   4.653   3.252
   70PPPE   H2S42963   5.953   4.760   3.253
   70PPPE    C342964   6.268   4.598   2.965
   70PPPE    HX42965   6.315   4.532   2.889
   70PPPE    HY42966   6.229   4.688   2.914
   70PPPE   O3142967   6.364   4.626   3.069
   70PPPE   C3142968   6.385   4.754   3.097
   70PPPE   O3242969   6.376   4.846   3.017
   70PPPE   C3242970   6.424   4.767   3.245
   70PPPE   H2X42971   6.521   4.715   3.261
   70PPPE   H2Y42972   6.438   4.876   3.263
   70PPPE   C2342973   5.935   4.632   3.429
   70PPPE   H3R42974   6.043   4.637   3.452
   70PPPE   H3S42975   5.901   4.529   3.455
   70PPPE   C2442976   5.861   4.732   3.520
   70PPPE   H4R42977   5.751   4.718   3.507
   70PPPE   H4S42978   5.886   4.836   3.490
   70PPPE   C2542979   5.896   4.715   3.669
   70PPPE   H5R42980   5.882   4.609   3.698
   70PPPE   H5S42981   5.826   4.776   3.730
   70PPPE   C2642982   6.039   4.759   3.701
   70PPPE   H6R42983   6.051   4.866   3.676
   70PPPE   H6S42984   6.111   4.702   3.637
   70PPPE   C2742985   6.082   4.736   3.846
   70PPPE   H7R42986   6.063   4.631   3.877
   70PPPE   H7S42987   6.021   4.802   3.913
   70PPPE   C2842988   6.232   4.766   3.860
   70PPPE   H8R42989   6.249   4.868   3.818
   70PPPE   H8S42990   6.283   4.696   3.790
   70PPPE   C2942991   6.297   4.754   3.995
   70PPPE   H9142992   6.381   4.683   3.997
   70PPPE  C21042993   6.271   4.819   4.109
   70PPPE  H10142994   6.334   4.794   4.196
   70PPPE  C21142995   6.168   4.924   4.139
   70PPPE  H11R42996   6.216   5.022   4.156
   70PPPE  H11S42997   6.096   4.937   4.056
   70PPPE  C21242998   6.092   4.883   4.266
   70PPPE  H12R42999   6.045   4.783   4.255
   70PPPE  H12S43000   6.010   4.957   4.282
   70PPPE  C21343001   6.179   4.885   4.393
   70PPPE  H13R43002   6.241   4.978   4.393
   70PPPE  H13S43003   6.249   4.798   4.393
   70PPPE  C21443004   6.097   4.882   4.523
   70PPPE  H14R43005   6.035   4.790   4.524
   70PPPE  H14S43006   6.028   4.970   4.524
   70PPPE  C21543007   6.186   4.887   4.648
   70PPPE  H15R43008   6.252   4.976   4.641
   70PPPE  H15S43009   6.251   4.797   4.648
   70PPPE  C21643010   6.107   4.892   4.778
   70PPPE  H16R43011   6.041   4.803   4.786
   70PPPE  H16S43012   6.175   4.895   4.865
   70PPPE  H16T43013   6.043   4.983   4.780
   70PPPE   C3343014   6.316   4.715   3.342
   70PPPE   H3X43015   6.217   4.753   3.312
   70PPPE   H3Y43016   6.336   4.756   3.444
   70PPPE   C3443017   6.311   4.561   3.355
   70PPPE   H4X43018   6.350   4.511   3.264
   70PPPE   H4Y43019   6.205   4.530   3.366
   70PPPE   C3543020   6.387   4.507   3.476
   70PPPE   H5X43021   6.345   4.553   3.568
   70PPPE   H5Y43022   6.493   4.538   3.467
   70PPPE   C3643023   6.381   4.354   3.486
   70PPPE   H6X43024   6.454   4.321   3.564
   70PPPE   H6Y43025   6.413   4.309   3.391
   70PPPE   C3743026   6.243   4.298   3.525
   70PPPE   H7X43027   6.251   4.187   3.532
   70PPPE   H7Y43028   6.167   4.321   3.447
   70PPPE   C3843029   6.194   4.350   3.661
   70PPPE   H8X43030   6.153   4.453   3.650
   70PPPE   H8Y43031   6.282   4.356   3.729
   70PPPE   C3943032   6.088   4.260   3.727
   70PPPE   H9X43033   6.131   4.159   3.743
   70PPPE   H9Y43034   6.001   4.249   3.658
   70PPPE  C31043035   6.037   4.314   3.862
   70PPPE  H10X43036   5.965   4.241   3.905
   70PPPE  H10Y43037   5.983   4.409   3.845
   70PPPE  C31143038   6.149   4.337   3.964
   70PPPE  H11X43039   6.219   4.416   3.929
   70PPPE  H11Y43040   6.207   4.243   3.977
   70PPPE  C31243041   6.096   4.381   4.101
   70PPPE  H12X43042   6.024   4.304   4.139
   70PPPE  H12Y43043   6.041   4.477   4.091
   70PPPE  C31343044   6.208   4.398   4.204
   70PPPE  H13X43045   6.280   4.475   4.169
   70PPPE  H13Y43046   6.263   4.302   4.215
   70PPPE  C31443047   6.155   4.440   4.342
   70PPPE  H14X43048   6.076   4.368   4.374
   70PPPE  H14Y43049   6.109   4.541   4.337
   70PPPE  C31543050   6.264   4.440   4.450
   70PPPE  H15X43051   6.344   4.512   4.419
   70PPPE  H15Y43052   6.310   4.339   4.452
   70PPPE  C31643053   6.214   4.477   4.589
   70PPPE  H16X43054   6.298   4.477   4.662
   70PPPE  H16Y43055   6.167   4.577   4.589
   70PPPE  H16Z43056   6.139   4.403   4.623
   71PPPE     N43057   2.211   3.929   2.922
   71PPPE   HN143058   2.216   4.001   2.998
   71PPPE   HN243059   2.263   3.843   2.950
   71PPPE   HN343060   2.255   3.966   2.836
   71PPPE   C1243061   2.070   3.894   2.884
   71PPPE  H12A43062   2.000   3.940   2.957
   71PPPE  H12B43063   2.061   3.783   2.888
   71PPPE   C1143064   2.039   3.940   2.740
   71PPPE  H11A43065   2.016   4.049   2.742
   71PPPE  H11B43066   1.948   3.890   2.702
   71PPPE     P43067   2.181   3.779   2.588
   71PPPE   O1343068   2.057   3.726   2.527
   71PPPE   O1443069   2.300   3.795   2.502
   71PPPE   O1143070   2.216   3.698   2.719
   71PPPE   O1243071   2.150   3.920   2.652
   71PPPE    C143072   2.351   3.676   2.761
   71PPPE    HA43073   2.402   3.772   2.784
   71PPPE    HB43074   2.410   3.626   2.681
   71PPPE    C243075   2.357   3.585   2.887
   71PPPE    HS43076   2.325   3.484   2.856
   71PPPE   O2143077   2.275   3.639   2.995
   71PPPE   C2143078   2.163   3.571   3.019
   71PPPE   O2243079   2.112   3.490   2.945
   71PPPE   C2243080   2.105   3.619   3.153
   71PPPE   H2R43081   1.995   3.626   3.141
   71PPPE   H2S43082   2.145   3.720   3.179
   71PPPE    C343083   2.502   3.573   2.940
   71PPPE    HX43084   2.502   3.490   3.014
   71PPPE    HY43085   2.571   3.546   2.858
   71PPPE   O3143086   2.541   3.699   2.999
   71PPPE   C3143087   2.613   3.684   3.111
   71PPPE   O3243088   2.687   3.590   3.135
   71PPPE   C3243089   2.573   3.796   3.207
   71PPPE   H2X43090   2.464   3.814   3.193
   71PPPE   H2Y43091   2.628   3.888   3.176
   71PPPE   C2343092   2.137   3.521   3.268
   71PPPE   H3R43093   2.245   3.525   3.292
   71PPPE   H3S43094   2.112   3.417   3.237
   71PPPE   C2443095   2.060   3.549   3.398
   71PPPE   H4R43096   1.952   3.532   3.380
   71PPPE   H4S43097   2.075   3.654   3.431
   71PPPE   C2543098   2.106   3.454   3.510
   71PPPE   H5R43099   2.207   3.484   3.545
   71PPPE   H5S43100   2.115   3.352   3.469
   71PPPE   C2643101   2.011   3.446   3.631
   71PPPE   H6R43102   2.051   3.369   3.700
   71PPPE   H6S43103   1.911   3.412   3.597
   71PPPE   C2743104   1.996   3.577   3.710
   71PPPE   H7R43105   1.947   3.653   3.645
   71PPPE   H7S43106   2.096   3.615   3.740
   71PPPE   C2843107   1.912   3.553   3.837
   71PPPE   H8R43108   1.969   3.484   3.903
   71PPPE   H8S43109   1.819   3.500   3.808
   71PPPE   C2943110   1.874   3.680   3.910
   71PPPE   H9143111   1.809   3.748   3.851
   71PPPE  C21043112   1.911   3.716   4.033
   71PPPE  H10143113   1.873   3.811   4.075
   71PPPE  C21143114   1.999   3.638   4.127
   71PPPE  H11R43115   2.098   3.618   4.082
   71PPPE  H11S43116   1.954   3.539   4.151
   71PPPE  C21243117   2.021   3.715   4.259
   71PPPE  H12R43118   1.924   3.739   4.306
   71PPPE  H12S43119   2.074   3.810   4.237
   71PPPE  C21343120   2.108   3.642   4.362
   71PPPE  H13R43121   2.129   3.714   4.444
   71PPPE  H13S43122   2.205   3.612   4.318
   71PPPE  C21443123   2.041   3.519   4.425
   71PPPE  H14R43124   2.027   3.442   4.347
   71PPPE  H14S43125   1.941   3.550   4.464
   71PPPE  C21543126   2.118   3.458   4.543
   71PPPE  H15R43127   2.224   3.441   4.514
   71PPPE  H15S43128   2.073   3.359   4.566
   71PPPE  C21643129   2.112   3.543   4.671
   71PPPE  H16R43130   2.161   3.641   4.657
   71PPPE  H16S43131   2.006   3.561   4.701
   71PPPE  H16T43132   2.163   3.490   4.755
   71PPPE   C3343133   2.598   3.765   3.355
   71PPPE   H3X43134   2.708   3.760   3.372
   71PPPE   H3Y43135   2.555   3.667   3.385
   71PPPE   C3443136   2.537   3.877   3.440
   71PPPE   H4X43137   2.427   3.868   3.444
   71PPPE   H4Y43138   2.563   3.973   3.391
   71PPPE   C3543139   2.594   3.884   3.582
   71PPPE   H5X43140   2.578   3.987   3.622
   71PPPE   H5Y43141   2.704   3.869   3.577
   71PPPE   C3643142   2.538   3.781   3.681
   71PPPE   H6X43143   2.623   3.726   3.726
   71PPPE   H6Y43144   2.474   3.707   3.627
   71PPPE   C3743145   2.456   3.845   3.793
   71PPPE   H7X43146   2.347   3.832   3.776
   71PPPE   H7Y43147   2.477   3.954   3.792
   71PPPE   C3843148   2.493   3.797   3.934
   71PPPE   H8X43149   2.604   3.791   3.943
   71PPPE   H8Y43150   2.451   3.697   3.954
   71PPPE   C3943151   2.443   3.898   4.038
   71PPPE   H9X43152   2.332   3.902   4.040
   71PPPE   H9Y43153   2.480   3.996   4.002
   71PPPE  C31043154   2.499   3.884   4.179
   71PPPE  H10X43155   2.519   3.988   4.214
   71PPPE  H10Y43156   2.597   3.831   4.177
   71PPPE  C31143157   2.406   3.821   4.283
   71PPPE  H11X43158   2.393   3.713   4.261
   71PPPE  H11Y43159   2.306   3.870   4.278
   71PPPE  C31243160   2.462   3.839   4.425
   71PPPE  H12X43161   2.482   3.947   4.443
   71PPPE  H12Y43162   2.558   3.785   4.433
   71PPPE  C31343163   2.369   3.793   4.538
   71PPPE  H13X43164   2.344   3.685   4.524
   71PPPE  H13Y43165   2.275   3.851   4.532
   71PPPE  C31443166   2.429   3.815   4.679
   71PPPE  H14X43167   2.348   3.806   4.754
   71PPPE  H14Y43168   2.469   3.918   4.683
   71PPPE  C31543169   2.540   3.716   4.716
   71PPPE  H15X43170   2.586   3.751   4.811
   71PPPE  H15Y43171   2.620   3.717   4.639
   71PPPE  C31643172   2.491   3.572   4.737
   71PPPE  H16X43173   2.411   3.569   4.814
   71PPPE  H16Y43174   2.451   3.530   4.642
   71PPPE  H16Z43175   2.574   3.507   4.773
   72PPPE     N43176   3.004   5.749   2.728
   72PPPE   HN143177   2.942   5.749   2.812
   72PPPE   HN243178   3.053   5.841   2.724
   72PPPE   HN343179   2.942   5.740   2.646
   72PPPE   C1243180   3.110   5.641   2.728
   72PPPE  H12A43181   3.059   5.545   2.706
   72PPPE  H12B43182   3.155   5.636   2.829
   72PPPE   C1143183   3.222   5.667   2.623
   72PPPE  H11A43184   3.179   5.685   2.523
   72PPPE  H11B43185   3.281   5.572   2.615
   72PPPE     P43186   3.288   5.920   2.626
   72PPPE   O1343187   3.281   5.927   2.477
   72PPPE   O1443188   3.165   5.959   2.698
   72PPPE   O1143189   3.415   5.996   2.679
   72PPPE   O1243190   3.314   5.769   2.664
   72PPPE    C143191   3.550   5.958   2.648
   72PPPE    HA43192   3.597   6.036   2.585
   72PPPE    HB43193   3.554   5.862   2.591
   72PPPE    C243194   3.640   5.939   2.775
   72PPPE    HS43195   3.735   5.889   2.743
   72PPPE   O2143196   3.573   5.859   2.873
   72PPPE   C2143197   3.570   5.730   2.849
   72PPPE   O2243198   3.624   5.674   2.755
   72PPPE   C2243199   3.487   5.659   2.957
   72PPPE   H2R43200   3.523   5.555   2.966
   72PPPE   H2S43201   3.383   5.658   2.919
   72PPPE    C343202   3.685   6.073   2.841
   72PPPE    HX43203   3.746   6.048   2.931
   72PPPE    HY43204   3.752   6.124   2.769
   72PPPE   O3143205   3.576   6.162   2.872
   72PPPE   C3143206   3.526   6.152   2.995
   72PPPE   O3243207   3.571   6.083   3.084
   72PPPE   C3243208   3.403   6.242   3.005
   72PPPE   H2X43209   3.339   6.219   2.917
   72PPPE   H2Y43210   3.436   6.348   2.999
   72PPPE   C2343211   3.488   5.728   3.097
   72PPPE   H3R43212   3.482   5.838   3.085
   72PPPE   H3S43213   3.583   5.706   3.150
   72PPPE   C2443214   3.367   5.688   3.182
   72PPPE   H4R43215   3.379   5.584   3.220
   72PPPE   H4S43216   3.277   5.690   3.117
   72PPPE   C2543217   3.341   5.784   3.299
   72PPPE   H5R43218   3.238   5.767   3.337
   72PPPE   H5S43219   3.345   5.889   3.262
   72PPPE   C2643220   3.438   5.768   3.417
   72PPPE   H6R43221   3.542   5.790   3.384
   72PPPE   H6S43222   3.434   5.662   3.450
   72PPPE   C2743223   3.400   5.859   3.535
   72PPPE   H7R43224   3.295   5.839   3.565
   72PPPE   H7S43225   3.404   5.964   3.497
   72PPPE   C2843226   3.493   5.848   3.656
   72PPPE   H8R43227   3.470   5.931   3.727
   72PPPE   H8S43228   3.598   5.863   3.623
   72PPPE   C2943229   3.476   5.715   3.723
   72PPPE   H9143230   3.553   5.640   3.698
   72PPPE  C21043231   3.384   5.684   3.816
   72PPPE  H10143232   3.380   5.581   3.855
   72PPPE  C21143233   3.279   5.772   3.877
   72PPPE  H11R43234   3.178   5.742   3.842
   72PPPE  H11S43235   3.294   5.878   3.849
   72PPPE  C21243236   3.285   5.759   4.030
   72PPPE  H12R43237   3.256   5.656   4.061
   72PPPE  H12S43238   3.209   5.827   4.075
   72PPPE  C21343239   3.422   5.791   4.094
   72PPPE  H13R43240   3.457   5.890   4.058
   72PPPE  H13S43241   3.499   5.718   4.061
   72PPPE  C21443242   3.415   5.787   4.247
   72PPPE  H14R43243   3.401   5.680   4.275
   72PPPE  H14S43244   3.324   5.841   4.281
   72PPPE  C21543245   3.537   5.840   4.321
   72PPPE  H15R43246   3.549   5.948   4.297
   72PPPE  H15S43247   3.628   5.788   4.287
   72PPPE  C21643248   3.523   5.826   4.473
   72PPPE  H16R43249   3.519   5.719   4.503
   72PPPE  H16S43250   3.609   5.873   4.526
   72PPPE  H16T43251   3.429   5.874   4.509
   72PPPE   C3343252   3.322   6.218   3.135
   72PPPE   H3X43253   3.315   6.109   3.155
   72PPPE   H3Y43254   3.218   6.254   3.120
   72PPPE   C3443255   3.380   6.289   3.259
   72PPPE   H4X43256   3.326   6.385   3.273
   72PPPE   H4Y43257   3.487   6.313   3.242
   72PPPE   C3543258   3.369   6.201   3.384
   72PPPE   H5X43259   3.449   6.124   3.377
   72PPPE   H5Y43260   3.271   6.150   3.384
   72PPPE   C3643261   3.382   6.279   3.516
   72PPPE   H6X43262   3.297   6.351   3.517
   72PPPE   H6Y43263   3.476   6.338   3.518
   72PPPE   C3743264   3.372   6.191   3.641
   72PPPE   H7X43265   3.470   6.140   3.657
   72PPPE   H7Y43266   3.294   6.113   3.627
   72PPPE   C3843267   3.334   6.269   3.768
   72PPPE   H8X43268   3.231   6.308   3.752
   72PPPE   H8Y43269   3.403   6.355   3.781
   72PPPE   C3943270   3.333   6.187   3.898
   72PPPE   H9X43271   3.306   6.081   3.877
   72PPPE   H9Y43272   3.253   6.227   3.964
   72PPPE  C31043273   3.465   6.196   3.976
   72PPPE  H10X43274   3.502   6.301   3.979
   72PPPE  H10Y43275   3.540   6.135   3.922
   72PPPE  C31143276   3.452   6.145   4.122
   72PPPE  H11X43277   3.549   6.102   4.151
   72PPPE  H11Y43278   3.375   6.064   4.123
   72PPPE  C31243279   3.411   6.249   4.226
   72PPPE  H12X43280   3.316   6.298   4.194
   72PPPE  H12Y43281   3.489   6.328   4.234
   72PPPE  C31343282   3.389   6.184   4.363
   72PPPE  H13X43283   3.487   6.153   4.406
   72PPPE  H13Y43284   3.328   6.092   4.351
   72PPPE  C31443285   3.315   6.274   4.464
   72PPPE  H14X43286   3.218   6.305   4.418
   72PPPE  H14Y43287   3.374   6.366   4.483
   72PPPE  C31543288   3.284   6.204   4.597
   72PPPE  H15X43289   3.235   6.106   4.576
   72PPPE  H15Y43290   3.212   6.266   4.655
   72PPPE  C31643291   3.407   6.178   4.686
   72PPPE  H16X43292   3.458   6.274   4.709
   72PPPE  H16Y43293   3.375   6.132   4.781
   72PPPE  H16Z43294   3.478   6.110   4.635
   73PPPE     N43295   2.581   5.291   2.463
   73PPPE   HN143296   2.567   5.340   2.373
   73PPPE   HN243297   2.656   5.341   2.515
   73PPPE   HN343298   2.612   5.193   2.451
   73PPPE   C1243299   2.463   5.300   2.557
   73PPPE  H12A43300   2.495   5.251   2.652
   73PPPE  H12B43301   2.378   5.243   2.514
   73PPPE   C1143302   2.423   5.447   2.588
   73PPPE  H11A43303   2.385   5.453   2.692
   73PPPE  H11B43304   2.338   5.474   2.522
   73PPPE     P43305   2.655   5.555   2.659
   73PPPE   O1343306   2.708   5.418   2.674
   73PPPE   O1443307   2.743   5.654   2.593
   73PPPE   O1143308   2.594   5.613   2.791
   73PPPE   O1243309   2.529   5.541   2.564
   73PPPE    C143310   2.487   5.709   2.784
   73PPPE    HA43311   2.392   5.655   2.806
   73PPPE    HB43312   2.473   5.754   2.683
   73PPPE    C243313   2.501   5.829   2.882
   73PPPE    HS43314   2.552   5.911   2.826
   73PPPE   O2143315   2.577   5.796   2.999
   73PPPE   C2143316   2.708   5.795   2.990
   73PPPE   O2243317   2.776   5.804   2.888
   73PPPE   C2243318   2.765   5.794   3.131
   73PPPE   H2R43319   2.701   5.860   3.193
   73PPPE   H2S43320   2.867   5.837   3.128
   73PPPE    C343321   2.360   5.882   2.926
   73PPPE    HX43322   2.369   5.993   2.932
   73PPPE    HY43323   2.284   5.861   2.847
   73PPPE   O3143324   2.318   5.837   3.056
   73PPPE   C3143325   2.267   5.715   3.065
   73PPPE   O3243326   2.239   5.642   2.971
   73PPPE   C3243327   2.247   5.680   3.212
   73PPPE   H2X43328   2.158   5.614   3.219
   73PPPE   H2Y43329   2.224   5.774   3.266
   73PPPE   C2343330   2.767   5.653   3.193
   73PPPE   H3R43331   2.849   5.592   3.148
   73PPPE   H3S43332   2.671   5.601   3.172
   73PPPE   C2443333   2.785   5.661   3.345
   73PPPE   H4R43334   2.705   5.726   3.387
   73PPPE   H4S43335   2.882   5.708   3.370
   73PPPE   C2543336   2.776   5.523   3.412
   73PPPE   H5R43337   2.858   5.458   3.377
   73PPPE   H5S43338   2.679   5.476   3.384
   73PPPE   C2643339   2.783   5.534   3.565
   73PPPE   H6R43340   2.708   5.609   3.599
   73PPPE   H6S43341   2.883   5.571   3.595
   73PPPE   C2743342   2.754   5.400   3.634
   73PPPE   H7R43343   2.828   5.325   3.598
   73PPPE   H7S43344   2.653   5.364   3.605
   73PPPE   C2843345   2.764   5.407   3.788
   73PPPE   H8R43346   2.868   5.433   3.815
   73PPPE   H8S43347   2.746   5.306   3.830
   73PPPE   C2943348   2.664   5.504   3.847
   73PPPE   H9143349   2.559   5.471   3.844
   73PPPE  C21043350   2.691   5.624   3.903
   73PPPE  H10143351   2.608   5.683   3.944
   73PPPE  C21143352   2.827   5.688   3.920
   73PPPE  H11R43353   2.833   5.780   3.858
   73PPPE  H11S43354   2.910   5.622   3.886
   73PPPE  C21243355   2.854   5.726   4.066
   73PPPE  H12R43356   2.777   5.798   4.101
   73PPPE  H12S43357   2.953   5.777   4.075
   73PPPE  C21343358   2.852   5.608   4.165
   73PPPE  H13R43359   2.936   5.538   4.143
   73PPPE  H13S43360   2.757   5.552   4.155
   73PPPE  C21443361   2.862   5.658   4.309
   73PPPE  H14R43362   2.786   5.737   4.325
   73PPPE  H14S43363   2.962   5.702   4.328
   73PPPE  C21543364   2.838   5.549   4.413
   73PPPE  H15R43365   2.757   5.481   4.378
   73PPPE  H15S43366   2.802   5.598   4.506
   73PPPE  C21643367   2.964   5.469   4.446
   73PPPE  H16R43368   2.940   5.382   4.511
   73PPPE  H16S43369   3.013   5.433   4.353
   73PPPE  H16T43370   3.037   5.534   4.502
   73PPPE   C3343371   2.373   5.613   3.271
   73PPPE   H3X43372   2.391   5.656   3.372
   73PPPE   H3Y43373   2.463   5.639   3.212
   73PPPE   C3443374   2.363   5.460   3.285
   73PPPE   H4X43375   2.456   5.424   3.334
   73PPPE   H4Y43376   2.358   5.414   3.184
   73PPPE   C3543377   2.243   5.410   3.368
   73PPPE   H5X43378   2.254   5.301   3.387
   73PPPE   H5Y43379   2.149   5.424   3.311
   73PPPE   C3643380   2.229   5.482   3.503
   73PPPE   H6X43381   2.229   5.592   3.488
   73PPPE   H6Y43382   2.318   5.457   3.565
   73PPPE   C3743383   2.100   5.449   3.578
   73PPPE   H7X43384   2.099   5.341   3.603
   73PPPE   H7Y43385   2.013   5.469   3.513
   73PPPE   C3843386   2.086   5.531   3.707
   73PPPE   H8X43387   1.994   5.499   3.760
   73PPPE   H8Y43388   2.074   5.639   3.683
   73PPPE   C3943389   2.206   5.515   3.802
   73PPPE   H9X43390   2.296   5.565   3.760
   73PPPE   H9Y43391   2.229   5.406   3.808
   73PPPE  C31043392   2.181   5.566   3.944
   73PPPE  H10X43393   2.250   5.511   4.011
   73PPPE  H10Y43394   2.077   5.541   3.976
   73PPPE  C31143395   2.208   5.716   3.960
   73PPPE  H11X43396   2.139   5.773   3.893
   73PPPE  H11Y43397   2.312   5.737   3.927
   73PPPE  C31243398   2.191   5.768   4.104
   73PPPE  H12X43399   2.084   5.766   4.132
   73PPPE  H12Y43400   2.225   5.873   4.108
   73PPPE  C31343401   2.270   5.685   4.207
   73PPPE  H13X43402   2.375   5.672   4.174
   73PPPE  H13Y43403   2.224   5.585   4.215
   73PPPE  C31443404   2.271   5.748   4.347
   73PPPE  H14X43405   2.168   5.780   4.373
   73PPPE  H14Y43406   2.335   5.839   4.347
   73PPPE  C31543407   2.319   5.650   4.454
   73PPPE  H15X43408   2.424   5.620   4.431
   73PPPE  H15Y43409   2.257   5.558   4.448
   73PPPE  C31643410   2.312   5.705   4.596
   73PPPE  H16X43411   2.331   5.625   4.671
   73PPPE  H16Y43412   2.388   5.785   4.611
   73PPPE  H16Z43413   2.211   5.747   4.617
   74PPPE     N43414   2.762   2.364   2.386
   74PPPE   HN143415   2.694   2.401   2.457
   74PPPE   HN243416   2.804   2.449   2.342
   74PPPE   HN343417   2.711   2.307   2.316
   74PPPE   C1243418   2.864   2.284   2.463
   74PPPE  H12A43419   2.964   2.309   2.423
   74PPPE  H12B43420   2.842   2.177   2.446
   74PPPE   C1143421   2.854   2.314   2.613
   74PPPE  H11A43422   2.875   2.422   2.633
   74PPPE  H11B43423   2.933   2.256   2.666
   74PPPE     P43424   2.608   2.374   2.692
   74PPPE   O1343425   2.612   2.467   2.576
   74PPPE   O1443426   2.486   2.293   2.707
   74PPPE   O1143427   2.650   2.449   2.825
   74PPPE   O1243428   2.728   2.273   2.664
   74PPPE    C143429   2.757   2.404   2.908
   74PPPE    HA43430   2.853   2.446   2.872
   74PPPE    HB43431   2.766   2.293   2.906
   74PPPE    C243432   2.739   2.447   3.058
   74PPPE    HS43433   2.645   2.505   3.066
   74PPPE   O2143434   2.856   2.525   3.094
   74PPPE   C2143435   2.839   2.627   3.177
   74PPPE   O2243436   2.735   2.656   3.233
   74PPPE   C2243437   2.970   2.713   3.186
   74PPPE   H2R43438   2.947   2.811   3.138
   74PPPE   H2S43439   3.047   2.665   3.122
   74PPPE    C343440   2.722   2.315   3.141
   74PPPE    HX43441   2.647   2.255   3.085
   74PPPE    HY43442   2.819   2.260   3.137
   74PPPE   O3143443   2.679   2.331   3.278
   74PPPE   C3143444   2.657   2.211   3.335
   74PPPE   O3243445   2.674   2.105   3.278
   74PPPE   C3243446   2.619   2.224   3.483
   74PPPE   H2X43447   2.713   2.224   3.542
   74PPPE   H2Y43448   2.561   2.133   3.510
   74PPPE   C2343449   3.027   2.736   3.329
   74PPPE   H3R43450   2.971   2.664   3.393
   74PPPE   H3S43451   2.998   2.837   3.366
   74PPPE   C2443452   3.180   2.714   3.349
   74PPPE   H4R43453   3.232   2.802   3.304
   74PPPE   H4S43454   3.215   2.625   3.293
   74PPPE   C2543455   3.232   2.699   3.497
   74PPPE   H5R43456   3.146   2.718   3.563
   74PPPE   H5S43457   3.303   2.782   3.516
   74PPPE   C2643458   3.302   2.565   3.542
   74PPPE   H6R43459   3.412   2.574   3.535
   74PPPE   H6S43460   3.274   2.481   3.476
   74PPPE   C2743461   3.263   2.531   3.689
   74PPPE   H7R43462   3.152   2.542   3.690
   74PPPE   H7S43463   3.305   2.612   3.752
   74PPPE   C2843464   3.293   2.394   3.762
   74PPPE   H8R43465   3.301   2.419   3.870
   74PPPE   H8S43466   3.397   2.366   3.733
   74PPPE   C2943467   3.204   2.270   3.755
   74PPPE   H9143468   3.236   2.203   3.674
   74PPPE  C21043469   3.093   2.228   3.823
   74PPPE  H10143470   3.050   2.131   3.792
   74PPPE  C21143471   3.012   2.289   3.936
   74PPPE  H11R43472   2.929   2.346   3.888
   74PPPE  H11S43473   3.071   2.363   3.995
   74PPPE  C21243474   2.936   2.196   4.036
   74PPPE  H12R43475   3.005   2.163   4.117
   74PPPE  H12S43476   2.899   2.105   3.983
   74PPPE  C21343477   2.814   2.268   4.097
   74PPPE  H13R43478   2.741   2.290   4.016
   74PPPE  H13S43479   2.850   2.366   4.135
   74PPPE  C21443480   2.737   2.201   4.214
   74PPPE  H14R43481   2.805   2.191   4.300
   74PPPE  H14S43482   2.700   2.100   4.186
   74PPPE  C21543483   2.618   2.290   4.255
   74PPPE  H15R43484   2.539   2.290   4.176
   74PPPE  H15S43485   2.662   2.392   4.257
   74PPPE  C21643486   2.555   2.274   4.393
   74PPPE  H16R43487   2.633   2.254   4.470
   74PPPE  H16S43488   2.503   2.367   4.424
   74PPPE  H16T43489   2.480   2.192   4.393
   74PPPE   C3343490   2.536   2.350   3.518
   74PPPE   H3X43491   2.433   2.339   3.477
   74PPPE   H3Y43492   2.581   2.440   3.471
   74PPPE   C3443493   2.530   2.374   3.669
   74PPPE   H4X43494   2.634   2.393   3.704
   74PPPE   H4Y43495   2.494   2.283   3.722
   74PPPE   C3543496   2.440   2.493   3.704
   74PPPE   H5X43497   2.334   2.462   3.688
   74PPPE   H5Y43498   2.462   2.576   3.634
   74PPPE   C3643499   2.457   2.548   3.847
   74PPPE   H6X43500   2.437   2.469   3.922
   74PPPE   H6Y43501   2.384   2.631   3.865
   74PPPE   C3743502   2.596   2.607   3.867
   74PPPE   H7X43503   2.620   2.673   3.780
   74PPPE   H7Y43504   2.665   2.520   3.866
   74PPPE   C3843505   2.618   2.687   3.997
   74PPPE   H8X43506   2.523   2.733   4.030
   74PPPE   H8Y43507   2.691   2.768   3.974
   74PPPE   C3943508   2.677   2.598   4.106
   74PPPE   H9X43509   2.781   2.569   4.080
   74PPPE   H9Y43510   2.614   2.506   4.102
   74PPPE  C31043511   2.673   2.654   4.250
   74PPPE  H10X43512   2.616   2.583   4.313
   74PPPE  H10Y43513   2.613   2.747   4.253
   74PPPE  C31143514   2.811   2.676   4.316
   74PPPE  H11X43515   2.794   2.735   4.410
   74PPPE  H11Y43516   2.877   2.737   4.250
   74PPPE  C31243517   2.883   2.546   4.358
   74PPPE  H12X43518   2.948   2.511   4.274
   74PPPE  H12Y43519   2.806   2.467   4.375
   74PPPE  C31343520   2.964   2.554   4.487
   74PPPE  H13X43521   2.900   2.584   4.573
   74PPPE  H13Y43522   3.041   2.634   4.478
   74PPPE  C31443523   3.032   2.422   4.524
   74PPPE  H14X43524   3.103   2.442   4.608
   74PPPE  H14Y43525   3.090   2.386   4.436
   74PPPE  C31543526   2.941   2.309   4.575
   74PPPE  H15X43527   2.985   2.212   4.542
   74PPPE  H15Y43528   2.840   2.316   4.530
   74PPPE  C31643529   2.930   2.307   4.727
   74PPPE  H16X43530   3.031   2.299   4.774
   74PPPE  H16Y43531   2.881   2.399   4.766
   74PPPE  H16Z43532   2.871   2.218   4.761
   75PPPE     N43533   3.496   1.768   2.392
   75PPPE   HN143534   3.519   1.792   2.294
   75PPPE   HN243535   3.538   1.840   2.455
   75PPPE   HN343536   3.541   1.678   2.420
   75PPPE   C1243537   3.351   1.771   2.431
   75PPPE  H12A43538   3.293   1.709   2.358
   75PPPE  H12B43539   3.317   1.876   2.424
   75PPPE   C1143540   3.333   1.720   2.576
   75PPPE  H11A43541   3.320   1.610   2.573
   75PPPE  H11B43542   3.239   1.761   2.619
   75PPPE     P43543   3.485   1.896   2.701
   75PPPE   O1343544   3.578   1.889   2.815
   75PPPE   O1443545   3.537   1.958   2.576
   75PPPE   O1143546   3.346   1.960   2.738
   75PPPE   O1243547   3.445   1.749   2.658
   75PPPE    C143548   3.273   1.925   2.858
   75PPPE    HA43549   3.312   1.834   2.908
   75PPPE    HB43550   3.168   1.903   2.828
   75PPPE    C243551   3.270   2.041   2.960
   75PPPE    HS43552   3.259   2.136   2.905
   75PPPE   O2143553   3.390   2.037   3.038
   75PPPE   C2143554   3.491   2.112   2.997
   75PPPE   O2243555   3.487   2.196   2.908
   75PPPE   C2243556   3.618   2.072   3.070
   75PPPE   H2R43557   3.694   2.051   2.991
   75PPPE   H2S43558   3.601   1.977   3.127
   75PPPE    C343559   3.146   2.034   3.056
   75PPPE    HX43560   3.133   2.134   3.102
   75PPPE    HY43561   3.055   2.021   2.991
   75PPPE   O3143562   3.150   1.925   3.151
   75PPPE   C3143563   3.199   1.963   3.271
   75PPPE   O3243564   3.237   2.074   3.299
   75PPPE   C3243565   3.196   1.850   3.372
   75PPPE   H2X43566   3.196   1.752   3.321
   75PPPE   H2Y43567   3.102   1.861   3.431
   75PPPE   C2343568   3.672   2.181   3.165
   75PPPE   H3R43569   3.654   2.283   3.124
   75PPPE   H3S43570   3.781   2.168   3.175
   75PPPE   C2443571   3.612   2.169   3.306
   75PPPE   H4R43572   3.632   2.066   3.341
   75PPPE   H4S43573   3.502   2.181   3.301
   75PPPE   C2543574   3.670   2.270   3.406
   75PPPE   H5R43575   3.652   2.373   3.367
   75PPPE   H5S43576   3.780   2.257   3.413
   75PPPE   C2643577   3.607   2.260   3.546
   75PPPE   H6R43578   3.498   2.277   3.535
   75PPPE   H6S43579   3.648   2.341   3.610
   75PPPE   C2743580   3.630   2.125   3.615
   75PPPE   H7R43581   3.737   2.113   3.643
   75PPPE   H7S43582   3.606   2.043   3.543
   75PPPE   C2843583   3.538   2.101   3.736
   75PPPE   H8R43584   3.529   1.992   3.752
   75PPPE   H8S43585   3.436   2.135   3.709
   75PPPE   C2943586   3.583   2.168   3.863
   75PPPE   H9143587   3.545   2.270   3.879
   75PPPE  C21043588   3.663   2.113   3.957
   75PPPE  H10143589   3.684   2.169   4.049
   75PPPE  C21143590   3.724   1.975   3.950
   75PPPE  H11R43591   3.835   1.981   3.950
   75PPPE  H11S43592   3.696   1.922   3.856
   75PPPE  C21243593   3.680   1.885   4.068
   75PPPE  H12R43594   3.664   1.782   4.030
   75PPPE  H12S43595   3.582   1.919   4.108
   75PPPE  C21343596   3.782   1.877   4.181
   75PPPE  H13R43597   3.803   1.979   4.221
   75PPPE  H13S43598   3.877   1.835   4.143
   75PPPE  C21443599   3.730   1.791   4.297
   75PPPE  H14R43600   3.688   1.696   4.259
   75PPPE  H14S43601   3.648   1.847   4.347
   75PPPE  C21543602   3.837   1.759   4.403
   75PPPE  H15R43603   3.883   1.854   4.436
   75PPPE  H15S43604   3.917   1.698   4.355
   75PPPE  C21643605   3.780   1.684   4.523
   75PPPE  H16R43606   3.858   1.668   4.601
   75PPPE  H16S43607   3.698   1.743   4.569
   75PPPE  H16T43608   3.739   1.586   4.492
   75PPPE   C3343609   3.317   1.863   3.469
   75PPPE   H3X43610   3.331   1.969   3.502
   75PPPE   H3Y43611   3.409   1.834   3.413
   75PPPE   C3443612   3.302   1.779   3.595
   75PPPE   H4X43613   3.404   1.757   3.634
   75PPPE   H4Y43614   3.254   1.681   3.569
   75PPPE   C3543615   3.222   1.850   3.705
   75PPPE   H5X43616   3.128   1.891   3.663
   75PPPE   H5Y43617   3.282   1.936   3.741
   75PPPE   C3643618   3.188   1.760   3.825
   75PPPE   H6X43619   3.107   1.689   3.796
   75PPPE   H6Y43620   3.148   1.824   3.905
   75PPPE   C3743621   3.308   1.679   3.877
   75PPPE   H7X43622   3.400   1.740   3.870
   75PPPE   H7Y43623   3.321   1.589   3.814
   75PPPE   C3843624   3.289   1.637   4.024
   75PPPE   H8X43625   3.352   1.548   4.046
   75PPPE   H8Y43626   3.183   1.609   4.042
   75PPPE   C3943627   3.330   1.750   4.120
   75PPPE   H9X43628   3.287   1.846   4.084
   75PPPE   H9Y43629   3.441   1.759   4.118
   75PPPE  C31043630   3.285   1.726   4.264
   75PPPE  H10X43631   3.317   1.625   4.296
   75PPPE  H10Y43632   3.174   1.728   4.269
   75PPPE  C31143633   3.342   1.828   4.365
   75PPPE  H11X43634   3.450   1.805   4.379
   75PPPE  H11Y43635   3.292   1.813   4.464
   75PPPE  C31243636   3.329   1.977   4.327
   75PPPE  H12X43637   3.221   2.003   4.318
   75PPPE  H12Y43638   3.378   1.999   4.230
   75PPPE  C31343639   3.393   2.065   4.436
   75PPPE  H13X43640   3.503   2.050   4.438
   75PPPE  H13Y43641   3.354   2.028   4.533
   75PPPE  C31443642   3.362   2.215   4.429
   75PPPE  H14X43643   3.264   2.233   4.379
   75PPPE  H14Y43644   3.440   2.267   4.370
   75PPPE  C31543645   3.355   2.273   4.572
   75PPPE  H15X43646   3.438   2.227   4.630
   75PPPE  H15Y43647   3.261   2.239   4.620
   75PPPE  C31643648   3.367   2.425   4.584
   75PPPE  H16X43649   3.359   2.456   4.691
   75PPPE  H16Y43650   3.464   2.462   4.544
   75PPPE  H16Z43651   3.285   2.477   4.530
   76PPPE     N43652   5.674   5.829   2.477
   76PPPE   HN143653   5.729   5.915   2.456
   76PPPE   HN243654   5.695   5.756   2.406
   76PPPE   HN343655   5.573   5.854   2.474
   76PPPE   C1243656   5.701   5.794   2.621
   76PPPE  H12A43657   5.802   5.749   2.628
   76PPPE  H12B43658   5.624   5.720   2.652
   76PPPE   C1143659   5.691   5.921   2.710
   76PPPE  H11A43660   5.793   5.965   2.718
   76PPPE  H11B43661   5.661   5.893   2.814
   76PPPE     P43662   5.447   6.001   2.662
   76PPPE   O1343663   5.383   6.117   2.597
   76PPPE   O1443664   5.422   5.870   2.599
   76PPPE   O1143665   5.422   5.999   2.819
   76PPPE   O1243666   5.605   6.022   2.656
   76PPPE    C143667   5.432   6.120   2.895
   76PPPE    HA43668   5.330   6.160   2.915
   76PPPE    HB43669   5.488   6.199   2.842
   76PPPE    C243670   5.503   6.101   3.033
   76PPPE    HS43671   5.593   6.038   3.016
   76PPPE   O2143672   5.411   6.039   3.127
   76PPPE   C2143673   5.468   5.971   3.226
   76PPPE   O2243674   5.588   5.950   3.236
   76PPPE   C2243675   5.359   5.926   3.323
   76PPPE   H2R43676   5.286   5.868   3.266
   76PPPE   H2S43677   5.308   6.017   3.363
   76PPPE    C343678   5.549   6.240   3.089
   76PPPE    HX43679   5.620   6.286   3.016
   76PPPE    HY43680   5.458   6.304   3.089
   76PPPE   O3143681   5.600   6.237   3.223
   76PPPE   C3143682   5.732   6.225   3.238
   76PPPE   O3243683   5.814   6.227   3.148
   76PPPE   C3243684   5.761   6.215   3.388
   76PPPE   H2X43685   5.708   6.126   3.426
   76PPPE   H2Y43686   5.718   6.305   3.436
   76PPPE   C2343687   5.411   5.839   3.441
   76PPPE   H3R43688   5.485   5.764   3.405
   76PPPE   H3S43689   5.324   5.782   3.483
   76PPPE   C2443690   5.471   5.920   3.557
   76PPPE   H4R43691   5.395   5.992   3.594
   76PPPE   H4S43692   5.558   5.978   3.521
   76PPPE   C2543693   5.516   5.830   3.674
   76PPPE   H5R43694   5.596   5.763   3.637
   76PPPE   H5S43695   5.431   5.767   3.709
   76PPPE   C2643696   5.571   5.910   3.794
   76PPPE   H6R43697   5.640   5.988   3.754
   76PPPE   H6S43698   5.631   5.843   3.859
   76PPPE   C2743699   5.462   5.977   3.879
   76PPPE   H7R43700   5.438   5.911   3.965
   76PPPE   H7S43701   5.370   5.988   3.819
   76PPPE   C2843702   5.504   6.117   3.931
   76PPPE   H8R43703   5.524   6.182   3.842
   76PPPE   H8S43704   5.600   6.107   3.986
   76PPPE   C2943705   5.397   6.178   4.017
   76PPPE   H9143706   5.293   6.155   3.986
   76PPPE  C21043707   5.416   6.254   4.127
   76PPPE  H10143708   5.329   6.289   4.183
   76PPPE  C21143709   5.550   6.294   4.184
   76PPPE  H11R43710   5.541   6.393   4.234
   76PPPE  H11S43711   5.626   6.306   4.105
   76PPPE  C21243712   5.605   6.192   4.287
   76PPPE  H12R43713   5.700   6.233   4.327
   76PPPE  H12S43714   5.630   6.097   4.235
   76PPPE  C21343715   5.512   6.160   4.405
   76PPPE  H13R43716   5.568   6.094   4.476
   76PPPE  H13S43717   5.424   6.102   4.370
   76PPPE  C21443718   5.463   6.283   4.483
   76PPPE  H14R43719   5.395   6.343   4.417
   76PPPE  H14S43720   5.550   6.347   4.507
   76PPPE  C21543721   5.388   6.249   4.612
   76PPPE  H15R43722   5.308   6.176   4.590
   76PPPE  H15S43723   5.339   6.342   4.650
   76PPPE  C21643724   5.479   6.195   4.723
   76PPPE  H16R43725   5.526   6.099   4.693
   76PPPE  H16S43726   5.561   6.267   4.747
   76PPPE  H16T43727   5.421   6.178   4.816
   76PPPE   C3343728   5.912   6.205   3.424
   76PPPE   H3X43729   5.969   6.282   3.367
   76PPPE   H3Y43730   5.950   6.105   3.392
   76PPPE   C3443731   5.940   6.225   3.573
   76PPPE   H4X43732   5.918   6.330   3.602
   76PPPE   H4Y43733   6.049   6.208   3.592
   76PPPE   C3543734   5.858   6.135   3.667
   76PPPE   H5X43735   5.889   6.029   3.653
   76PPPE   H5Y43736   5.750   6.143   3.641
   76PPPE   C3643737   5.871   6.173   3.815
   76PPPE   H6X43738   5.806   6.105   3.874
   76PPPE   H6Y43739   5.833   6.276   3.832
   76PPPE   C3743740   6.014   6.163   3.868
   76PPPE   H7X43741   6.079   6.238   3.816
   76PPPE   H7Y43742   6.054   6.062   3.845
   76PPPE   C3843743   6.026   6.186   4.019
   76PPPE   H8X43744   5.999   6.291   4.045
   76PPPE   H8Y43745   6.132   6.171   4.046
   76PPPE   C3943746   5.942   6.090   4.105
   76PPPE   H9X43747   5.921   5.997   4.049
   76PPPE   H9Y43748   5.845   6.138   4.130
   76PPPE  C31043749   6.018   6.053   4.233
   76PPPE  H10X43750   6.058   6.145   4.280
   76PPPE  H10Y43751   6.104   5.990   4.202
   76PPPE  C31143752   5.936   5.977   4.339
   76PPPE  H11X43753   5.857   6.044   4.377
   76PPPE  H11Y43754   6.003   5.952   4.424
   76PPPE  C31243755   5.871   5.847   4.287
   76PPPE  H12X43756   5.947   5.789   4.230
   76PPPE  H12Y43757   5.788   5.873   4.217
   76PPPE  C31343758   5.817   5.759   4.400
   76PPPE  H13X43759   5.903   5.722   4.462
   76PPPE  H13Y43760   5.765   5.671   4.358
   76PPPE  C31443761   5.721   5.833   4.495
   76PPPE  H14X43762   5.636   5.874   4.436
   76PPPE  H14Y43763   5.772   5.919   4.543
   76PPPE  C31543764   5.666   5.742   4.605
   76PPPE  H15X43765   5.750   5.703   4.665
   76PPPE  H15Y43766   5.617   5.655   4.556
   76PPPE  C31643767   5.566   5.813   4.697
   76PPPE  H16X43768   5.616   5.895   4.753
   76PPPE  H16Y43769   5.482   5.856   4.639
   76PPPE  H16Z43770   5.525   5.741   4.773
   77PPPE     N43771   1.934   2.770   2.401
   77PPPE   HN143772   1.830   2.781   2.393
   77PPPE   HN243773   1.970   2.706   2.328
   77PPPE   HN343774   1.956   2.726   2.493
   77PPPE   C1243775   2.008   2.901   2.405
   77PPPE  H12A43776   1.983   2.959   2.314
   77PPPE  H12B43777   2.117   2.877   2.405
   77PPPE   C1143778   1.974   2.979   2.534
   77PPPE  H11A43779   1.877   3.030   2.518
   77PPPE  H11B43780   2.050   3.059   2.550
   77PPPE     P43781   2.086   2.811   2.701
   77PPPE   O1343782   2.081   2.690   2.614
   77PPPE   O1443783   2.206   2.896   2.689
   77PPPE   O1143784   2.049   2.775   2.848
   77PPPE   O1243785   1.962   2.896   2.650
   77PPPE    C143786   1.939   2.830   2.921
   77PPPE    HA43787   1.895   2.750   2.985
   77PPPE    HB43788   1.858   2.867   2.855
   77PPPE    C243789   1.984   2.944   3.017
   77PPPE    HS43790   2.049   3.013   2.960
   77PPPE   O2143791   2.058   2.885   3.125
   77PPPE   C2143792   2.095   2.968   3.221
   77PPPE   O2243793   2.097   3.089   3.214
   77PPPE   C2243794   2.111   2.889   3.351
   77PPPE   H2R43795   2.035   2.807   3.349
   77PPPE   H2S43796   2.086   2.959   3.433
   77PPPE    C343797   1.859   3.023   3.068
   77PPPE    HX43798   1.892   3.122   3.108
   77PPPE    HY43799   1.794   3.042   2.979
   77PPPE   O3143800   1.787   2.947   3.167
   77PPPE   C3143801   1.702   3.016   3.241
   77PPPE   O3243802   1.671   3.132   3.223
   77PPPE   C3243803   1.647   2.930   3.354
   77PPPE   H2X43804   1.536   2.932   3.344
   77PPPE   H2Y43805   1.674   2.982   3.450
   77PPPE   C2343806   2.251   2.830   3.375
   77PPPE   H3R43807   2.329   2.905   3.348
   77PPPE   H3S43808   2.267   2.741   3.311
   77PPPE   C2443809   2.269   2.793   3.523
   77PPPE   H4R43810   2.265   2.887   3.582
   77PPPE   H4S43811   2.370   2.749   3.538
   77PPPE   C2543812   2.161   2.697   3.576
   77PPPE   H5R43813   2.180   2.594   3.539
   77PPPE   H5S43814   2.061   2.728   3.539
   77PPPE   C2643815   2.151   2.697   3.729
   77PPPE   H6R43816   2.198   2.788   3.771
   77PPPE   H6S43817   2.205   2.609   3.769
   77PPPE   C2743818   2.007   2.688   3.781
   77PPPE   H7R43819   1.961   2.598   3.735
   77PPPE   H7S43820   1.949   2.776   3.747
   77PPPE   C2843821   2.003   2.678   3.934
   77PPPE   H8R43822   2.022   2.778   3.977
   77PPPE   H8S43823   2.087   2.613   3.967
   77PPPE   C2943824   1.872   2.622   3.983
   77PPPE   H9143825   1.794   2.610   3.906
   77PPPE  C21043826   1.847   2.579   4.108
   77PPPE  H10143827   1.746   2.541   4.132
   77PPPE  C21143828   1.945   2.578   4.221
   77PPPE  H11R43829   2.050   2.590   4.186
   77PPPE  H11S43830   1.941   2.481   4.275
   77PPPE  C21243831   1.919   2.692   4.321
   77PPPE  H12R43832   1.910   2.786   4.263
   77PPPE  H12S43833   2.006   2.703   4.391
   77PPPE  C21343834   1.794   2.671   4.407
   77PPPE  H13R43835   1.710   2.637   4.342
   77PPPE  H13S43836   1.764   2.768   4.452
   77PPPE  C21443837   1.818   2.573   4.523
   77PPPE  H14R43838   1.901   2.611   4.587
   77PPPE  H14S43839   1.850   2.474   4.481
   77PPPE  C21543840   1.694   2.552   4.610
   77PPPE  H15R43841   1.667   2.649   4.657
   77PPPE  H15S43842   1.719   2.481   4.691
   77PPPE  C21643843   1.573   2.500   4.532
   77PPPE  H16R43844   1.541   2.572   4.454
   77PPPE  H16S43845   1.599   2.404   4.483
   77PPPE  H16T43846   1.488   2.483   4.601
   77PPPE   C3343847   1.693   2.783   3.361
   77PPPE   H3X43848   1.791   2.777   3.412
   77PPPE   H3Y43849   1.706   2.742   3.259
   77PPPE   C3443850   1.590   2.694   3.432
   77PPPE   H4X43851   1.631   2.591   3.439
   77PPPE   H4Y43852   1.499   2.690   3.367
   77PPPE   C3543853   1.543   2.738   3.571
   77PPPE   H5X43854   1.481   2.658   3.615
   77PPPE   H5Y43855   1.479   2.829   3.563
   77PPPE   C3643856   1.659   2.767   3.667
   77PPPE   H6X43857   1.709   2.862   3.638
   77PPPE   H6Y43858   1.733   2.686   3.660
   77PPPE   C3743859   1.616   2.777   3.815
   77PPPE   H7X43860   1.708   2.805   3.872
   77PPPE   H7Y43861   1.584   2.676   3.851
   77PPPE   C3843862   1.507   2.879   3.848
   77PPPE   H8X43863   1.413   2.854   3.793
   77PPPE   H8Y43864   1.540   2.979   3.811
   77PPPE   C3943865   1.475   2.891   3.999
   77PPPE   H9X43866   1.414   2.803   4.030
   77PPPE   H9Y43867   1.413   2.981   4.016
   77PPPE  C31043868   1.598   2.898   4.091
   77PPPE  H10X43869   1.656   2.803   4.085
   77PPPE  H10Y43870   1.564   2.908   4.197
   77PPPE  C31143871   1.690   3.016   4.057
   77PPPE  H11X43872   1.636   3.110   4.084
   77PPPE  H11Y43873   1.709   3.016   3.948
   77PPPE  C31243874   1.827   3.017   4.125
   77PPPE  H12X43875   1.886   3.103   4.085
   77PPPE  H12Y43876   1.882   2.924   4.099
   77PPPE  C31343877   1.820   3.032   4.278
   77PPPE  H13X43878   1.767   2.943   4.319
   77PPPE  H13Y43879   1.759   3.121   4.304
   77PPPE  C31443880   1.959   3.043   4.341
   77PPPE  H14X43881   2.005   3.142   4.318
   77PPPE  H14Y43882   2.025   2.965   4.297
   77PPPE  C31543883   1.958   3.023   4.493
   77PPPE  H15X43884   1.888   2.940   4.517
   77PPPE  H15Y43885   1.918   3.114   4.543
   77PPPE  C31643886   2.095   2.987   4.550
   77PPPE  H16X43887   2.136   2.897   4.500
   77PPPE  H16Y43888   2.167   3.071   4.535
   77PPPE  H16Z43889   2.088   2.966   4.660
   78PPPE     N43890   6.232   5.724   2.628
   78PPPE   HN143891   6.273   5.810   2.670
   78PPPE   HN243892   6.310   5.664   2.593
   78PPPE   HN343893   6.175   5.755   2.548
   78PPPE   C1243894   6.159   5.635   2.725
   78PPPE  H12A43895   6.080   5.582   2.668
   78PPPE  H12B43896   6.113   5.698   2.804
   78PPPE   C1143897   6.260   5.534   2.780
   78PPPE  H11A43898   6.205   5.455   2.837
   78PPPE  H11B43899   6.326   5.584   2.855
   78PPPE     P43900   6.307   5.346   2.604
   78PPPE   O1343901   6.183   5.368   2.526
   78PPPE   O1443902   6.427   5.301   2.529
   78PPPE   O1143903   6.283   5.245   2.723
   78PPPE   O1243904   6.342   5.482   2.675
   78PPPE    C143905   6.380   5.238   2.828
   78PPPE    HA43906   6.423   5.337   2.855
   78PPPE    HB43907   6.465   5.173   2.797
   78PPPE    C243908   6.325   5.178   2.962
   78PPPE    HS43909   6.268   5.087   2.934
   78PPPE   O2143910   6.240   5.274   3.028
   78PPPE   C2143911   6.173   5.222   3.130
   78PPPE   O2243912   6.160   5.103   3.153
   78PPPE   C2243913   6.118   5.333   3.219
   78PPPE   H2R43914   6.011   5.311   3.242
   78PPPE   H2S43915   6.123   5.429   3.164
   78PPPE    C343916   6.444   5.136   3.054
   78PPPE    HX43917   6.404   5.084   3.142
   78PPPE    HY43918   6.507   5.061   2.999
   78PPPE   O3143919   6.521   5.250   3.097
   78PPPE   C3143920   6.630   5.283   3.031
   78PPPE   O3243921   6.672   5.228   2.931
   78PPPE   C3243922   6.694   5.408   3.095
   78PPPE   H2X43923   6.634   5.496   3.063
   78PPPE   H2Y43924   6.796   5.418   3.051
   78PPPE   C2343925   6.198   5.346   3.351
   78PPPE   H3R43926   6.173   5.443   3.400
   78PPPE   H3S43927   6.307   5.349   3.329
   78PPPE   C2443928   6.170   5.234   3.453
   78PPPE   H4R43929   6.188   5.135   3.406
   78PPPE   H4S43930   6.064   5.238   3.484
   78PPPE   C2543931   6.259   5.246   3.578
   78PPPE   H5R43932   6.238   5.343   3.629
   78PPPE   H5S43933   6.365   5.246   3.546
   78PPPE   C2643934   6.239   5.131   3.679
   78PPPE   H6R43935   6.265   5.035   3.627
   78PPPE   H6S43936   6.131   5.125   3.707
   78PPPE   C2743937   6.325   5.144   3.806
   78PPPE   H7R43938   6.431   5.157   3.775
   78PPPE   H7S43939   6.319   5.051   3.865
   78PPPE   C2843940   6.286   5.260   3.899
   78PPPE   H8R43941   6.306   5.357   3.848
   78PPPE   H8S43942   6.354   5.255   3.987
   78PPPE   C2943943   6.143   5.253   3.947
   78PPPE   H9143944   6.096   5.154   3.943
   78PPPE  C21043945   6.074   5.357   3.998
   78PPPE  H10143946   5.971   5.341   4.032
   78PPPE  C21143947   6.127   5.497   4.016
   78PPPE  H11R43948   6.043   5.568   4.032
   78PPPE  H11S43949   6.181   5.530   3.925
   78PPPE  C21243950   6.223   5.508   4.136
   78PPPE  H12R43951   6.266   5.610   4.137
   78PPPE  H12S43952   6.307   5.437   4.125
   78PPPE  C21343953   6.154   5.484   4.273
   78PPPE  H13R43954   6.107   5.383   4.273
   78PPPE  H13S43955   6.074   5.560   4.286
   78PPPE  C21443956   6.253   5.491   4.389
   78PPPE  H14R43957   6.323   5.575   4.373
   78PPPE  H14S43958   6.313   5.398   4.391
   78PPPE  C21543959   6.184   5.510   4.525
   78PPPE  H15R43960   6.113   5.426   4.542
   78PPPE  H15S43961   6.124   5.604   4.521
   78PPPE  C21643962   6.281   5.518   4.642
   78PPPE  H16R43963   6.359   5.595   4.622
   78PPPE  H16S43964   6.229   5.547   4.736
   78PPPE  H16T43965   6.332   5.421   4.660
   78PPPE   C3343966   6.705   5.408   3.252
   78PPPE   H3X43967   6.760   5.500   3.280
   78PPPE   H3Y43968   6.764   5.321   3.287
   78PPPE   C3443969   6.568   5.412   3.321
   78PPPE   H4X43970   6.522   5.311   3.320
   78PPPE   H4Y43971   6.502   5.481   3.264
   78PPPE   C3543972   6.569   5.459   3.467
   78PPPE   H5X43973   6.464   5.480   3.497
   78PPPE   H5Y43974   6.624   5.556   3.476
   78PPPE   C3643975   6.625   5.357   3.568
   78PPPE   H6X43976   6.734   5.343   3.551
   78PPPE   H6Y43977   6.578   5.257   3.552
   78PPPE   C3743978   6.597   5.403   3.712
   78PPPE   H7X43979   6.488   5.396   3.731
   78PPPE   H7Y43980   6.624   5.511   3.720
   78PPPE   C3843981   6.673   5.327   3.820
   78PPPE   H8X43982   6.782   5.333   3.799
   78PPPE   H8Y43983   6.644   5.220   3.819
   78PPPE   C3943984   6.646   5.387   3.959
   78PPPE   H9X43985   6.538   5.382   3.984
   78PPPE   H9Y43986   6.674   5.495   3.957
   78PPPE  C31043987   6.728   5.321   4.071
   78PPPE  H10X43988   6.733   5.390   4.158
   78PPPE  H10Y43989   6.831   5.305   4.033
   78PPPE  C31143990   6.672   5.186   4.120
   78PPPE  H11X43991   6.757   5.127   4.160
   78PPPE  H11Y43992   6.629   5.131   4.035
   78PPPE  C31243993   6.568   5.198   4.233
   78PPPE  H12X43994   6.515   5.101   4.241
   78PPPE  H12Y43995   6.493   5.276   4.208
   78PPPE  C31343996   6.632   5.228   4.370
   78PPPE  H13X43997   6.669   5.333   4.372
   78PPPE  H13Y43998   6.720   5.161   4.385
   78PPPE  C31443999   6.534   5.205   4.487
   78PPPE  H14X44000   6.500   5.099   4.485
   78PPPE  H14Y44001   6.444   5.268   4.472
   78PPPE  C31544002   6.592   5.236   4.625
   78PPPE  H15X44003   6.679   5.170   4.645
   78PPPE  H15Y44004   6.515   5.212   4.701
   78PPPE  C31644005   6.636   5.382   4.643
   78PPPE  H16X44006   6.659   5.403   4.750
   78PPPE  H16Y44007   6.727   5.404   4.583
   78PPPE  H16Z44008   6.555   5.451   4.611
   79PPPE     N44009   6.739   4.268   2.528
   79PPPE   HN144010   6.747   4.234   2.626
   79PPPE   HN244011   6.758   4.370   2.522
   79PPPE   HN344012   6.642   4.249   2.495
   79PPPE   C1244013   6.837   4.194   2.441
   79PPPE  H12A44014   6.939   4.231   2.467
   79PPPE  H12B44015   6.815   4.219   2.335
   79PPPE   C1144016   6.828   4.043   2.466
   79PPPE  H11A44017   6.903   3.990   2.403
   79PPPE  H11B44018   6.729   4.006   2.433
   79PPPE     P44019   6.748   3.950   2.695
   79PPPE   O1344020   6.628   4.037   2.685
   79PPPE   O1444021   6.736   3.810   2.648
   79PPPE   O1144022   6.815   3.958   2.837
   79PPPE   O1244023   6.857   4.017   2.603
   79PPPE    C144024   6.952   3.918   2.854
   79PPPE    HA44025   7.014   3.939   2.765
   79PPPE    HB44026   6.957   3.809   2.877
   79PPPE    C244027   7.019   3.994   2.972
   79PPPE    HS44028   7.129   3.983   2.958
   79PPPE   O2144029   6.981   3.929   3.094
   79PPPE   C2144030   7.036   3.976   3.205
   79PPPE   O2244031   7.130   4.053   3.210
   79PPPE   C2244032   6.963   3.915   3.325
   79PPPE   H2R44033   7.009   3.952   3.418
   79PPPE   H2S44034   6.979   3.805   3.318
   79PPPE    C344035   6.987   4.147   2.970
   79PPPE    HX44036   7.068   4.200   3.025
   79PPPE    HY44037   6.993   4.181   2.865
   79PPPE   O3144038   6.861   4.177   3.033
   79PPPE   C3144039   6.771   4.246   2.967
   79PPPE   O3244040   6.780   4.286   2.852
   79PPPE   C3244041   6.651   4.271   3.061
   79PPPE   H2X44042   6.624   4.175   3.108
   79PPPE   H2Y44043   6.567   4.301   2.993
   79PPPE   C2344044   6.811   3.944   3.322
   79PPPE   H3R44045   6.775   3.957   3.219
   79PPPE   H3S44046   6.789   4.039   3.375
   79PPPE   C2444047   6.728   3.831   3.384
   79PPPE   H4R44048   6.742   3.741   3.319
   79PPPE   H4S44049   6.620   3.859   3.379
   79PPPE   C2544050   6.763   3.794   3.528
   79PPPE   H5R44051   6.863   3.745   3.532
   79PPPE   H5S44052   6.689   3.719   3.563
   79PPPE   C2644053   6.763   3.912   3.625
   79PPPE   H6R44054   6.674   3.976   3.608
   79PPPE   H6S44055   6.853   3.974   3.608
   79PPPE   C2744056   6.761   3.863   3.770
   79PPPE   H7R44057   6.821   3.770   3.780
   79PPPE   H7S44058   6.656   3.836   3.796
   79PPPE   C2844059   6.812   3.967   3.872
   79PPPE   H8R44060   6.772   3.937   3.970
   79PPPE   H8S44061   6.766   4.066   3.849
   79PPPE   C2944062   6.962   3.978   3.875
   79PPPE   H9144063   7.006   4.036   3.793
   79PPPE  C21044064   7.047   3.924   3.966
   79PPPE  H10144065   7.154   3.945   3.954
   79PPPE  C21144066   7.015   3.839   4.087
   79PPPE  H11R44067   7.112   3.798   4.124
   79PPPE  H11S44068   6.955   3.750   4.057
   79PPPE  C21244069   6.948   3.907   4.209
   79PPPE  H12R44070   6.978   4.014   4.212
   79PPPE  H12S44071   6.991   3.861   4.300
   79PPPE  C21344072   6.795   3.891   4.215
   79PPPE  H13R44073   6.771   3.811   4.142
   79PPPE  H13S44074   6.744   3.983   4.179
   79PPPE  C21444075   6.734   3.848   4.351
   79PPPE  H14R44076   6.798   3.773   4.401
   79PPPE  H14S44077   6.636   3.800   4.330
   79PPPE  C21544078   6.704   3.961   4.448
   79PPPE  H15R44079   6.659   4.045   4.391
   79PPPE  H15S44080   6.800   3.994   4.493
   79PPPE  C21644081   6.604   3.925   4.559
   79PPPE  H16R44082   6.500   3.923   4.519
   79PPPE  H16S44083   6.626   3.824   4.601
   79PPPE  H16T44084   6.609   3.999   4.641
   79PPPE   C3344085   6.671   4.382   3.167
   79PPPE   H3X44086   6.569   4.419   3.191
   79PPPE   H3Y44087   6.728   4.469   3.127
   79PPPE   C3444088   6.730   4.335   3.301
   79PPPE   H4X44089   6.695   4.232   3.323
   79PPPE   H4Y44090   6.689   4.400   3.381
   79PPPE   C3544091   6.884   4.342   3.312
   79PPPE   H5X44092   6.916   4.448   3.299
   79PPPE   H5Y44093   6.929   4.283   3.229
   79PPPE   C3644094   6.942   4.288   3.444
   79PPPE   H6X44095   7.053   4.287   3.438
   79PPPE   H6Y44096   6.909   4.183   3.459
   79PPPE   C3744097   6.901   4.369   3.568
   79PPPE   H7X44098   6.790   4.374   3.573
   79PPPE   H7Y44099   6.940   4.472   3.558
   79PPPE   C3844100   6.951   4.307   3.700
   79PPPE   H8X44101   7.061   4.293   3.696
   79PPPE   H8Y44102   6.902   4.208   3.714
   79PPPE   C3944103   6.914   4.399   3.816
   79PPPE   H9X44104   6.803   4.408   3.819
   79PPPE   H9Y44105   6.954   4.500   3.793
   79PPPE  C31044106   6.967   4.360   3.957
   79PPPE  H10X44107   6.992   4.455   4.007
   79PPPE  H10Y44108   7.061   4.301   3.947
   79PPPE  C31144109   6.867   4.288   4.049
   79PPPE  H11X44110   6.892   4.180   4.050
   79PPPE  H11Y44111   6.763   4.297   4.009
   79PPPE  C31244112   6.868   4.341   4.193
   79PPPE  H12X44113   6.806   4.434   4.200
   79PPPE  H12Y44114   6.972   4.368   4.223
   79PPPE  C31344115   6.815   4.236   4.292
   79PPPE  H13X44116   6.898   4.165   4.311
   79PPPE  H13Y44117   6.731   4.181   4.243
   79PPPE  C31444118   6.768   4.284   4.429
   79PPPE  H14X44119   6.834   4.365   4.467
   79PPPE  H14Y44120   6.784   4.201   4.502
   79PPPE  C31544121   6.621   4.324   4.439
   79PPPE  H15X44122   6.559   4.245   4.391
   79PPPE  H15Y44123   6.604   4.419   4.384
   79PPPE  C31644124   6.577   4.338   4.585
   79PPPE  H16X44125   6.467   4.334   4.595
   79PPPE  H16Y44126   6.619   4.255   4.646
   79PPPE  H16Z44127   6.613   4.434   4.629
   80PPPE     N44128   6.843   3.075   2.595
   80PPPE   HN144129   6.925   3.085   2.659
   80PPPE   HN244130   6.871   3.059   2.497
   80PPPE   HN344131   6.786   3.161   2.598
   80PPPE   C1244132   6.750   2.965   2.641
   80PPPE  H12A44133   6.716   2.992   2.743
   80PPPE  H12B44134   6.808   2.870   2.646
   80PPPE   C1144135   6.628   2.949   2.545
   80PPPE  H11A44136   6.548   2.894   2.598
   80PPPE  H11B44137   6.660   2.885   2.460
   80PPPE     P44138   6.533   3.192   2.584
   80PPPE   O1344139   6.659   3.267   2.603
   80PPPE   O1444140   6.418   3.258   2.519
   80PPPE   O1144141   6.494   3.116   2.715
   80PPPE   O1244142   6.578   3.072   2.491
   80PPPE    C144143   6.367   3.130   2.778
   80PPPE    HA44144   6.302   3.045   2.749
   80PPPE    HB44145   6.315   3.224   2.751
   80PPPE    C244146   6.383   3.128   2.933
   80PPPE    HS44147   6.281   3.108   2.973
   80PPPE   O2144148   6.427   3.259   2.976
   80PPPE   C2144149   6.411   3.278   3.108
   80PPPE   O2244150   6.363   3.196   3.182
   80PPPE   C2244151   6.460   3.416   3.150
   80PPPE   H2R44152   6.370   3.474   3.179
   80PPPE   H2S44153   6.510   3.467   3.065
   80PPPE    C344154   6.476   3.010   2.978
   80PPPE    HX44155   6.413   2.944   3.042
   80PPPE    HY44156   6.505   2.951   2.889
   80PPPE   O3144157   6.596   3.057   3.045
   80PPPE   C3144158   6.618   3.007   3.167
   80PPPE   O3244159   6.570   2.904   3.209
   80PPPE   C3244160   6.700   3.110   3.245
   80PPPE   H2X44161   6.629   3.161   3.314
   80PPPE   H2Y44162   6.739   3.184   3.174
   80PPPE   C2344163   6.551   3.411   3.274
   80PPPE   H3R44164   6.653   3.381   3.242
   80PPPE   H3S44165   6.515   3.335   3.347
   80PPPE   C2444166   6.562   3.545   3.348
   80PPPE   H4R44167   6.568   3.626   3.273
   80PPPE   H4S44168   6.657   3.546   3.405
   80PPPE   C2544169   6.449   3.578   3.447
   80PPPE   H5R44170   6.355   3.595   3.391
   80PPPE   H5S44171   6.473   3.674   3.497
   80PPPE   C2644172   6.423   3.472   3.556
   80PPPE   H6R44173   6.385   3.378   3.510
   80PPPE   H6S44174   6.343   3.510   3.623
   80PPPE   C2744175   6.546   3.440   3.643
   80PPPE   H7R44176   6.576   3.532   3.697
   80PPPE   H7S44177   6.631   3.410   3.578
   80PPPE   C2844178   6.522   3.326   3.745
   80PPPE   H8R44179   6.617   3.311   3.799
   80PPPE   H8S44180   6.504   3.233   3.688
   80PPPE   C2944181   6.409   3.349   3.841
   80PPPE   H9144182   6.317   3.293   3.819
   80PPPE  C21044183   6.413   3.428   3.950
   80PPPE  H10144184   6.324   3.434   4.014
   80PPPE  C21144185   6.530   3.512   3.995
   80PPPE  H11R44186   6.498   3.617   4.009
   80PPPE  H11S44187   6.613   3.513   3.921
   80PPPE  C21244188   6.587   3.461   4.129
   80PPPE  H12R44189   6.631   3.360   4.113
   80PPPE  H12S44190   6.507   3.453   4.207
   80PPPE  C21344191   6.700   3.549   4.181
   80PPPE  H13R44192   6.657   3.652   4.189
   80PPPE  H13S44193   6.783   3.551   4.108
   80PPPE  C21444194   6.754   3.506   4.319
   80PPPE  H14R44195   6.735   3.397   4.334
   80PPPE  H14S44196   6.698   3.560   4.398
   80PPPE  C21544197   6.904   3.533   4.333
   80PPPE  H15R44198   6.925   3.638   4.306
   80PPPE  H15S44199   6.960   3.470   4.260
   80PPPE  C21644200   6.958   3.508   4.474
   80PPPE  H16R44201   6.973   3.399   4.493
   80PPPE  H16S44202   7.057   3.557   4.487
   80PPPE  H16T44203   6.889   3.547   4.551
   80PPPE   C3344204   6.817   3.055   3.328
   80PPPE   H3X44205   6.895   3.135   3.332
   80PPPE   H3Y44206   6.863   2.966   3.281
   80PPPE   C3444207   6.777   3.025   3.473
   80PPPE   H4X44208   6.718   2.931   3.476
   80PPPE   H4Y44209   6.712   3.107   3.511
   80PPPE   C3544210   6.900   3.014   3.564
   80PPPE   H5X44211   6.953   3.112   3.566
   80PPPE   H5Y44212   6.969   2.939   3.521
   80PPPE   C3644213   6.865   2.973   3.707
   80PPPE   H6X44214   6.959   2.964   3.766
   80PPPE   H6Y44215   6.818   2.872   3.703
   80PPPE   C3744216   6.770   3.067   3.781
   80PPPE   H7X44217   6.674   3.076   3.726
   80PPPE   H7Y44218   6.815   3.168   3.789
   80PPPE   C3844219   6.738   3.013   3.921
   80PPPE   H8X44220   6.833   3.003   3.978
   80PPPE   H8Y44221   6.693   2.912   3.910
   80PPPE   C3944222   6.641   3.098   4.002
   80PPPE   H9X44223   6.547   3.113   3.945
   80PPPE   H9Y44224   6.689   3.198   4.016
   80PPPE  C31044225   6.610   3.034   4.137
   80PPPE  H10X44226   6.706   3.014   4.191
   80PPPE  H10Y44227   6.563   2.935   4.122
   80PPPE  C31144228   6.517   3.118   4.224
   80PPPE  H11X44229   6.420   3.132   4.174
   80PPPE  H11Y44230   6.564   3.218   4.236
   80PPPE  C31244231   6.496   3.064   4.366
   80PPPE  H12X44232   6.588   3.012   4.403
   80PPPE  H12Y44233   6.413   2.991   4.367
   80PPPE  C31344234   6.469   3.181   4.462
   80PPPE  H13X44235   6.398   3.251   4.413
   80PPPE  H13Y44236   6.564   3.238   4.472
   80PPPE  C31444237   6.411   3.141   4.598
   80PPPE  H14X44238   6.386   3.033   4.599
   80PPPE  H14Y44239   6.316   3.197   4.615
   80PPPE  C31544240   6.503   3.172   4.719
   80PPPE  H15X44241   6.588   3.101   4.717
   80PPPE  H15Y44242   6.446   3.151   4.811
   80PPPE  C31644243   6.556   3.316   4.723
   80PPPE  H16X44244   6.617   3.331   4.815
   80PPPE  H16Y44245   6.622   3.340   4.637
   80PPPE  H16Z44246   6.472   3.388   4.724
   81PPPE     N44247   4.583   6.319   2.684
   81PPPE   HN144248   4.480   6.326   2.696
   81PPPE   HN244249   4.610   6.218   2.681
   81PPPE   HN344250   4.630   6.365   2.765
   81PPPE   C1244251   4.627   6.395   2.562
   81PPPE  H12A44252   4.570   6.490   2.561
   81PPPE  H12B44253   4.601   6.335   2.472
   81PPPE   C1144254   4.777   6.425   2.572
   81PPPE  H11A44255   4.804   6.493   2.489
   81PPPE  H11B44256   4.835   6.331   2.559
   81PPPE     P44257   4.950   6.548   2.720
   81PPPE   O1344258   5.044   6.479   2.629
   81PPPE   O1444259   4.937   6.695   2.703
   81PPPE   O1144260   4.986   6.513   2.870
   81PPPE   O1244261   4.806   6.482   2.700
   81PPPE    C144262   4.940   6.394   2.936
   81PPPE    HA44263   5.026   6.347   2.990
   81PPPE    HB44264   4.903   6.317   2.865
   81PPPE    C244265   4.830   6.426   3.040
   81PPPE    HS44266   4.757   6.492   2.990
   81PPPE   O2144267   4.890   6.495   3.151
   81PPPE   C2144268   4.805   6.547   3.237
   81PPPE   O2244269   4.685   6.560   3.219
   81PPPE   C2244270   4.883   6.590   3.361
   81PPPE   H2R44271   4.949   6.674   3.329
   81PPPE   H2S44272   4.947   6.506   3.394
   81PPPE    C344273   4.753   6.298   3.089
   81PPPE    HX44274   4.656   6.332   3.131
   81PPPE    HY44275   4.729   6.236   2.999
   81PPPE   O3144276   4.828   6.222   3.184
   81PPPE   C3144277   4.755   6.124   3.240
   81PPPE   O3244278   4.645   6.091   3.201
   81PPPE   C3244279   4.830   6.062   3.358
   81PPPE   H2X44280   4.933   6.037   3.323
   81PPPE   H2Y44281   4.778   5.968   3.385
   81PPPE   C2344282   4.795   6.637   3.479
   81PPPE   H3R44283   4.756   6.550   3.535
   81PPPE   H3S44284   4.707   6.695   3.441
   81PPPE   C2444285   4.874   6.729   3.573
   81PPPE   H4R44286   4.907   6.818   3.516
   81PPPE   H4S44287   4.965   6.677   3.609
   81PPPE   C2544288   4.793   6.778   3.694
   81PPPE   H5R44289   4.688   6.801   3.664
   81PPPE   H5S44290   4.839   6.872   3.731
   81PPPE   C2644291   4.793   6.678   3.811
   81PPPE   H6R44292   4.899   6.654   3.835
   81PPPE   H6S44293   4.745   6.582   3.780
   81PPPE   C2744294   4.723   6.733   3.936
   81PPPE   H7R44295   4.615   6.710   3.929
   81PPPE   H7S44296   4.733   6.843   3.938
   81PPPE   C2844297   4.778   6.675   4.068
   81PPPE   H8R44298   4.773   6.564   4.062
   81PPPE   H8S44299   4.710   6.705   4.149
   81PPPE   C2944300   4.918   6.723   4.101
   81PPPE   H9144301   4.929   6.832   4.094
   81PPPE  C21044302   5.025   6.650   4.135
   81PPPE  H10144303   5.118   6.703   4.160
   81PPPE  C21144304   5.034   6.500   4.151
   81PPPE  H11R44305   5.124   6.464   4.097
   81PPPE  H11S44306   4.947   6.448   4.106
   81PPPE  C21244307   5.045   6.452   4.299
   81PPPE  H12R44308   5.112   6.520   4.355
   81PPPE  H12S44309   5.091   6.351   4.299
   81PPPE  C21344310   4.909   6.442   4.370
   81PPPE  H13R44311   4.847   6.362   4.325
   81PPPE  H13S44312   4.855   6.538   4.355
   81PPPE  C21444313   4.924   6.417   4.520
   81PPPE  H14R44314   4.831   6.449   4.573
   81PPPE  H14S44315   5.007   6.480   4.557
   81PPPE  C21544316   4.955   6.272   4.561
   81PPPE  H15R44317   4.995   6.274   4.664
   81PPPE  H15S44318   5.035   6.231   4.497
   81PPPE  C21644319   4.833   6.181   4.559
   81PPPE  H16R44320   4.750   6.227   4.618
   81PPPE  H16S44321   4.797   6.165   4.455
   81PPPE  H16T44322   4.858   6.083   4.604
   81PPPE   C3344323   4.836   6.157   3.479
   81PPPE   H3X44324   4.734   6.176   3.517
   81PPPE   H3Y44325   4.879   6.255   3.448
   81PPPE   C3444326   4.923   6.100   3.592
   81PPPE   H4X44327   5.024   6.079   3.552
   81PPPE   H4Y44328   4.880   6.004   3.628
   81PPPE   C3544329   4.938   6.196   3.712
   81PPPE   H5X44330   4.967   6.297   3.676
   81PPPE   H5Y44331   5.020   6.158   3.776
   81PPPE   C3644332   4.812   6.207   3.800
   81PPPE   H6X44333   4.782   6.105   3.832
   81PPPE   H6Y44334   4.729   6.251   3.741
   81PPPE   C3744335   4.837   6.292   3.925
   81PPPE   H7X44336   4.860   6.396   3.895
   81PPPE   H7Y44337   4.926   6.251   3.978
   81PPPE   C3844338   4.720   6.294   4.026
   81PPPE   H8X44339   4.753   6.351   4.116
   81PPPE   H8Y44340   4.697   6.191   4.061
   81PPPE   C3944341   4.593   6.362   3.972
   81PPPE   H9X44342   4.534   6.287   3.914
   81PPPE   H9Y44343   4.622   6.443   3.903
   81PPPE  C31044344   4.504   6.423   4.082
   81PPPE  H10X44345   4.420   6.478   4.032
   81PPPE  H10Y44346   4.563   6.497   4.139
   81PPPE  C31144347   4.443   6.321   4.179
   81PPPE  H11X44348   4.524   6.268   4.233
   81PPPE  H11Y44349   4.388   6.245   4.118
   81PPPE  C31244350   4.345   6.384   4.278
   81PPPE  H12X44351   4.291   6.303   4.332
   81PPPE  H12Y44352   4.269   6.442   4.221
   81PPPE  C31344353   4.410   6.478   4.382
   81PPPE  H13X44354   4.328   6.525   4.441
   81PPPE  H13Y44355   4.463   6.560   4.330
   81PPPE  C31444356   4.507   6.409   4.480
   81PPPE  H14X44357   4.543   6.484   4.552
   81PPPE  H14Y44358   4.595   6.372   4.424
   81PPPE  C31544359   4.446   6.292   4.559
   81PPPE  H15X44360   4.523   6.252   4.628
   81PPPE  H15Y44361   4.420   6.210   4.490
   81PPPE  C31644362   4.321   6.327   4.641
   81PPPE  H16X44363   4.343   6.409   4.714
   81PPPE  H16Y44364   4.238   6.360   4.575
   81PPPE  H16Z44365   4.287   6.239   4.700
   82PPPE     N44366   5.704   1.682   2.526
   82PPPE   HN144367   5.608   1.716   2.549
   82PPPE   HN244368   5.745   1.758   2.468
   82PPPE   HN344369   5.696   1.596   2.467
   82PPPE   C1244370   5.779   1.666   2.656
   82PPPE  H12A44371   5.887   1.678   2.633
   82PPPE  H12B44372   5.760   1.564   2.695
   82PPPE   C1144373   5.736   1.771   2.761
   82PPPE  H11A44374   5.816   1.781   2.837
   82PPPE  H11B44375   5.648   1.733   2.817
   82PPPE     P44376   5.561   1.945   2.673
   82PPPE   O1344377   5.565   2.068   2.593
   82PPPE   O1444378   5.498   1.827   2.608
   82PPPE   O1144379   5.499   1.971   2.815
   82PPPE   O1244380   5.711   1.900   2.702
   82PPPE    C144381   5.558   2.063   2.908
   82PPPE    HA44382   5.478   2.130   2.946
   82PPPE    HB44383   5.635   2.128   2.862
   82PPPE    C244384   5.621   1.992   3.031
   82PPPE    HS44385   5.702   1.927   2.993
   82PPPE   O2144386   5.519   1.917   3.101
   82PPPE   C2144387   5.562   1.809   3.163
   82PPPE   O2244388   5.675   1.762   3.155
   82PPPE   C2244389   5.450   1.748   3.247
   82PPPE   H2R44390   5.492   1.661   3.302
   82PPPE   H2S44391   5.373   1.710   3.175
   82PPPE    C344392   5.684   2.096   3.129
   82PPPE    HX44393   5.760   2.156   3.075
   82PPPE    HY44394   5.603   2.165   3.160
   82PPPE   O3144395   5.738   2.036   3.249
   82PPPE   C3144396   5.862   1.990   3.240
   82PPPE   O3244397   5.934   2.000   3.142
   82PPPE   C3244398   5.902   1.922   3.372
   82PPPE   H2X44399   6.008   1.890   3.362
   82PPPE   H2Y44400   5.838   1.832   3.381
   82PPPE   C2344401   5.384   1.846   3.345
   82PPPE   H3R44402   5.295   1.796   3.388
   82PPPE   H3S44403   5.349   1.937   3.292
   82PPPE   C2444404   5.475   1.887   3.464
   82PPPE   H4R44405   5.562   1.944   3.425
   82PPPE   H4S44406   5.512   1.796   3.514
   82PPPE   C2544407   5.396   1.972   3.562
   82PPPE   H5R44408   5.311   1.913   3.602
   82PPPE   H5S44409   5.353   2.059   3.509
   82PPPE   C2644410   5.477   2.025   3.682
   82PPPE   H6R44411   5.562   2.087   3.645
   82PPPE   H6S44412   5.518   1.941   3.741
   82PPPE   C2744413   5.386   2.110   3.771
   82PPPE   H7R44414   5.304   2.045   3.809
   82PPPE   H7S44415   5.338   2.187   3.707
   82PPPE   C2844416   5.454   2.176   3.893
   82PPPE   H8R44417   5.505   2.096   3.950
   82PPPE   H8S44418   5.374   2.213   3.960
   82PPPE   C2944419   5.545   2.293   3.861
   82PPPE   H9144420   5.495   2.379   3.814
   82PPPE  C21044421   5.677   2.301   3.887
   82PPPE  H10144422   5.730   2.394   3.862
   82PPPE  C21144423   5.761   2.194   3.952
   82PPPE  H11R44424   5.852   2.176   3.891
   82PPPE  H11S44425   5.707   2.097   3.955
   82PPPE  C21244426   5.804   2.224   4.097
   82PPPE  H12R44427   5.873   2.311   4.101
   82PPPE  H12S44428   5.861   2.136   4.134
   82PPPE  C21344429   5.689   2.252   4.194
   82PPPE  H13R44430   5.606   2.180   4.176
   82PPPE  H13S44431   5.649   2.354   4.175
   82PPPE  C21444432   5.735   2.241   4.340
   82PPPE  H14R44433   5.827   2.301   4.354
   82PPPE  H14S44434   5.761   2.135   4.361
   82PPPE  C21544435   5.630   2.287   4.441
   82PPPE  H15R44436   5.534   2.234   4.422
   82PPPE  H15S44437   5.611   2.396   4.426
   82PPPE  C21644438   5.674   2.263   4.585
   82PPPE  H16R44439   5.601   2.307   4.656
   82PPPE  H16S44440   5.682   2.154   4.605
   82PPPE  H16T44441   5.773   2.310   4.604
   82PPPE   C3344442   5.884   2.014   3.495
   82PPPE   H3X44443   5.779   2.050   3.502
   82PPPE   H3Y44444   5.950   2.103   3.485
   82PPPE   C3444445   5.918   1.945   3.629
   82PPPE   H4X44446   5.911   2.020   3.710
   82PPPE   H4Y44447   6.024   1.909   3.627
   82PPPE   C3544448   5.826   1.827   3.662
   82PPPE   H5X44449   5.840   1.747   3.587
   82PPPE   H5Y44450   5.720   1.859   3.658
   82PPPE   C3644451   5.853   1.764   3.800
   82PPPE   H6X44452   5.963   1.751   3.813
   82PPPE   H6Y44453   5.807   1.663   3.804
   82PPPE   C3744454   5.797   1.844   3.919
   82PPPE   H7X44455   5.691   1.868   3.898
   82PPPE   H7Y44456   5.854   1.940   3.929
   82PPPE   C3844457   5.807   1.769   4.054
   82PPPE   H8X44458   5.914   1.751   4.078
   82PPPE   H8Y44459   5.759   1.669   4.040
   82PPPE   C3944460   5.739   1.838   4.174
   82PPPE   H9X44461   5.796   1.930   4.201
   82PPPE   H9Y44462   5.744   1.769   4.260
   82PPPE  C31044463   5.592   1.876   4.150
   82PPPE  H10X44464   5.538   1.792   4.102
   82PPPE  H10Y44465   5.589   1.962   4.079
   82PPPE  C31144466   5.515   1.915   4.278
   82PPPE  H11X44467   5.564   2.002   4.325
   82PPPE  H11Y44468   5.518   1.830   4.348
   82PPPE  C31244469   5.368   1.950   4.245
   82PPPE  H12X44470   5.317   1.861   4.203
   82PPPE  H12Y44471   5.368   2.029   4.167
   82PPPE  C31344472   5.289   2.001   4.366
   82PPPE  H13X44473   5.191   2.040   4.332
   82PPPE  H13Y44474   5.344   2.085   4.412
   82PPPE  C31444475   5.262   1.892   4.472
   82PPPE  H14X44476   5.358   1.851   4.510
   82PPPE  H14Y44477   5.206   1.809   4.424
   82PPPE  C31544478   5.180   1.945   4.591
   82PPPE  H15X44479   5.142   1.858   4.649
   82PPPE  H15Y44480   5.092   2.000   4.552
   82PPPE  C31644481   5.258   2.036   4.686
   82PPPE  H16X44482   5.343   1.981   4.733
   82PPPE  H16Y44483   5.299   2.123   4.631
   82PPPE  H16Z44484   5.192   2.073   4.767
   83PPPE     N44485   1.772   4.238   2.450
   83PPPE   HN144486   1.768   4.280   2.545
   83PPPE   HN244487   1.855   4.177   2.441
   83PPPE   HN344488   1.782   4.319   2.385
   83PPPE   C1244489   1.645   4.159   2.431
   83PPPE  H12A44490   1.658   4.063   2.484
   83PPPE  H12B44491   1.634   4.139   2.322
   83PPPE   C1144492   1.521   4.232   2.487
   83PPPE  H11A44493   1.432   4.186   2.439
   83PPPE  H11B44494   1.520   4.339   2.456
   83PPPE     P44495   1.572   4.317   2.731
   83PPPE   O1344496   1.704   4.353   2.675
   83PPPE   O1444497   1.474   4.425   2.757
   83PPPE   O1144498   1.591   4.226   2.858
   83PPPE   O1244499   1.508   4.215   2.628
   83PPPE    C144500   1.480   4.174   2.933
   83PPPE    HA44501   1.469   4.066   2.912
   83PPPE    HB44502   1.384   4.224   2.908
   83PPPE    C244503   1.503   4.192   3.087
   83PPPE    HS44504   1.513   4.302   3.103
   83PPPE   O2144505   1.619   4.116   3.127
   83PPPE   C2144506   1.694   4.177   3.219
   83PPPE   O2244507   1.675   4.290   3.260
   83PPPE   C2244508   1.810   4.088   3.262
   83PPPE   H2R44509   1.875   4.153   3.325
   83PPPE   H2S44510   1.867   4.058   3.172
   83PPPE    C344511   1.378   4.142   3.165
   83PPPE    HX44512   1.286   4.187   3.122
   83PPPE    HY44513   1.372   4.033   3.146
   83PPPE   O3144514   1.386   4.161   3.308
   83PPPE   C3144515   1.341   4.279   3.352
   83PPPE   O3244516   1.296   4.367   3.280
   83PPPE   C3244517   1.356   4.286   3.503
   83PPPE   H2X44518   1.350   4.184   3.546
   83PPPE   H2Y44519   1.273   4.348   3.544
   83PPPE   C2344520   1.767   3.965   3.345
   83PPPE   H3R44521   1.858   3.923   3.394
   83PPPE   H3S44522   1.726   3.886   3.278
   83PPPE   C2444523   1.664   3.998   3.454
   83PPPE   H4R44524   1.562   3.995   3.411
   83PPPE   H4S44525   1.682   4.102   3.490
   83PPPE   C2544526   1.670   3.909   3.580
   83PPPE   H5R44527   1.767   3.927   3.631
   83PPPE   H5S44528   1.667   3.800   3.556
   83PPPE   C2644529   1.555   3.943   3.676
   83PPPE   H6R44530   1.460   3.898   3.641
   83PPPE   H6S44531   1.542   4.053   3.674
   83PPPE   C2744532   1.582   3.902   3.822
   83PPPE   H7R44533   1.686   3.932   3.849
   83PPPE   H7S44534   1.575   3.792   3.832
   83PPPE   C2844535   1.486   3.971   3.920
   83PPPE   H8R44536   1.382   3.951   3.888
   83PPPE   H8S44537   1.502   4.081   3.913
   83PPPE   C2944538   1.505   3.923   4.062
   83PPPE   H9144539   1.464   3.823   4.083
   83PPPE  C21044540   1.566   3.990   4.162
   83PPPE  H10144541   1.570   3.943   4.262
   83PPPE  C21144542   1.629   4.127   4.156
   83PPPE  H11R44543   1.668   4.148   4.054
   83PPPE  H11S44544   1.717   4.130   4.224
   83PPPE  C21244545   1.534   4.242   4.195
   83PPPE  H12R44546   1.452   4.247   4.122
   83PPPE  H12S44547   1.590   4.338   4.189
   83PPPE  C21344548   1.473   4.230   4.337
   83PPPE  H13R44549   1.417   4.134   4.344
   83PPPE  H13S44550   1.398   4.311   4.349
   83PPPE  C21444551   1.573   4.235   4.453
   83PPPE  H14R44552   1.650   4.157   4.439
   83PPPE  H14S44553   1.518   4.210   4.546
   83PPPE  C21544554   1.641   4.371   4.476
   83PPPE  H15R44555   1.700   4.399   4.384
   83PPPE  H15S44556   1.713   4.360   4.558
   83PPPE  C21644557   1.545   4.485   4.510
   83PPPE  H16R44558   1.477   4.508   4.425
   83PPPE  H16S44559   1.482   4.458   4.597
   83PPPE  H16T44560   1.601   4.578   4.535
   83PPPE   C3344561   1.492   4.351   3.536
   83PPPE   H3X44562   1.491   4.456   3.500
   83PPPE   H3Y44563   1.571   4.296   3.480
   83PPPE   C3444564   1.530   4.350   3.684
   83PPPE   H4X44565   1.528   4.248   3.727
   83PPPE   H4Y44566   1.457   4.412   3.740
   83PPPE   C3544567   1.670   4.410   3.703
   83PPPE   H5X44568   1.687   4.428   3.812
   83PPPE   H5Y44569   1.669   4.509   3.653
   83PPPE   C3644570   1.789   4.329   3.648
   83PPPE   H6X44571   1.878   4.395   3.651
   83PPPE   H6Y44572   1.774   4.300   3.542
   83PPPE   C3744573   1.822   4.207   3.735
   83PPPE   H7X44574   1.742   4.130   3.726
   83PPPE   H7Y44575   1.818   4.245   3.840
   83PPPE   C3844576   1.960   4.147   3.707
   83PPPE   H8X44577   2.033   4.231   3.707
   83PPPE   H8Y44578   1.962   4.102   3.604
   83PPPE   C3944579   2.009   4.043   3.811
   83PPPE   H9X44580   2.119   4.033   3.801
   83PPPE   H9Y44581   1.965   3.944   3.789
   83PPPE  C31044582   1.972   4.086   3.952
   83PPPE  H10X44583   1.865   4.062   3.970
   83PPPE  H10Y44584   1.983   4.196   3.959
   83PPPE  C31144585   2.055   4.031   4.068
   83PPPE  H11X44586   2.158   4.073   4.062
   83PPPE  H11Y44587   2.068   3.921   4.059
   83PPPE  C31244588   1.990   4.071   4.200
   83PPPE  H12X44589   1.915   3.995   4.231
   83PPPE  H12Y44590   1.936   4.167   4.183
   83PPPE  C31344591   2.088   4.099   4.315
   83PPPE  H13X44592   2.162   4.174   4.280
   83PPPE  H13Y44593   2.144   4.007   4.344
   83PPPE  C31444594   2.015   4.156   4.438
   83PPPE  H14X44595   1.957   4.075   4.487
   83PPPE  H14Y44596   1.943   4.233   4.405
   83PPPE  C31544597   2.110   4.220   4.539
   83PPPE  H15X44598   2.169   4.299   4.490
   83PPPE  H15Y44599   2.181   4.144   4.577
   83PPPE  C31644600   2.036   4.282   4.658
   83PPPE  H16X44601   2.107   4.332   4.727
   83PPPE  H16Y44602   1.962   4.357   4.623
   83PPPE  H16Z44603   1.981   4.204   4.715
   84PPPE     N44604   6.540   5.066   2.564
   84PPPE   HN144605   6.507   5.032   2.656
   84PPPE   HN244606   6.503   5.163   2.553
   84PPPE   HN344607   6.499   5.008   2.488
   84PPPE   C1244608   6.690   5.067   2.560
   84PPPE  H12A44609   6.725   5.114   2.654
   84PPPE  H12B44610   6.722   5.132   2.475
   84PPPE   C1144611   6.745   4.924   2.543
   84PPPE  H11A44612   6.728   4.891   2.439
   84PPPE  H11B44613   6.686   4.857   2.608
   84PPPE     P44614   6.942   4.810   2.670
   84PPPE   O1344615   6.910   4.679   2.609
   84PPPE   O1444616   7.084   4.842   2.696
   84PPPE   O1144617   6.855   4.835   2.798
   84PPPE   O1244618   6.886   4.922   2.571
   84PPPE    C144619   6.856   4.960   2.867
   84PPPE    HA44620   6.763   4.967   2.927
   84PPPE    HB44621   6.857   5.048   2.798
   84PPPE    C244622   6.976   4.977   2.964
   84PPPE    HS44623   7.064   5.001   2.901
   84PPPE   O2144624   6.995   4.856   3.039
   84PPPE   C2144625   7.119   4.823   3.065
   84PPPE   O2244626   7.218   4.885   3.028
   84PPPE   C2244627   7.121   4.692   3.144
   84PPPE   H2R44628   7.181   4.620   3.084
   84PPPE   H2S44629   7.018   4.652   3.155
   84PPPE    C344630   6.952   5.096   3.062
   84PPPE    HX44631   7.040   5.107   3.129
   84PPPE    HY44632   6.944   5.189   3.002
   84PPPE   O3144633   6.827   5.074   3.130
   84PPPE   C3144634   6.834   5.047   3.260
   84PPPE   O3244635   6.930   5.069   3.332
   84PPPE   C3244636   6.701   4.982   3.299
   84PPPE   H2X44637   6.692   4.888   3.240
   84PPPE   H2Y44638   6.621   5.052   3.266
   84PPPE   C2344639   7.186   4.706   3.283
   84PPPE   H3R44640   7.277   4.769   3.276
   84PPPE   H3S44641   7.219   4.606   3.319
   84PPPE   C2444642   7.095   4.766   3.391
   84PPPE   H4R44643   7.023   4.689   3.425
   84PPPE   H4S44644   7.037   4.851   3.351
   84PPPE   C2544645   7.178   4.817   3.510
   84PPPE   H5R44646   7.235   4.907   3.480
   84PPPE   H5S44647   7.251   4.738   3.536
   84PPPE   C2644648   7.099   4.849   3.638
   84PPPE   H6R44649   7.172   4.857   3.721
   84PPPE   H6S44650   7.031   4.764   3.661
   84PPPE   C2744651   7.018   4.979   3.634
   84PPPE   H7R44652   6.948   4.972   3.549
   84PPPE   H7S44653   7.084   5.065   3.613
   84PPPE   C2844654   6.934   5.001   3.761
   84PPPE   H8R44655   6.837   5.048   3.733
   84PPPE   H8S44656   6.908   4.902   3.804
   84PPPE   C2944657   7.000   5.089   3.865
   84PPPE   H9144658   6.986   5.197   3.849
   84PPPE  C21044659   7.070   5.049   3.972
   84PPPE  H10144660   7.112   5.125   4.038
   84PPPE  C21144661   7.098   4.906   4.011
   84PPPE  H11R44662   7.125   4.844   3.924
   84PPPE  H11S44663   7.007   4.860   4.056
   84PPPE  C21244664   7.212   4.893   4.115
   84PPPE  H12R44665   7.308   4.929   4.072
   84PPPE  H12S44666   7.225   4.785   4.138
   84PPPE  C21344667   7.182   4.967   4.247
   84PPPE  H13R44668   7.080   4.939   4.280
   84PPPE  H13S44669   7.181   5.077   4.230
   84PPPE  C21444670   7.282   4.935   4.358
   84PPPE  H14R44671   7.381   4.981   4.335
   84PPPE  H14S44672   7.299   4.825   4.365
   84PPPE  C21544673   7.231   4.986   4.492
   84PPPE  H15R44674   7.151   5.061   4.476
   84PPPE  H15S44675   7.313   5.036   4.549
   84PPPE  C21644676   7.173   4.873   4.575
   84PPPE  H16R44677   7.249   4.795   4.596
   84PPPE  H16S44678   7.131   4.911   4.671
   84PPPE  H16T44679   7.091   4.827   4.517
   84PPPE   C3344680   6.680   4.954   3.450
   84PPPE   H3X44681   6.571   4.966   3.469
   84PPPE   H3Y44682   6.730   5.029   3.513
   84PPPE   C3444683   6.715   4.811   3.495
   84PPPE   H4X44684   6.825   4.801   3.510
   84PPPE   H4Y44685   6.686   4.738   3.417
   84PPPE   C3544686   6.640   4.776   3.623
   84PPPE   H5X44687   6.531   4.784   3.601
   84PPPE   H5Y44688   6.662   4.852   3.701
   84PPPE   C3644689   6.666   4.636   3.681
   84PPPE   H6X44690   6.763   4.638   3.735
   84PPPE   H6Y44691   6.674   4.561   3.599
   84PPPE   C3744692   6.551   4.596   3.775
   84PPPE   H7X44693   6.480   4.530   3.721
   84PPPE   H7Y44694   6.496   4.690   3.800
   84PPPE   C3844695   6.585   4.528   3.908
   84PPPE   H8X44696   6.617   4.424   3.891
   84PPPE   H8Y44697   6.491   4.519   3.967
   84PPPE   C3944698   6.688   4.602   3.997
   84PPPE   H9X44699   6.791   4.570   3.971
   84PPPE   H9Y44700   6.670   4.569   4.101
   84PPPE  C31044701   6.686   4.755   3.990
   84PPPE  H10X44702   6.585   4.794   3.962
   84PPPE  H10Y44703   6.757   4.788   3.910
   84PPPE  C31144704   6.724   4.817   4.123
   84PPPE  H11X44705   6.758   4.922   4.109
   84PPPE  H11Y44706   6.810   4.760   4.164
   84PPPE  C31244707   6.606   4.811   4.219
   84PPPE  H12X44708   6.529   4.884   4.186
   84PPPE  H12Y44709   6.561   4.710   4.214
   84PPPE  C31344710   6.643   4.839   4.365
   84PPPE  H13X44711   6.621   4.946   4.386
   84PPPE  H13Y44712   6.751   4.824   4.382
   84PPPE  C31444713   6.565   4.749   4.462
   84PPPE  H14X44714   6.621   4.655   4.478
   84PPPE  H14Y44715   6.466   4.722   4.418
   84PPPE  C31544716   6.538   4.818   4.596
   84PPPE  H15X44717   6.491   4.745   4.667
   84PPPE  H15Y44718   6.463   4.898   4.579
   84PPPE  C31644719   6.661   4.880   4.662
   84PPPE  H16X44720   6.729   4.802   4.700
   84PPPE  H16Y44721   6.629   4.944   4.747
   84PPPE  H16Z44722   6.717   4.945   4.591
   85PPPE     N44723   1.420   3.565   2.933
   85PPPE   HN144724   1.411   3.567   3.037
   85PPPE   HN244725   1.456   3.472   2.905
   85PPPE   HN344726   1.491   3.635   2.903
   85PPPE   C1244727   1.290   3.590   2.860
   85PPPE  H12A44728   1.231   3.665   2.918
   85PPPE  H12B44729   1.235   3.494   2.856
   85PPPE   C1144730   1.318   3.640   2.718
   85PPPE  H11A44731   1.350   3.747   2.722
   85PPPE  H11B44732   1.224   3.638   2.658
   85PPPE     P44733   1.396   3.438   2.567
   85PPPE   O1344734   1.270   3.374   2.611
   85PPPE   O1444735   1.403   3.480   2.425
   85PPPE   O1144736   1.516   3.343   2.599
   85PPPE   O1244737   1.423   3.565   2.657
   85PPPE    C144738   1.610   3.365   2.704
   85PPPE    HA44739   1.618   3.471   2.736
   85PPPE    HB44740   1.710   3.338   2.666
   85PPPE    C244741   1.583   3.275   2.828
   85PPPE    HS44742   1.597   3.171   2.792
   85PPPE   O2144743   1.450   3.297   2.884
   85PPPE   C2144744   1.405   3.189   2.951
   85PPPE   O2244745   1.457   3.079   2.948
   85PPPE   C2244746   1.275   3.223   3.026
   85PPPE   H2R44747   1.199   3.148   2.997
   85PPPE   H2S44748   1.240   3.323   2.995
   85PPPE    C344749   1.688   3.304   2.938
   85PPPE    HX44750   1.680   3.222   3.012
   85PPPE    HY44751   1.790   3.301   2.893
   85PPPE   O3144752   1.662   3.432   3.002
   85PPPE   C3144753   1.751   3.457   3.098
   85PPPE   O3244754   1.853   3.394   3.118
   85PPPE   C3244755   1.705   3.579   3.176
   85PPPE   H2X44756   1.691   3.663   3.105
   85PPPE   H2Y44757   1.786   3.606   3.247
   85PPPE   C2344758   1.290   3.221   3.181
   85PPPE   H3R44759   1.201   3.270   3.226
   85PPPE   H3S44760   1.379   3.280   3.212
   85PPPE   C2444761   1.297   3.079   3.241
   85PPPE   H4R44762   1.388   3.029   3.201
   85PPPE   H4S44763   1.209   3.020   3.209
   85PPPE   C2544764   1.305   3.074   3.396
   85PPPE   H5R44765   1.334   2.972   3.426
   85PPPE   H5S44766   1.205   3.094   3.440
   85PPPE   C2644767   1.405   3.176   3.452
   85PPPE   H6R44768   1.353   3.274   3.460
   85PPPE   H6S44769   1.488   3.188   3.379
   85PPPE   C2744770   1.472   3.143   3.587
   85PPPE   H7R44771   1.528   3.048   3.579
   85PPPE   H7S44772   1.396   3.128   3.667
   85PPPE   C2844773   1.567   3.258   3.625
   85PPPE   H8R44774   1.503   3.345   3.653
   85PPPE   H8S44775   1.622   3.288   3.533
   85PPPE   C2944776   1.668   3.235   3.734
   85PPPE   H9144777   1.760   3.183   3.702
   85PPPE  C21044778   1.656   3.268   3.865
   85PPPE  H10144779   1.741   3.247   3.931
   85PPPE  C21144780   1.540   3.336   3.933
   85PPPE  H11R44781   1.498   3.266   4.009
   85PPPE  H11S44782   1.457   3.357   3.863
   85PPPE  C21244783   1.577   3.467   4.006
   85PPPE  H12R44784   1.485   3.511   4.049
   85PPPE  H12S44785   1.617   3.539   3.931
   85PPPE  C21344786   1.680   3.452   4.120
   85PPPE  H13R44787   1.711   3.554   4.150
   85PPPE  H13S44788   1.771   3.400   4.083
   85PPPE  C21444789   1.629   3.381   4.247
   85PPPE  H14R44790   1.600   3.276   4.223
   85PPPE  H14S44791   1.540   3.434   4.285
   85PPPE  C21544792   1.739   3.382   4.353
   85PPPE  H15R44793   1.768   3.488   4.368
   85PPPE  H15S44794   1.828   3.328   4.314
   85PPPE  C21644795   1.700   3.322   4.490
   85PPPE  H16R44796   1.617   3.380   4.535
   85PPPE  H16S44797   1.668   3.216   4.479
   85PPPE  H16T44798   1.787   3.325   4.559
   85PPPE   C3344799   1.575   3.553   3.257
   85PPPE   H3X44800   1.599   3.481   3.339
   85PPPE   H3Y44801   1.496   3.506   3.195
   85PPPE   C3444802   1.522   3.684   3.318
   85PPPE   H4X44803   1.496   3.757   3.238
   85PPPE   H4Y44804   1.607   3.727   3.374
   85PPPE   C3544805   1.405   3.669   3.417
   85PPPE   H5X44806   1.312   3.640   3.365
   85PPPE   H5Y44807   1.388   3.769   3.464
   85PPPE   C3644808   1.435   3.569   3.530
   85PPPE   H6X44809   1.543   3.575   3.554
   85PPPE   H6Y44810   1.416   3.466   3.491
   85PPPE   C3744811   1.358   3.591   3.660
   85PPPE   H7X44812   1.383   3.692   3.698
   85PPPE   H7Y44813   1.395   3.519   3.736
   85PPPE   C3844814   1.205   3.579   3.653
   85PPPE   H8X44815   1.166   3.655   3.582
   85PPPE   H8Y44816   1.167   3.605   3.754
   85PPPE   C3944817   1.145   3.442   3.616
   85PPPE   H9X44818   1.175   3.416   3.513
   85PPPE   H9Y44819   1.035   3.451   3.618
   85PPPE  C31044820   1.185   3.327   3.710
   85PPPE  H10X44821   1.294   3.310   3.700
   85PPPE  H10Y44822   1.134   3.234   3.677
   85PPPE  C31144823   1.157   3.348   3.860
   85PPPE  H11X44824   1.050   3.372   3.877
   85PPPE  H11Y44825   1.217   3.434   3.898
   85PPPE  C31244826   1.195   3.223   3.940
   85PPPE  H12X44827   1.295   3.188   3.907
   85PPPE  H12Y44828   1.122   3.141   3.919
   85PPPE  C31344829   1.203   3.245   4.092
   85PPPE  H13X44830   1.275   3.327   4.115
   85PPPE  H13Y44831   1.243   3.153   4.139
   85PPPE  C31444832   1.068   3.277   4.158
   85PPPE  H14X44833   0.991   3.205   4.124
   85PPPE  H14Y44834   1.035   3.379   4.128
   85PPPE  C31544835   1.078   3.269   4.311
   85PPPE  H15X44836   1.159   3.338   4.345
   85PPPE  H15Y44837   1.108   3.166   4.340
   85PPPE  C31644838   0.948   3.304   4.384
   85PPPE  H16X44839   0.963   3.300   4.495
   85PPPE  H16Y44840   0.914   3.407   4.358
   85PPPE  H16Z44841   0.869   3.231   4.356
   86PPPE     N44842   6.542   2.354   2.721
   86PPPE   HN144843   6.485   2.366   2.807
   86PPPE   HN244844   6.579   2.257   2.719
   86PPPE   HN344845   6.620   2.423   2.721
   86PPPE   C1244846   6.458   2.366   2.596
   86PPPE  H12A44847   6.526   2.375   2.509
   86PPPE  H12B44848   6.394   2.457   2.603
   86PPPE   C1144849   6.375   2.237   2.582
   86PPPE  H11A44850   6.310   2.247   2.492
   86PPPE  H11B44851   6.309   2.224   2.670
   86PPPE     P44852   6.425   1.980   2.601
   86PPPE   O1344853   6.355   1.981   2.729
   86PPPE   O1444854   6.355   1.920   2.485
   86PPPE   O1144855   6.568   1.912   2.615
   86PPPE   O1244856   6.466   2.129   2.565
   86PPPE    C144857   6.667   1.974   2.699
   86PPPE    HA44858   6.633   2.067   2.749
   86PPPE    HB44859   6.756   2.000   2.638
   86PPPE    C244860   6.715   1.880   2.814
   86PPPE    HS44861   6.751   1.787   2.764
   86PPPE   O2144862   6.603   1.852   2.901
   86PPPE   C2144863   6.626   1.752   2.985
   86PPPE   O2244864   6.718   1.673   2.976
   86PPPE   C2244865   6.518   1.749   3.092
   86PPPE   H2R44866   6.473   1.647   3.089
   86PPPE   H2S44867   6.438   1.823   3.068
   86PPPE    C344868   6.834   1.942   2.894
   86PPPE    HX44869   6.887   1.859   2.945
   86PPPE    HY44870   6.906   1.983   2.821
   86PPPE   O3144871   6.790   2.038   2.993
   86PPPE   C3144872   6.834   2.162   2.983
   86PPPE   O3244873   6.902   2.207   2.893
   86PPPE   C3244874   6.773   2.247   3.095
   86PPPE   H2X44875   6.663   2.244   3.078
   86PPPE   H2Y44876   6.808   2.351   3.082
   86PPPE   C2344877   6.572   1.773   3.235
   86PPPE   H3R44878   6.597   1.880   3.249
   86PPPE   H3S44879   6.665   1.714   3.252
   86PPPE   C2444880   6.471   1.728   3.341
   86PPPE   H4R44881   6.452   1.620   3.325
   86PPPE   H4S44882   6.374   1.781   3.327
   86PPPE   C2544883   6.518   1.745   3.486
   86PPPE   H5R44884   6.622   1.708   3.498
   86PPPE   H5S44885   6.453   1.682   3.551
   86PPPE   C2644886   6.506   1.889   3.538
   86PPPE   H6R44887   6.410   1.933   3.505
   86PPPE   H6S44888   6.588   1.950   3.495
   86PPPE   C2744889   6.512   1.893   3.691
   86PPPE   H7R44890   6.603   1.838   3.723
   86PPPE   H7S44891   6.426   1.838   3.735
   86PPPE   C2844892   6.518   2.037   3.747
   86PPPE   H8R44893   6.587   2.095   3.681
   86PPPE   H8S44894   6.565   2.031   3.847
   86PPPE   C2944895   6.384   2.104   3.753
   86PPPE   H9144896   6.313   2.077   3.674
   86PPPE  C21044897   6.346   2.191   3.848
   86PPPE  H10144898   6.243   2.229   3.848
   86PPPE  C21144899   6.428   2.236   3.966
   86PPPE  H11R44900   6.415   2.345   3.983
   86PPPE  H11S44901   6.537   2.221   3.948
   86PPPE  C21244902   6.388   2.159   4.092
   86PPPE  H12R44903   6.391   2.050   4.072
   86PPPE  H12S44904   6.283   2.185   4.120
   86PPPE  C21344905   6.480   2.187   4.212
   86PPPE  H13R44906   6.569   2.246   4.179
   86PPPE  H13S44907   6.517   2.090   4.250
   86PPPE  C21444908   6.411   2.262   4.326
   86PPPE  H14R44909   6.320   2.207   4.358
   86PPPE  H14S44910   6.379   2.362   4.290
   86PPPE  C21544911   6.502   2.279   4.448
   86PPPE  H15R44912   6.454   2.351   4.517
   86PPPE  H15S44913   6.599   2.322   4.414
   86PPPE  C21644914   6.528   2.149   4.524
   86PPPE  H16R44915   6.431   2.110   4.562
   86PPPE  H16S44916   6.574   2.072   4.459
   86PPPE  H16T44917   6.594   2.165   4.611
   86PPPE   C3344918   6.798   2.201   3.242
   86PPPE   H3X44919   6.809   2.090   3.252
   86PPPE   H3Y44920   6.707   2.227   3.299
   86PPPE   C3444921   6.914   2.274   3.312
   86PPPE   H4X44922   6.916   2.378   3.273
   86PPPE   H4Y44923   7.013   2.230   3.288
   86PPPE   C3544924   6.894   2.287   3.464
   86PPPE   H5X44925   6.787   2.313   3.481
   86PPPE   H5Y44926   6.955   2.372   3.502
   86PPPE   C3644927   6.926   2.164   3.552
   86PPPE   H6X44928   7.036   2.148   3.552
   86PPPE   H6Y44929   6.877   2.073   3.511
   86PPPE   C3744930   6.877   2.189   3.696
   86PPPE   H7X44931   6.766   2.195   3.697
   86PPPE   H7Y44932   6.912   2.290   3.726
   86PPPE   C3844933   6.923   2.092   3.806
   86PPPE   H8X44934   6.891   2.138   3.903
   86PPPE   H8Y44935   7.034   2.087   3.809
   86PPPE   C3944936   6.867   1.950   3.802
   86PPPE   H9X44937   6.944   1.880   3.763
   86PPPE   H9Y44938   6.782   1.948   3.730
   86PPPE  C31044939   6.818   1.902   3.941
   86PPPE  H10X44940   6.777   1.799   3.932
   86PPPE  H10Y44941   6.736   1.968   3.974
   86PPPE  C31144942   6.928   1.901   4.049
   86PPPE  H11X44943   6.979   2.000   4.054
   86PPPE  H11Y44944   7.004   1.827   4.016
   86PPPE  C31244945   6.883   1.861   4.190
   86PPPE  H12X44946   6.974   1.854   4.253
   86PPPE  H12Y44947   6.838   1.760   4.186
   86PPPE  C31344948   6.784   1.957   4.259
   86PPPE  H13X44949   6.750   1.912   4.354
   86PPPE  H13Y44950   6.694   1.967   4.193
   86PPPE  C31444951   6.838   2.098   4.289
   86PPPE  H14X44952   6.754   2.166   4.312
   86PPPE  H14Y44953   6.887   2.138   4.197
   86PPPE  C31544954   6.938   2.104   4.406
   86PPPE  H15X44955   7.013   2.183   4.384
   86PPPE  H15Y44956   6.994   2.008   4.412
   86PPPE  C31644957   6.876   2.138   4.542
   86PPPE  H16X44958   6.955   2.147   4.620
   86PPPE  H16Y44959   6.822   2.235   4.536
   86PPPE  H16Z44960   6.804   2.060   4.573
   87PPPE     N44961   1.692   5.620   2.616
   87PPPE   HN144962   1.748   5.532   2.616
   87PPPE   HN244963   1.720   5.678   2.697
   87PPPE   HN344964   1.592   5.593   2.626
   87PPPE   C1244965   1.717   5.706   2.494
   87PPPE  H12A44966   1.652   5.670   2.411
   87PPPE  H12B44967   1.823   5.693   2.465
   87PPPE   C1144968   1.689   5.853   2.528
   87PPPE  H11A44969   1.580   5.869   2.540
   87PPPE  H11B44970   1.721   5.918   2.444
   87PPPE     P44971   1.900   5.947   2.650
   87PPPE   O1344972   1.980   5.862   2.559
   87PPPE   O1444973   1.891   6.092   2.621
   87PPPE   O1144974   1.945   5.920   2.799
   87PPPE   O1244975   1.753   5.888   2.651
   87PPPE    C144976   1.962   5.786   2.846
   87PPPE    HA44977   2.071   5.765   2.852
   87PPPE    HB44978   1.919   5.710   2.778
   87PPPE    C244979   1.901   5.761   2.987
   87PPPE    HS44980   1.792   5.784   2.984
   87PPPE   O2144981   1.968   5.840   3.087
   87PPPE   C2144982   1.918   5.960   3.108
   87PPPE   O2244983   1.826   6.012   3.047
   87PPPE   C2244984   1.991   6.022   3.228
   87PPPE   H2R44985   2.099   6.023   3.204
   87PPPE   H2S44986   1.976   5.954   3.315
   87PPPE    C344987   1.914   5.610   3.025
   87PPPE    HX44988   1.844   5.548   2.964
   87PPPE    HY44989   2.016   5.576   2.997
   87PPPE   O3144990   1.899   5.590   3.167
   87PPPE   C3144991   1.774   5.574   3.207
   87PPPE   O3244992   1.681   5.542   3.134
   87PPPE   C3244993   1.761   5.616   3.352
   87PPPE   H2X44994   1.845   5.684   3.378
   87PPPE   H2Y44995   1.767   5.526   3.417
   87PPPE   C2344996   1.943   6.165   3.262
   87PPPE   H3R44997   1.950   6.229   3.172
   87PPPE   H3S44998   2.013   6.208   3.339
   87PPPE   C2444999   1.801   6.173   3.320
   87PPPE   H4R45000   1.729   6.118   3.255
   87PPPE   H4S45001   1.769   6.279   3.321
   87PPPE   C2545002   1.790   6.120   3.464
   87PPPE   H5R45003   1.863   6.174   3.528
   87PPPE   H5S45004   1.818   6.013   3.467
   87PPPE   C2645005   1.650   6.138   3.524
   87PPPE   H6R45006   1.574   6.085   3.462
   87PPPE   H6S45007   1.624   6.246   3.523
   87PPPE   C2745008   1.645   6.087   3.668
   87PPPE   H7R45009   1.728   6.135   3.723
   87PPPE   H7S45010   1.662   5.978   3.670
   87PPPE   C2845011   1.513   6.118   3.740
   87PPPE   H8R45012   1.431   6.081   3.675
   87PPPE   H8S45013   1.499   6.228   3.747
   87PPPE   C2945014   1.497   6.056   3.877
   87PPPE   H9145015   1.391   6.042   3.903
   87PPPE  C21045016   1.586   6.019   3.972
   87PPPE  H10145017   1.544   5.976   4.063
   87PPPE  C21145018   1.738   6.027   3.981
   87PPPE  H11R45019   1.786   6.093   3.906
   87PPPE  H11S45020   1.787   5.927   3.973
   87PPPE  C21245021   1.769   6.083   4.120
   87PPPE  H12R45022   1.702   6.040   4.197
   87PPPE  H12S45023   1.748   6.192   4.115
   87PPPE  C21345024   1.911   6.074   4.179
   87PPPE  H13R45025   1.986   6.116   4.108
   87PPPE  H13S45026   1.937   5.969   4.200
   87PPPE  C21445027   1.907   6.158   4.306
   87PPPE  H14R45028   1.820   6.124   4.367
   87PPPE  H14S45029   1.888   6.264   4.280
   87PPPE  C21545030   2.029   6.152   4.396
   87PPPE  H15R45031   2.117   6.192   4.342
   87PPPE  H15S45032   2.051   6.047   4.424
   87PPPE  C21645033   2.006   6.234   4.524
   87PPPE  H16R45034   1.926   6.188   4.585
   87PPPE  H16S45035   2.098   6.240   4.587
   87PPPE  H16T45036   1.975   6.338   4.499
   87PPPE   C3345037   1.627   5.688   3.370
   87PPPE   H3X45038   1.545   5.612   3.361
   87PPPE   H3Y45039   1.612   5.760   3.286
   87PPPE   C3445040   1.612   5.768   3.498
   87PPPE   H4X45041   1.511   5.815   3.497
   87PPPE   H4Y45042   1.686   5.851   3.497
   87PPPE   C3545043   1.625   5.689   3.629
   87PPPE   H5X45044   1.590   5.584   3.618
   87PPPE   H5Y45045   1.557   5.739   3.702
   87PPPE   C3645046   1.765   5.694   3.691
   87PPPE   H6X45047   1.815   5.788   3.660
   87PPPE   H6Y45048   1.826   5.609   3.655
   87PPPE   C3745049   1.761   5.697   3.845
   87PPPE   H7X45050   1.689   5.776   3.875
   87PPPE   H7Y45051   1.862   5.725   3.884
   87PPPE   C3845052   1.719   5.566   3.913
   87PPPE   H8X45053   1.788   5.486   3.879
   87PPPE   H8Y45054   1.615   5.540   3.882
   87PPPE   C3945055   1.728   5.569   4.068
   87PPPE   H9X45056   1.835   5.574   4.096
   87PPPE   H9Y45057   1.687   5.474   4.108
   87PPPE  C31045058   1.657   5.688   4.135
   87PPPE  H10X45059   1.549   5.690   4.108
   87PPPE  H10Y45060   1.704   5.782   4.098
   87PPPE  C31145061   1.672   5.686   4.287
   87PPPE  H11X45062   1.770   5.639   4.311
   87PPPE  H11Y45063   1.593   5.622   4.333
   87PPPE  C31245064   1.672   5.826   4.352
   87PPPE  H12X45065   1.585   5.885   4.316
   87PPPE  H12Y45066   1.765   5.877   4.320
   87PPPE  C31345067   1.670   5.820   4.505
   87PPPE  H13X45068   1.741   5.741   4.536
   87PPPE  H13Y45069   1.569   5.790   4.542
   87PPPE  C31445070   1.716   5.949   4.575
   87PPPE  H14X45071   1.814   5.979   4.533
   87PPPE  H14Y45072   1.733   5.925   4.682
   87PPPE  C31545073   1.618   6.066   4.569
   87PPPE  H15X45074   1.589   6.087   4.464
   87PPPE  H15Y45075   1.670   6.156   4.608
   87PPPE  C31645076   1.492   6.045   4.655
   87PPPE  H16X45077   1.425   5.970   4.608
   87PPPE  H16Y45078   1.519   6.009   4.756
   87PPPE  H16Z45079   1.435   6.140   4.667
   88PPPE     N45080   1.832   2.157   2.441
   88PPPE   HN145081   1.856   2.204   2.531
   88PPPE   HN245082   1.920   2.164   2.386
   88PPPE   HN345083   1.753   2.207   2.397
   88PPPE   C1245084   1.803   2.013   2.480
   88PPPE  H12A45085   1.769   1.958   2.390
   88PPPE  H12B45086   1.720   2.015   2.554
   88PPPE   C1145087   1.926   1.944   2.543
   88PPPE  H11A45088   1.987   1.897   2.462
   88PPPE  H11B45089   1.894   1.862   2.609
   88PPPE     P45090   1.956   2.117   2.737
   88PPPE   O1345091   1.937   2.251   2.675
   88PPPE   O1445092   1.834   2.050   2.784
   88PPPE   O1145093   2.072   2.116   2.843
   88PPPE   O1245094   2.012   2.035   2.613
   88PPPE    C145095   2.192   2.039   2.833
   88PPPE    HA45096   2.279   2.109   2.833
   88PPPE    HB45097   2.199   1.980   2.739
   88PPPE    C245098   2.213   1.937   2.951
   88PPPE    HS45099   2.274   1.852   2.914
   88PPPE   O2145100   2.088   1.889   3.005
   88PPPE   C2145101   2.015   1.818   2.922
   88PPPE   O2245102   2.047   1.784   2.810
   88PPPE   C2245103   1.883   1.775   2.988
   88PPPE   H2R45104   1.880   1.664   2.985
   88PPPE   H2S45105   1.802   1.815   2.924
   88PPPE    C345106   2.294   2.002   3.068
   88PPPE    HX45107   2.302   1.926   3.148
   88PPPE    HY45108   2.396   2.025   3.031
   88PPPE   O3145109   2.228   2.123   3.109
   88PPPE   C3145110   2.243   2.155   3.236
   88PPPE   O3245111   2.319   2.102   3.315
   88PPPE   C3245112   2.144   2.267   3.267
   88PPPE   H2X45113   2.047   2.242   3.219
   88PPPE   H2Y45114   2.184   2.360   3.220
   88PPPE   C2345115   1.859   1.824   3.134
   88PPPE   H3R45116   1.859   1.935   3.135
   88PPPE   H3S45117   1.941   1.790   3.200
   88PPPE   C2445118   1.724   1.773   3.188
   88PPPE   H4R45119   1.731   1.664   3.207
   88PPPE   H4S45120   1.647   1.788   3.109
   88PPPE   C2545121   1.675   1.845   3.314
   88PPPE   H5R45122   1.571   1.811   3.337
   88PPPE   H5S45123   1.670   1.954   3.295
   88PPPE   C2645124   1.760   1.820   3.439
   88PPPE   H6R45125   1.858   1.871   3.426
   88PPPE   H6S45126   1.780   1.711   3.451
   88PPPE   C2745127   1.692   1.873   3.566
   88PPPE   H7R45128   1.612   1.803   3.599
   88PPPE   H7S45129   1.645   1.971   3.542
   88PPPE   C2845130   1.791   1.898   3.682
   88PPPE   H8R45131   1.737   1.952   3.763
   88PPPE   H8S45132   1.868   1.969   3.644
   88PPPE   C2945133   1.858   1.773   3.733
   88PPPE   H9145134   1.915   1.717   3.658
   88PPPE  C21045135   1.856   1.728   3.860
   88PPPE  H10145136   1.913   1.637   3.885
   88PPPE  C21145137   1.786   1.792   3.977
   88PPPE  H11R45138   1.752   1.714   4.047
   88PPPE  H11S45139   1.695   1.848   3.945
   88PPPE  C21245140   1.878   1.890   4.052
   88PPPE  H12R45141   1.922   1.963   3.981
   88PPPE  H12S45142   1.962   1.834   4.097
   88PPPE  C21345143   1.806   1.968   4.163
   88PPPE  H13R45144   1.736   2.042   4.120
   88PPPE  H13S45145   1.882   2.025   4.222
   88PPPE  C21445146   1.729   1.877   4.260
   88PPPE  H14R45147   1.795   1.792   4.289
   88PPPE  H14S45148   1.640   1.835   4.209
   88PPPE  C21545149   1.685   1.949   4.387
   88PPPE  H15R45150   1.615   2.031   4.361
   88PPPE  H15S45151   1.774   1.995   4.436
   88PPPE  C21645152   1.619   1.854   4.486
   88PPPE  H16R45153   1.685   1.767   4.507
   88PPPE  H16S45154   1.600   1.905   4.583
   88PPPE  H16T45155   1.522   1.815   4.448
   88PPPE   C3345156   2.125   2.289   3.418
   88PPPE   H3X45157   2.064   2.381   3.434
   88PPPE   H3Y45158   2.223   2.307   3.467
   88PPPE   C3445159   2.056   2.172   3.488
   88PPPE   H4X45160   2.110   2.077   3.465
   88PPPE   H4Y45161   1.951   2.160   3.451
   88PPPE   C3545162   2.056   2.188   3.641
   88PPPE   H5X45163   2.160   2.208   3.674
   88PPPE   H5Y45164   2.025   2.093   3.688
   88PPPE   C3645165   1.963   2.300   3.688
   88PPPE   H6X45166   1.868   2.295   3.631
   88PPPE   H6Y45167   2.010   2.398   3.668
   88PPPE   C3745168   1.930   2.287   3.839
   88PPPE   H7X45169   1.882   2.189   3.855
   88PPPE   H7Y45170   1.858   2.366   3.867
   88PPPE   C3845171   2.054   2.298   3.927
   88PPPE   H8X45172   2.097   2.400   3.921
   88PPPE   H8Y45173   2.133   2.228   3.892
   88PPPE   C3945174   2.021   2.264   4.073
   88PPPE   H9X45175   1.980   2.161   4.076
   88PPPE   H9Y45176   1.939   2.331   4.108
   88PPPE  C31045177   2.140   2.275   4.168
   88PPPE  H10X45178   2.105   2.249   4.270
   88PPPE  H10Y45179   2.177   2.379   4.170
   88PPPE  C31145180   2.258   2.181   4.134
   88PPPE  H11X45181   2.326   2.182   4.220
   88PPPE  H11Y45182   2.314   2.222   4.046
   88PPPE  C31245183   2.214   2.037   4.101
   88PPPE  H12X45184   2.158   2.037   4.005
   88PPPE  H12Y45185   2.142   2.004   4.179
   88PPPE  C31345186   2.329   1.936   4.089
   88PPPE  H13X45187   2.392   1.968   4.003
   88PPPE  H13Y45188   2.286   1.836   4.065
   88PPPE  C31445189   2.419   1.922   4.212
   88PPPE  H14X45190   2.459   2.020   4.245
   88PPPE  H14Y45191   2.507   1.861   4.181
   88PPPE  C31545192   2.357   1.850   4.334
   88PPPE  H15X45193   2.441   1.827   4.403
   88PPPE  H15Y45194   2.313   1.753   4.302
   88PPPE  C31645195   2.253   1.930   4.414
   88PPPE  H16X45196   2.243   1.887   4.516
   88PPPE  H16Y45197   2.282   2.036   4.424
   88PPPE  H16Z45198   2.152   1.925   4.367
   89PPPE     N45199   6.320   6.343   2.946
   89PPPE   HN145200   6.370   6.434   2.952
   89PPPE   HN245201   6.274   6.324   3.037
   89PPPE   HN345202   6.388   6.268   2.924
   89PPPE   C1245203   6.222   6.344   2.832
   89PPPE  H12A45204   6.171   6.443   2.829
   89PPPE  H12B45205   6.147   6.265   2.851
   89PPPE   C1145206   6.296   6.314   2.700
   89PPPE  H11A45207   6.359   6.401   2.673
   89PPPE  H11B45208   6.220   6.301   2.620
   89PPPE     P45209   6.397   6.090   2.604
   89PPPE   O1345210   6.293   5.985   2.620
   89PPPE   O1445211   6.405   6.154   2.472
   89PPPE   O1145212   6.537   6.025   2.633
   89PPPE   O1245213   6.379   6.199   2.718
   89PPPE    C145214   6.614   6.049   2.751
   89PPPE    HA45215   6.609   6.154   2.785
   89PPPE    HB45216   6.720   6.028   2.727
   89PPPE    C245217   6.574   5.954   2.867
   89PPPE    HS45218   6.567   5.853   2.821
   89PPPE   O2145219   6.448   5.998   2.924
   89PPPE   C2145220   6.375   5.899   2.974
   89PPPE   O2245221   6.402   5.781   2.966
   89PPPE   C2245222   6.248   5.954   3.036
   89PPPE   H2R45223   6.177   5.869   3.047
   89PPPE   H2S45224   6.203   6.028   2.966
   89PPPE    C345225   6.682   5.946   2.979
   89PPPE    HX45226   6.649   5.871   3.054
   89PPPE    HY45227   6.776   5.907   2.936
   89PPPE   O3145228   6.697   6.074   3.045
   89PPPE   C3145229   6.805   6.144   3.016
   89PPPE   O3245230   6.891   6.114   2.936
   89PPPE   C3245231   6.799   6.278   3.090
   89PPPE   H2X45232   6.730   6.344   3.033
   89PPPE   H2Y45233   6.901   6.323   3.087
   89PPPE   C2345234   6.271   6.018   3.175
   89PPPE   H3R45235   6.173   6.055   3.212
   89PPPE   H3S45236   6.340   6.105   3.169
   89PPPE   C2445237   6.325   5.919   3.278
   89PPPE   H4R45238   6.435   5.908   3.266
   89PPPE   H4S45239   6.280   5.818   3.264
   89PPPE   C2545240   6.296   5.964   3.422
   89PPPE   H5R45241   6.188   5.946   3.445
   89PPPE   H5S45242   6.312   6.074   3.431
   89PPPE   C2645243   6.383   5.895   3.528
   89PPPE   H6R45244   6.449   5.819   3.480
   89PPPE   H6S45245   6.317   5.841   3.599
   89PPPE   C2745246   6.468   5.994   3.608
   89PPPE   H7R45247   6.512   5.941   3.694
   89PPPE   H7S45248   6.401   6.072   3.648
   89PPPE   C2845249   6.581   6.059   3.525
   89PPPE   H8R45250   6.542   6.082   3.424
   89PPPE   H8S45251   6.662   5.984   3.510
   89PPPE   C2945252   6.635   6.185   3.587
   89PPPE   H9145253   6.613   6.277   3.531
   89PPPE  C21045254   6.702   6.196   3.703
   89PPPE  H10145255   6.733   6.295   3.740
   89PPPE  C21145256   6.735   6.081   3.793
   89PPPE  H11R45257   6.841   6.088   3.827
   89PPPE  H11S45258   6.727   5.985   3.736
   89PPPE  C21245259   6.644   6.062   3.915
   89PPPE  H12R45260   6.631   5.953   3.929
   89PPPE  H12S45261   6.542   6.104   3.899
   89PPPE  C21345262   6.704   6.115   4.045
   89PPPE  H13R45263   6.664   6.216   4.069
   89PPPE  H13S45264   6.814   6.127   4.035
   89PPPE  C21445265   6.680   6.016   4.160
   89PPPE  H14R45266   6.727   5.920   4.130
   89PPPE  H14S45267   6.572   5.997   4.174
   89PPPE  C21545268   6.743   6.061   4.292
   89PPPE  H15R45269   6.670   6.123   4.349
   89PPPE  H15S45270   6.830   6.126   4.270
   89PPPE  C21645271   6.790   5.942   4.377
   89PPPE  H16R45272   6.706   5.890   4.426
   89PPPE  H16S45273   6.843   5.868   4.313
   89PPPE  H16T45274   6.860   5.977   4.454
   89PPPE   C3345275   6.752   6.267   3.238
   89PPPE   H3X45276   6.831   6.217   3.297
   89PPPE   H3Y45277   6.660   6.205   3.247
   89PPPE   C3445278   6.723   6.405   3.299
   89PPPE   H4X45279   6.802   6.476   3.266
   89PPPE   H4Y45280   6.731   6.401   3.410
   89PPPE   C3545281   6.587   6.464   3.260
   89PPPE   H5X45282   6.568   6.442   3.153
   89PPPE   H5Y45283   6.595   6.575   3.271
   89PPPE   C3645284   6.468   6.418   3.346
   89PPPE   H6X45285   6.474   6.308   3.361
   89PPPE   H6Y45286   6.373   6.439   3.292
   89PPPE   C3745287   6.459   6.490   3.481
   89PPPE   H7X45288   6.446   6.599   3.467
   89PPPE   H7Y45289   6.554   6.476   3.537
   89PPPE   C3845290   6.343   6.438   3.568
   89PPPE   H8X45291   6.345   6.327   3.569
   89PPPE   H8Y45292   6.247   6.469   3.520
   89PPPE   C3945293   6.344   6.487   3.714
   89PPPE   H9X45294   6.248   6.458   3.759
   89PPPE   H9Y45295   6.351   6.598   3.717
   89PPPE  C31045296   6.458   6.426   3.796
   89PPPE  H10X45297   6.556   6.468   3.763
   89PPPE  H10Y45298   6.461   6.316   3.776
   89PPPE  C31145299   6.445   6.444   3.948
   89PPPE  H11X45300   6.441   6.552   3.974
   89PPPE  H11Y45301   6.535   6.401   3.997
   89PPPE  C31245302   6.321   6.372   4.004
   89PPPE  H12X45303   6.316   6.270   3.960
   89PPPE  H12Y45304   6.230   6.426   3.973
   89PPPE  C31345305   6.320   6.359   4.157
   89PPPE  H13X45306   6.217   6.332   4.189
   89PPPE  H13Y45307   6.345   6.456   4.204
   89PPPE  C31445308   6.414   6.249   4.208
   89PPPE  H14X45309   6.518   6.286   4.207
   89PPPE  H14Y45310   6.408   6.160   4.141
   89PPPE  C31545311   6.381   6.202   4.351
   89PPPE  H15X45312   6.454   6.124   4.380
   89PPPE  H15Y45313   6.280   6.156   4.352
   89PPPE  C31645314   6.385   6.315   4.452
   89PPPE  H16X45315   6.377   6.274   4.556
   89PPPE  H16Y45316   6.479   6.373   4.444
   89PPPE  H16Z45317   6.300   6.385   4.436
   90PPPE     N45318   4.196   6.951   2.924
   90PPPE   HN145319   4.135   7.007   2.861
   90PPPE   HN245320   4.143   6.871   2.964
   90PPPE   HN345321   4.229   7.013   3.002
   90PPPE   C1245322   4.312   6.908   2.838
   90PPPE  H12A45323   4.275   6.830   2.769
   90PPPE  H12B45324   4.391   6.865   2.903
   90PPPE   C1145325   4.365   7.028   2.756
   90PPPE  H11A45326   4.442   6.989   2.686
   90PPPE  H11B45327   4.414   7.101   2.824
   90PPPE     P45328   4.285   7.203   2.580
   90PPPE   O1345329   4.408   7.169   2.504
   90PPPE   O1445330   4.164   7.230   2.501
   90PPPE   O1145331   4.308   7.329   2.674
   90PPPE   O1245332   4.256   7.088   2.686
   90PPPE    C145333   4.205   7.354   2.771
   90PPPE    HA45334   4.200   7.272   2.846
   90PPPE    HB45335   4.105   7.363   2.723
   90PPPE    C245336   4.230   7.484   2.851
   90PPPE    HS45337   4.254   7.564   2.776
   90PPPE   O2145338   4.339   7.461   2.941
   90PPPE   C2145339   4.400   7.571   2.983
   90PPPE   O2245340   4.380   7.683   2.938
   90PPPE   C2245341   4.504   7.534   3.089
   90PPPE   H2R45342   4.532   7.626   3.143
   90PPPE   H2S45343   4.593   7.497   3.035
   90PPPE    C345344   4.101   7.525   2.929
   90PPPE    HX45345   4.118   7.621   2.983
   90PPPE    HY45346   4.022   7.546   2.853
   90PPPE   O3145347   4.056   7.417   3.013
   90PPPE   C3145348   4.094   7.426   3.141
   90PPPE   O3245349   4.153   7.522   3.188
   90PPPE   C3245350   4.060   7.296   3.212
   90PPPE   H2X45351   4.140   7.222   3.193
   90PPPE   H2Y45352   3.964   7.258   3.170
   90PPPE   C2345353   4.458   7.425   3.188
   90PPPE   H3R45354   4.404   7.344   3.134
   90PPPE   H3S45355   4.387   7.469   3.262
   90PPPE   C2445356   4.573   7.356   3.264
   90PPPE   H4R45357   4.658   7.340   3.194
   90PPPE   H4S45358   4.539   7.256   3.299
   90PPPE   C2545359   4.620   7.435   3.387
   90PPPE   H5R45360   4.585   7.540   3.381
   90PPPE   H5S45361   4.731   7.435   3.387
   90PPPE   C2645362   4.575   7.374   3.520
   90PPPE   H6R45363   4.617   7.271   3.528
   90PPPE   H6S45364   4.464   7.366   3.525
   90PPPE   C2745365   4.626   7.456   3.641
   90PPPE   H7R45366   4.562   7.546   3.655
   90PPPE   H7S45367   4.728   7.491   3.617
   90PPPE   C2845368   4.634   7.376   3.771
   90PPPE   H8R45369   4.692   7.438   3.844
   90PPPE   H8S45370   4.695   7.285   3.754
   90PPPE   C2945371   4.501   7.338   3.830
   90PPPE   H9145372   4.461   7.241   3.799
   90PPPE  C21045373   4.430   7.412   3.917
   90PPPE  H10145374   4.336   7.372   3.957
   90PPPE  C21145375   4.468   7.547   3.972
   90PPPE  H11R45376   4.400   7.624   3.931
   90PPPE  H11S45377   4.572   7.577   3.944
   90PPPE  C21245378   4.459   7.557   4.125
   90PPPE  H12R45379   4.358   7.526   4.158
   90PPPE  H12S45380   4.471   7.663   4.156
   90PPPE  C21345381   4.562   7.471   4.200
   90PPPE  H13R45382   4.662   7.521   4.198
   90PPPE  H13S45383   4.573   7.374   4.146
   90PPPE  C21445384   4.521   7.437   4.344
   90PPPE  H14R45385   4.591   7.363   4.389
   90PPPE  H14S45386   4.423   7.385   4.334
   90PPPE  C21545387   4.506   7.555   4.440
   90PPPE  H15R45388   4.432   7.628   4.400
   90PPPE  H15S45389   4.605   7.606   4.445
   90PPPE  C21645390   4.467   7.517   4.583
   90PPPE  H16R45391   4.471   7.605   4.650
   90PPPE  H16S45392   4.364   7.476   4.587
   90PPPE  H16T45393   4.537   7.440   4.624
   90PPPE   C3345394   4.041   7.313   3.365
   90PPPE   H3X45395   3.986   7.224   3.403
   90PPPE   H3Y45396   3.979   7.402   3.387
   90PPPE   C3445397   4.174   7.323   3.443
   90PPPE   H4X45398   4.239   7.399   3.396
   90PPPE   H4Y45399   4.227   7.225   3.439
   90PPPE   C3545400   4.153   7.364   3.589
   90PPPE   H5X45401   4.115   7.469   3.590
   90PPPE   H5Y45402   4.252   7.365   3.641
   90PPPE   C3645403   4.056   7.274   3.667
   90PPPE   H6X45404   4.089   7.168   3.656
   90PPPE   H6Y45405   3.954   7.282   3.623
   90PPPE   C3745406   4.048   7.309   3.815
   90PPPE   H7X45407   4.150   7.301   3.860
   90PPPE   H7Y45408   3.984   7.234   3.866
   90PPPE   C3845409   3.990   7.448   3.844
   90PPPE   H8X45410   3.887   7.452   3.801
   90PPPE   H8Y45411   4.050   7.527   3.792
   90PPPE   C3945412   3.984   7.479   3.993
   90PPPE   H9X45413   3.991   7.382   4.049
   90PPPE   H9Y45414   3.886   7.524   4.017
   90PPPE  C31045415   4.097   7.571   4.042
   90PPPE  H10X45416   4.099   7.664   3.979
   90PPPE  H10Y45417   4.193   7.518   4.023
   90PPPE  C31145418   4.091   7.611   4.189
   90PPPE  H11X45419   4.015   7.690   4.203
   90PPPE  H11Y45420   4.188   7.655   4.221
   90PPPE  C31245421   4.055   7.495   4.285
   90PPPE  H12X45422   3.963   7.445   4.249
   90PPPE  H12Y45423   4.032   7.541   4.384
   90PPPE  C31345424   4.170   7.395   4.304
   90PPPE  H13X45425   4.239   7.439   4.378
   90PPPE  H13Y45426   4.223   7.384   4.207
   90PPPE  C31445427   4.134   7.251   4.345
   90PPPE  H14X45428   4.057   7.212   4.275
   90PPPE  H14Y45429   4.092   7.249   4.447
   90PPPE  C31545430   4.256   7.156   4.339
   90PPPE  H15X45431   4.307   7.173   4.240
   90PPPE  H15Y45432   4.219   7.051   4.337
   90PPPE  C31645433   4.359   7.170   4.450
   90PPPE  H16X45434   4.463   7.158   4.411
   90PPPE  H16Y45435   4.350   7.269   4.500
   90PPPE  H16Z45436   4.345   7.092   4.530
   91PPPE     N45437   3.246   1.079   2.468
   91PPPE   HN145438   3.205   1.164   2.423
   91PPPE   HN245439   3.350   1.080   2.465
   91PPPE   HN345440   3.218   0.997   2.411
   91PPPE   C1245441   3.202   1.062   2.610
   91PPPE  H12A45442   3.091   1.065   2.612
   91PPPE  H12B45443   3.243   1.147   2.669
   91PPPE   C1145444   3.254   0.928   2.666
   91PPPE  H11A45445   3.188   0.846   2.632
   91PPPE  H11B45446   3.243   0.936   2.776
   91PPPE     P45447   3.498   0.832   2.715
   91PPPE   O1345448   3.479   0.684   2.711
   91PPPE   O1445449   3.630   0.875   2.667
   91PPPE   O1145450   3.472   0.886   2.861
   91PPPE   O1245451   3.388   0.902   2.624
   91PPPE    C145452   3.391   0.822   2.960
   91PPPE    HA45453   3.458   0.769   3.031
   91PPPE    HB45454   3.321   0.747   2.917
   91PPPE    C245455   3.305   0.923   3.044
   91PPPE    HS45456   3.229   0.968   2.977
   91PPPE   O2145457   3.390   1.024   3.102
   91PPPE   C2145458   3.406   1.134   3.031
   91PPPE   O2245459   3.355   1.159   2.924
   91PPPE   C2245460   3.499   1.232   3.106
   91PPPE   H2R45461   3.443   1.326   3.124
   91PPPE   H2S45462   3.583   1.253   3.037
   91PPPE    C345463   3.223   0.856   3.160
   91PPPE    HX45464   3.161   0.936   3.205
   91PPPE    HY45465   3.151   0.782   3.116
   91PPPE   O3145466   3.305   0.799   3.264
   91PPPE   C3145467   3.333   0.671   3.252
   91PPPE   O3245468   3.301   0.598   3.160
   91PPPE   C3245469   3.426   0.628   3.365
   91PPPE   H2X45470   3.521   0.684   3.353
   91PPPE   H2Y45471   3.446   0.520   3.348
   91PPPE   C2345472   3.556   1.179   3.240
   91PPPE   H3R45473   3.645   1.239   3.268
   91PPPE   H3S45474   3.591   1.074   3.227
   91PPPE   C2445475   3.458   1.184   3.358
   91PPPE   H4R45476   3.361   1.137   3.329
   91PPPE   H4S45477   3.438   1.289   3.388
   91PPPE   C2545478   3.514   1.105   3.477
   91PPPE   H5R45479   3.608   1.153   3.512
   91PPPE   H5S45480   3.537   1.003   3.440
   91PPPE   C2645481   3.420   1.085   3.597
   91PPPE   H6R45482   3.463   1.006   3.661
   91PPPE   H6S45483   3.322   1.049   3.559
   91PPPE   C2745484   3.403   1.211   3.683
   91PPPE   H7R45485   3.346   1.287   3.627
   91PPPE   H7S45486   3.503   1.254   3.707
   91PPPE   C2845487   3.333   1.182   3.818
   91PPPE   H8R45488   3.309   1.278   3.867
   91PPPE   H8S45489   3.405   1.128   3.882
   91PPPE   C2945490   3.207   1.100   3.796
   91PPPE   H9145491   3.149   1.129   3.707
   91PPPE  C21045492   3.161   1.001   3.875
   91PPPE  H10145493   3.067   0.951   3.847
   91PPPE  C21145494   3.224   0.951   4.002
   91PPPE  H11R45495   3.173   1.000   4.089
   91PPPE  H11S45496   3.331   0.978   4.009
   91PPPE  C21245497   3.211   0.799   4.023
   91PPPE  H12R45498   3.249   0.746   3.931
   91PPPE  H12S45499   3.104   0.771   4.035
   91PPPE  C21345500   3.292   0.748   4.143
   91PPPE  H13R45501   3.399   0.769   4.125
   91PPPE  H13S45502   3.280   0.638   4.153
   91PPPE  C21445503   3.253   0.815   4.276
   91PPPE  H14R45504   3.147   0.795   4.299
   91PPPE  H14S45505   3.265   0.925   4.267
   91PPPE  C21545506   3.341   0.769   4.393
   91PPPE  H15R45507   3.448   0.780   4.366
   91PPPE  H15S45508   3.324   0.661   4.411
   91PPPE  C21645509   3.315   0.847   4.523
   91PPPE  H16R45510   3.378   0.810   4.605
   91PPPE  H16S45511   3.337   0.955   4.507
   91PPPE  H16T45512   3.209   0.839   4.554
   91PPPE   C3345513   3.372   0.647   3.509
   91PPPE   H3X45514   3.270   0.603   3.517
   91PPPE   H3Y45515   3.365   0.755   3.532
   91PPPE   C3445516   3.464   0.577   3.609
   91PPPE   H4X45517   3.567   0.620   3.602
   91PPPE   H4Y45518   3.470   0.470   3.582
   91PPPE   C3545519   3.417   0.585   3.754
   91PPPE   H5X45520   3.309   0.558   3.756
   91PPPE   H5Y45521   3.425   0.689   3.792
   91PPPE   C3645522   3.494   0.488   3.846
   91PPPE   H6X45523   3.505   0.390   3.795
   91PPPE   H6Y45524   3.436   0.470   3.939
   91PPPE   C3745525   3.630   0.540   3.892
   91PPPE   H7X45526   3.687   0.582   3.807
   91PPPE   H7Y45527   3.689   0.455   3.933
   91PPPE   C3845528   3.615   0.644   4.003
   91PPPE   H8X45529   3.561   0.599   4.089
   91PPPE   H8Y45530   3.554   0.729   3.966
   91PPPE   C3945531   3.750   0.696   4.052
   91PPPE   H9X45532   3.801   0.743   3.965
   91PPPE   H9Y45533   3.811   0.609   4.087
   91PPPE  C31045534   3.739   0.797   4.167
   91PPPE  H10X45535   3.837   0.808   4.217
   91PPPE  H10Y45536   3.668   0.757   4.242
   91PPPE  C31145537   3.692   0.936   4.122
   91PPPE  H11X45538   3.629   0.927   4.030
   91PPPE  H11Y45539   3.781   0.998   4.094
   91PPPE  C31245540   3.609   1.007   4.228
   91PPPE  H12X45541   3.666   1.012   4.323
   91PPPE  H12Y45542   3.518   0.945   4.247
   91PPPE  C31345543   3.562   1.147   4.188
   91PPPE  H13X45544   3.527   1.146   4.083
   91PPPE  H13Y45545   3.647   1.218   4.196
   91PPPE  C31445546   3.448   1.199   4.278
   91PPPE  H14X45547   3.358   1.137   4.260
   91PPPE  H14Y45548   3.422   1.303   4.247
   91PPPE  C31545549   3.480   1.199   4.427
   91PPPE  H15X45550   3.498   1.095   4.462
   91PPPE  H15Y45551   3.389   1.235   4.481
   91PPPE  C31645552   3.599   1.286   4.469
   91PPPE  H16X45553   3.613   1.284   4.578
   91PPPE  H16Y45554   3.693   1.249   4.421
   91PPPE  H16Z45555   3.583   1.392   4.438
   92PPPE     N45556   5.524   6.864   2.855
   92PPPE   HN145557   5.527   6.841   2.957
   92PPPE   HN245558   5.618   6.895   2.823
   92PPPE   HN345559   5.457   6.942   2.838
   92PPPE   C1245560   5.489   6.745   2.770
   92PPPE  H12A45561   5.415   6.778   2.694
   92PPPE  H12B45562   5.444   6.666   2.834
   92PPPE   C1145563   5.616   6.695   2.699
   92PPPE  H11A45564   5.589   6.615   2.626
   92PPPE  H11B45565   5.685   6.650   2.775
   92PPPE     P45566   5.825   6.794   2.573
   92PPPE   O1345567   5.908   6.717   2.667
   92PPPE   O1445568   5.817   6.741   2.434
   92PPPE   O1145569   5.867   6.946   2.565
   92PPPE   O1245570   5.678   6.805   2.631
   92PPPE    C145571   5.822   7.046   2.657
   92PPPE    HA45572   5.716   7.032   2.686
   92PPPE    HB45573   5.828   7.145   2.606
   92PPPE    C245574   5.910   7.059   2.785
   92PPPE    HS45575   6.012   7.085   2.751
   92PPPE   O2145576   5.907   6.935   2.858
   92PPPE   C2145577   6.011   6.917   2.938
   92PPPE   O2245578   6.107   6.991   2.948
   92PPPE   C2245579   5.992   6.788   3.016
   92PPPE   H2R45580   6.074   6.781   3.091
   92PPPE   H2S45581   6.001   6.704   2.944
   92PPPE    C345582   5.856   7.172   2.877
   92PPPE    HX45583   5.925   7.179   2.964
   92PPPE    HY45584   5.860   7.268   2.822
   92PPPE   O3145585   5.722   7.142   2.921
   92PPPE   C3145586   5.677   7.230   3.011
   92PPPE   O3245587   5.732   7.333   3.043
   92PPPE   C3245588   5.544   7.180   3.066
   92PPPE   H2X45589   5.512   7.089   3.012
   92PPPE   H2Y45590   5.469   7.260   3.046
   92PPPE   C2345591   5.854   6.782   3.087
   92PPPE   H3R45592   5.775   6.814   3.016
   92PPPE   H3S45593   5.853   6.853   3.172
   92PPPE   C2445594   5.817   6.641   3.134
   92PPPE   H4R45595   5.830   6.570   3.049
   92PPPE   H4S45596   5.710   6.639   3.163
   92PPPE   C2545597   5.899   6.591   3.254
   92PPPE   H5R45598   6.008   6.594   3.233
   92PPPE   H5S45599   5.872   6.485   3.271
   92PPPE   C2645600   5.871   6.669   3.384
   92PPPE   H6R45601   5.764   6.698   3.386
   92PPPE   H6S45602   5.932   6.762   3.387
   92PPPE   C2745603   5.898   6.582   3.507
   92PPPE   H7R45604   6.004   6.548   3.509
   92PPPE   H7S45605   5.834   6.492   3.498
   92PPPE   C2845606   5.862   6.648   3.642
   92PPPE   H8R45607   5.856   6.567   3.719
   92PPPE   H8S45608   5.760   6.690   3.635
   92PPPE   C2945609   5.959   6.756   3.684
   92PPPE   H9145610   5.960   6.844   3.618
   92PPPE  C21045611   6.040   6.754   3.792
   92PPPE  H10145612   6.104   6.842   3.811
   92PPPE  C21145613   6.053   6.645   3.895
   92PPPE  H11R45614   6.161   6.622   3.910
   92PPPE  H11S45615   6.004   6.551   3.863
   92PPPE  C21245616   5.994   6.685   4.032
   92PPPE  H12R45617   5.994   6.596   4.098
   92PPPE  H12S45618   5.889   6.718   4.020
   92PPPE  C21345619   6.075   6.796   4.102
   92PPPE  H13R45620   6.083   6.884   4.035
   92PPPE  H13S45621   6.177   6.759   4.123
   92PPPE  C21445622   6.011   6.845   4.233
   92PPPE  H14R45623   5.908   6.882   4.214
   92PPPE  H14S45624   6.071   6.932   4.270
   92PPPE  C21545625   6.006   6.741   4.345
   92PPPE  H15R45626   6.108   6.700   4.362
   92PPPE  H15S45627   5.940   6.657   4.315
   92PPPE  C21645628   5.954   6.801   4.476
   92PPPE  H16R45629   5.951   6.723   4.556
   92PPPE  H16S45630   6.020   6.883   4.511
   92PPPE  H16T45631   5.851   6.842   4.464
   92PPPE   C3345632   5.551   7.152   3.219
   92PPPE   H3X45633   5.448   7.125   3.252
   92PPPE   H3Y45634   5.581   7.244   3.273
   92PPPE   C3445635   5.646   7.038   3.257
   92PPPE   H4X45636   5.751   7.075   3.248
   92PPPE   H4Y45637   5.634   6.952   3.188
   92PPPE   C3545638   5.624   6.988   3.401
   92PPPE   H5X45639   5.621   7.075   3.470
   92PPPE   H5Y45640   5.712   6.926   3.431
   92PPPE   C3645641   5.497   6.903   3.418
   92PPPE   H6X45642   5.498   6.823   3.341
   92PPPE   H6Y45643   5.407   6.966   3.400
   92PPPE   C3745644   5.484   6.836   3.556
   92PPPE   H7X45645   5.576   6.777   3.576
   92PPPE   H7Y45646   5.399   6.764   3.554
   92PPPE   C3845647   5.460   6.934   3.671
   92PPPE   H8X45648   5.369   6.994   3.648
   92PPPE   H8Y45649   5.546   7.004   3.679
   92PPPE   C3945650   5.439   6.866   3.808
   92PPPE   H9X45651   5.356   6.793   3.801
   92PPPE   H9Y45652   5.409   6.944   3.880
   92PPPE  C31045653   5.564   6.794   3.862
   92PPPE  H10X45654   5.651   6.863   3.858
   92PPPE  H10Y45655   5.587   6.706   3.797
   92PPPE  C31145656   5.551   6.744   4.007
   92PPPE  H11X45657   5.640   6.683   4.032
   92PPPE  H11Y45658   5.462   6.678   4.016
   92PPPE  C31245659   5.541   6.858   4.109
   92PPPE  H12X45660   5.447   6.915   4.091
   92PPPE  H12Y45661   5.626   6.928   4.095
   92PPPE  C31345662   5.540   6.813   4.256
   92PPPE  H13X45663   5.630   6.753   4.280
   92PPPE  H13Y45664   5.451   6.748   4.273
   92PPPE  C31445665   5.533   6.935   4.351
   92PPPE  H14X45666   5.454   7.003   4.311
   92PPPE  H14Y45667   5.630   6.990   4.345
   92PPPE  C31545668   5.499   6.905   4.497
   92PPPE  H15X45669   5.497   7.002   4.551
   92PPPE  H15Y45670   5.581   6.846   4.543
   92PPPE  C31645671   5.365   6.834   4.518
   92PPPE  H16X45672   5.285   6.882   4.457
   92PPPE  H16Y45673   5.371   6.727   4.490
   92PPPE  H16Z45674   5.334   6.840   4.624
   93PPPE     N45675   7.168   3.538   2.547
   93PPPE   HN145676   7.075   3.565   2.509
   93PPPE   HN245677   7.232   3.619   2.543
   93PPPE   HN345678   7.211   3.466   2.486
   93PPPE   C1245679   7.168   3.477   2.685
   93PPPE  H12A45680   7.063   3.456   2.715
   93PPPE  H12B45681   7.212   3.552   2.755
   93PPPE   C1145682   7.253   3.349   2.684
   93PPPE  H11A45683   7.189   3.265   2.649
   93PPPE  H11B45684   7.285   3.322   2.788
   93PPPE     P45685   7.496   3.436   2.638
   93PPPE   O1345686   7.592   3.420   2.526
   93PPPE   O1445687   7.454   3.575   2.667
   93PPPE   O1145688   7.543   3.359   2.767
   93PPPE   O1245689   7.365   3.358   2.595
   93PPPE    C145690   7.578   3.221   2.752
   93PPPE    HA45691   7.650   3.207   2.669
   93PPPE    HB45692   7.488   3.161   2.729
   93PPPE    C245693   7.650   3.158   2.877
   93PPPE    HS45694   7.674   3.053   2.851
   93PPPE   O2145695   7.567   3.162   2.995
   93PPPE   C2145696   7.464   3.079   2.995
   93PPPE   O2245697   7.428   3.011   2.900
   93PPPE   C2245698   7.396   3.072   3.134
   93PPPE   H2R45699   7.388   2.965   3.160
   93PPPE   H2S45700   7.294   3.114   3.120
   93PPPE    C345701   7.786   3.228   2.907
   93PPPE    HX45702   7.855   3.155   2.954
   93PPPE    HY45703   7.832   3.254   2.809
   93PPPE   O3145704   7.771   3.349   2.985
   93PPPE   C3145705   7.780   3.331   3.117
   93PPPE   O3245706   7.816   3.229   3.172
   93PPPE   C3245707   7.737   3.459   3.188
   93PPPE   H2X45708   7.649   3.434   3.252
   93PPPE   H2Y45709   7.706   3.533   3.112
   93PPPE   C2345710   7.465   3.144   3.252
   93PPPE   H3R45711   7.386   3.167   3.326
   93PPPE   H3S45712   7.511   3.240   3.221
   93PPPE   C2445713   7.570   3.056   3.323
   93PPPE   H4R45714   7.652   3.033   3.252
   93PPPE   H4S45715   7.525   2.959   3.354
   93PPPE   C2545716   7.632   3.124   3.447
   93PPPE   H5R45717   7.664   3.226   3.417
   93PPPE   H5S45718   7.724   3.068   3.477
   93PPPE   C2645719   7.538   3.132   3.569
   93PPPE   H6R45720   7.542   3.037   3.625
   93PPPE   H6S45721   7.434   3.145   3.533
   93PPPE   C2745722   7.570   3.251   3.661
   93PPPE   H7R45723   7.485   3.268   3.730
   93PPPE   H7S45724   7.579   3.342   3.598
   93PPPE   C2845725   7.700   3.236   3.743
   93PPPE   H8R45726   7.733   3.338   3.771
   93PPPE   H8S45727   7.780   3.194   3.679
   93PPPE   C2945728   7.681   3.151   3.866
   93PPPE   H9145729   7.630   3.054   3.848
   93PPPE  C21045730   7.721   3.180   3.991
   93PPPE  H10145731   7.700   3.108   4.072
   93PPPE  C21145732   7.794   3.304   4.035
   93PPPE  H11R45733   7.851   3.349   3.951
   93PPPE  H11S45734   7.870   3.278   4.112
   93PPPE  C21245735   7.701   3.412   4.094
   93PPPE  H12R45736   7.619   3.430   4.021
   93PPPE  H12S45737   7.758   3.507   4.104
   93PPPE  C21345738   7.640   3.378   4.231
   93PPPE  H13R45739   7.590   3.279   4.227
   93PPPE  H13S45740   7.563   3.454   4.253
   93PPPE  C21445741   7.742   3.381   4.346
   93PPPE  H14R45742   7.797   3.477   4.340
   93PPPE  H14S45743   7.816   3.298   4.334
   93PPPE  C21545744   7.677   3.370   4.484
   93PPPE  H15R45745   7.587   3.436   4.487
   93PPPE  H15S45746   7.747   3.409   4.561
   93PPPE  C21645747   7.637   3.228   4.523
   93PPPE  H16R45748   7.573   3.228   4.615
   93PPPE  H16S45749   7.582   3.178   4.441
   93PPPE  H16T45750   7.728   3.167   4.545
   93PPPE   C3345751   7.850   3.517   3.276
   93PPPE   H3X45752   7.946   3.512   3.221
   93PPPE   H3Y45753   7.862   3.457   3.370
   93PPPE   C3445754   7.826   3.665   3.311
   93PPPE   H4X45755   7.809   3.720   3.216
   93PPPE   H4Y45756   7.919   3.707   3.356
   93PPPE   C3545757   7.709   3.690   3.406
   93PPPE   H5X45758   7.622   3.628   3.377
   93PPPE   H5Y45759   7.678   3.797   3.399
   93PPPE   C3645760   7.745   3.662   3.552
   93PPPE   H6X45761   7.827   3.730   3.583
   93PPPE   H6Y45762   7.782   3.558   3.563
   93PPPE   C3745763   7.625   3.682   3.645
   93PPPE   H7X45764   7.548   3.606   3.620
   93PPPE   H7Y45765   7.581   3.783   3.628
   93PPPE   C3845766   7.662   3.670   3.794
   93PPPE   H8X45767   7.734   3.750   3.821
   93PPPE   H8Y45768   7.713   3.573   3.811
   93PPPE   C3945769   7.540   3.677   3.887
   93PPPE   H9X45770   7.492   3.777   3.880
   93PPPE   H9Y45771   7.576   3.665   3.991
   93PPPE  C31045772   7.438   3.568   3.856
   93PPPE  H10X45773   7.493   3.474   3.834
   93PPPE  H10Y45774   7.378   3.594   3.766
   93PPPE  C31145775   7.344   3.539   3.973
   93PPPE  H11X45776   7.277   3.626   3.992
   93PPPE  H11Y45777   7.408   3.527   4.063
   93PPPE  C31245778   7.261   3.412   3.951
   93PPPE  H12X45779   7.329   3.330   3.919
   93PPPE  H12Y45780   7.188   3.430   3.870
   93PPPE  C31345781   7.187   3.366   4.077
   93PPPE  H13X45782   7.119   3.281   4.051
   93PPPE  H13Y45783   7.125   3.449   4.115
   93PPPE  C31445784   7.283   3.319   4.188
   93PPPE  H14X45785   7.351   3.403   4.216
   93PPPE  H14Y45786   7.347   3.236   4.149
   93PPPE  C31545787   7.212   3.275   4.313
   93PPPE  H15X45788   7.146   3.188   4.289
   93PPPE  H15Y45789   7.148   3.358   4.351
   93PPPE  C31645790   7.310   3.236   4.424
   93PPPE  H16X45791   7.379   3.321   4.446
   93PPPE  H16Y45792   7.256   3.208   4.516
   93PPPE  H16Z45793   7.373   3.150   4.391
   94PPPE     N45794   6.872   5.691   2.403
   94PPPE   HN145795   6.922   5.603   2.380
   94PPPE   HN245796   6.836   5.682   2.500
   94PPPE   HN345797   6.792   5.709   2.339
   94PPPE   C1245798   6.968   5.807   2.406
   94PPPE  H12A45799   6.908   5.900   2.408
   94PPPE  H12B45800   7.030   5.804   2.315
   94PPPE   C1145801   7.056   5.800   2.532
   94PPPE  H11A45802   7.108   5.897   2.545
   94PPPE  H11B45803   7.136   5.723   2.518
   94PPPE     P45804   6.966   5.636   2.720
   94PPPE   O1345805   6.824   5.610   2.743
   94PPPE   O1445806   7.038   5.539   2.634
   94PPPE   O1145807   7.047   5.667   2.852
   94PPPE   O1245808   6.973   5.775   2.645
   94PPPE    C145809   7.141   5.775   2.851
   94PPPE    HA45810   7.091   5.872   2.830
   94PPPE    HB45811   7.220   5.757   2.775
   94PPPE    C245812   7.213   5.789   2.987
   94PPPE    HS45813   7.293   5.865   2.976
   94PPPE   O2145814   7.266   5.660   3.023
   94PPPE   C2145815   7.370   5.662   3.103
   94PPPE   O2245816   7.445   5.755   3.122
   94PPPE   C2245817   7.382   5.524   3.168
   94PPPE   H2R45818   7.450   5.534   3.254
   94PPPE   H2S45819   7.428   5.455   3.094
   94PPPE    C345820   7.115   5.839   3.096
   94PPPE    HX45821   7.050   5.916   3.050
   94PPPE    HY45822   7.050   5.754   3.128
   94PPPE   O3145823   7.188   5.894   3.208
   94PPPE   C3145824   7.113   5.962   3.294
   94PPPE   O3245825   6.991   5.969   3.289
   94PPPE   C3245826   7.202   6.043   3.386
   94PPPE   H2X45827   7.136   6.120   3.432
   94PPPE   H2Y45828   7.279   6.095   3.325
   94PPPE   C2345829   7.246   5.469   3.216
   94PPPE   H3R45830   7.259   5.364   3.252
   94PPPE   H3S45831   7.170   5.467   3.135
   94PPPE   C2445832   7.194   5.552   3.333
   94PPPE   H4R45833   7.166   5.654   3.299
   94PPPE   H4S45834   7.277   5.565   3.407
   94PPPE   C2545835   7.074   5.494   3.410
   94PPPE   H5R45836   7.091   5.388   3.436
   94PPPE   H5S45837   6.985   5.499   3.344
   94PPPE   C2645838   7.049   5.576   3.536
   94PPPE   H6R45839   7.078   5.681   3.514
   94PPPE   H6S45840   7.115   5.542   3.620
   94PPPE   C2745841   6.903   5.573   3.580
   94PPPE   H7R45842   6.880   5.471   3.617
   94PPPE   H7S45843   6.838   5.593   3.491
   94PPPE   C2845844   6.867   5.674   3.690
   94PPPE   H8R45845   6.918   5.642   3.785
   94PPPE   H8S45846   6.758   5.668   3.712
   94PPPE   C2945847   6.900   5.815   3.650
   94PPPE   H9145848   6.843   5.854   3.565
   94PPPE  C21045849   6.991   5.893   3.709
   94PPPE  H10145850   7.004   5.997   3.674
   94PPPE  C21145851   7.078   5.854   3.825
   94PPPE  H11R45852   7.092   5.744   3.832
   94PPPE  H11S45853   7.180   5.897   3.813
   94PPPE  C21245854   7.024   5.902   3.959
   94PPPE  H12R45855   7.036   5.820   4.033
   94PPPE  H12S45856   6.914   5.921   3.957
   94PPPE  C21345857   7.099   6.025   4.011
   94PPPE  H13R45858   7.058   6.116   3.962
   94PPPE  H13S45859   7.207   6.019   3.988
   94PPPE  C21445860   7.084   6.034   4.163
   94PPPE  H14R45861   6.980   6.002   4.188
   94PPPE  H14S45862   7.095   6.140   4.195
   94PPPE  C21545863   7.182   5.943   4.240
   94PPPE  H15R45864   7.280   5.995   4.250
   94PPPE  H15S45865   7.205   5.853   4.179
   94PPPE  C21645866   7.131   5.897   4.375
   94PPPE  H16R45867   7.092   5.983   4.434
   94PPPE  H16S45868   7.049   5.823   4.362
   94PPPE  H16T45869   7.212   5.849   4.434
   94PPPE   C3345870   7.272   5.966   3.502
   94PPPE   H3X45871   7.196   5.921   3.569
   94PPPE   H3Y45872   7.329   6.040   3.561
   94PPPE   C3445873   7.367   5.855   3.457
   94PPPE   H4X45874   7.425   5.890   3.370
   94PPPE   H4Y45875   7.307   5.768   3.422
   94PPPE   C3545876   7.464   5.810   3.569
   94PPPE   H5X45877   7.507   5.900   3.616
   94PPPE   H5Y45878   7.547   5.751   3.525
   94PPPE   C3645879   7.399   5.727   3.681
   94PPPE   H6X45880   7.370   5.627   3.642
   94PPPE   H6Y45881   7.305   5.778   3.712
   94PPPE   C3745882   7.489   5.713   3.806
   94PPPE   H7X45883   7.556   5.801   3.811
   94PPPE   H7Y45884   7.553   5.623   3.795
   94PPPE   C3845885   7.410   5.708   3.938
   94PPPE   H8X45886   7.352   5.802   3.950
   94PPPE   H8Y45887   7.482   5.705   4.023
   94PPPE   C3945888   7.316   5.588   3.950
   94PPPE   H9X45889   7.376   5.495   3.957
   94PPPE   H9Y45890   7.251   5.583   3.860
   94PPPE  C31045891   7.226   5.589   4.073
   94PPPE  H10X45892   7.178   5.689   4.082
   94PPPE  H10Y45893   7.288   5.574   4.164
   94PPPE  C31145894   7.112   5.487   4.066
   94PPPE  H11X45895   7.155   5.387   4.042
   94PPPE  H11Y45896   7.044   5.516   3.983
   94PPPE  C31245897   7.033   5.476   4.196
   94PPPE  H12X45898   6.948   5.406   4.179
   94PPPE  H12Y45899   6.989   5.574   4.226
   94PPPE  C31345900   7.116   5.419   4.311
   94PPPE  H13X45901   7.174   5.501   4.360
   94PPPE  H13Y45902   7.190   5.350   4.266
   94PPPE  C31445903   7.038   5.336   4.413
   94PPPE  H14X45904   7.102   5.249   4.440
   94PPPE  H14Y45905   6.945   5.295   4.367
   94PPPE  C31545906   7.006   5.406   4.545
   94PPPE  H15X45907   6.946   5.337   4.608
   94PPPE  H15Y45908   6.942   5.495   4.523
   94PPPE  C31645909   7.130   5.448   4.625
   94PPPE  H16X45910   7.198   5.362   4.638
   94PPPE  H16Y45911   7.186   5.529   4.573
   94PPPE  H16Z45912   7.101   5.486   4.726
   95PPPE     N45913   0.950   2.465   2.634
   95PPPE   HN145914   0.859   2.416   2.636
   95PPPE   HN245915   0.954   2.538   2.708
   95PPPE   HN345916   0.963   2.514   2.543
   95PPPE   C1245917   1.066   2.371   2.654
   95PPPE  H12A45918   1.081   2.317   2.558
   95PPPE  H12B45919   1.040   2.299   2.734
   95PPPE   C1145920   1.191   2.451   2.690
   95PPPE  H11A45921   1.280   2.384   2.687
   95PPPE  H11B45922   1.184   2.490   2.794
   95PPPE     P45923   1.330   2.600   2.521
   95PPPE   O1345924   1.413   2.480   2.499
   95PPPE   O1445925   1.280   2.664   2.396
   95PPPE   O1145926   1.402   2.708   2.611
   95PPPE   O1245927   1.200   2.562   2.601
   95PPPE    C145928   1.326   2.796   2.694
   95PPPE    HA45929   1.216   2.786   2.682
   95PPPE    HB45930   1.350   2.901   2.667
   95PPPE    C245931   1.354   2.783   2.848
   95PPPE    HS45932   1.448   2.839   2.867
   95PPPE   O2145933   1.370   2.644   2.888
   95PPPE   C2145934   1.416   2.632   3.013
   95PPPE   O2245935   1.453   2.725   3.082
   95PPPE   C2245936   1.405   2.487   3.061
   95PPPE   H2R45937   1.476   2.425   3.002
   95PPPE   H2S45938   1.302   2.452   3.042
   95PPPE    C345939   1.237   2.850   2.927
   95PPPE    HX45940   1.276   2.878   3.028
   95PPPE    HY45941   1.210   2.945   2.877
   95PPPE   O3145942   1.124   2.761   2.931
   95PPPE   C3145943   1.073   2.741   3.052
   95PPPE   O3245944   1.070   2.822   3.142
   95PPPE   C3245945   1.026   2.596   3.061
   95PPPE   H2X45946   1.084   2.535   2.987
   95PPPE   H2Y45947   0.919   2.592   3.033
   95PPPE   C2345948   1.438   2.476   3.212
   95PPPE   H3R45949   1.380   2.554   3.266
   95PPPE   H3S45950   1.546   2.498   3.227
   95PPPE   C2445951   1.403   2.343   3.280
   95PPPE   H4R45952   1.453   2.259   3.228
   95PPPE   H4S45953   1.293   2.327   3.273
   95PPPE   C2545954   1.445   2.342   3.429
   95PPPE   H5R45955   1.440   2.445   3.469
   95PPPE   H5S45956   1.551   2.309   3.436
   95PPPE   C2645957   1.356   2.253   3.517
   95PPPE   H6R45958   1.343   2.155   3.467
   95PPPE   H6S45959   1.256   2.301   3.528
   95PPPE   C2745960   1.410   2.227   3.660
   95PPPE   H7R45961   1.508   2.176   3.653
   95PPPE   H7S45962   1.340   2.156   3.709
   95PPPE   C2845963   1.425   2.352   3.749
   95PPPE   H8R45964   1.331   2.411   3.745
   95PPPE   H8S45965   1.506   2.416   3.708
   95PPPE   C2945966   1.456   2.313   3.892
   95PPPE   H9145967   1.493   2.210   3.905
   95PPPE  C21045968   1.443   2.389   4.002
   95PPPE  H10145969   1.469   2.346   4.101
   95PPPE  C21145970   1.397   2.533   4.009
   95PPPE  H11R45971   1.403   2.580   3.908
   95PPPE  H11S45972   1.464   2.590   4.075
   95PPPE  C21245973   1.252   2.553   4.057
   95PPPE  H12R45974   1.185   2.497   3.987
   95PPPE  H12S45975   1.225   2.660   4.049
   95PPPE  C21345976   1.222   2.506   4.200
   95PPPE  H13R45977   1.266   2.405   4.219
   95PPPE  H13S45978   1.112   2.497   4.210
   95PPPE  C21445979   1.268   2.603   4.311
   95PPPE  H14R45980   1.220   2.702   4.294
   95PPPE  H14S45981   1.378   2.618   4.304
   95PPPE  C21545982   1.232   2.552   4.451
   95PPPE  H15R45983   1.290   2.460   4.471
   95PPPE  H15S45984   1.125   2.523   4.452
   95PPPE  C21645985   1.256   2.654   4.562
   95PPPE  H16R45986   1.362   2.688   4.562
   95PPPE  H16S45987   1.190   2.742   4.550
   95PPPE  H16T45988   1.236   2.608   4.662
   95PPPE   C3345989   1.047   2.535   3.201
   95PPPE   H3X45990   1.003   2.600   3.280
   95PPPE   H3Y45991   1.155   2.528   3.224
   95PPPE   C3445992   0.984   2.395   3.212
   95PPPE   H4X45993   1.036   2.329   3.138
   95PPPE   H4Y45994   0.877   2.399   3.183
   95PPPE   C3545995   0.996   2.332   3.351
   95PPPE   H5X45996   0.933   2.387   3.424
   95PPPE   H5Y45997   1.101   2.341   3.384
   95PPPE   C3645998   0.957   2.184   3.348
   95PPPE   H6X45999   1.008   2.137   3.261
   95PPPE   H6Y46000   0.847   2.174   3.332
   95PPPE   C3746001   0.999   2.103   3.472
   95PPPE   H7X46002   1.106   2.119   3.495
   95PPPE   H7Y46003   0.987   1.996   3.445
   95PPPE   C3846004   0.915   2.126   3.601
   95PPPE   H8X46005   0.905   2.028   3.651
   95PPPE   H8Y46006   0.812   2.160   3.573
   95PPPE   C3946007   0.981   2.222   3.700
   95PPPE   H9X46008   0.982   2.326   3.660
   95PPPE   H9Y46009   1.086   2.191   3.714
   95PPPE  C31046010   0.914   2.220   3.839
   95PPPE  H10X46011   0.900   2.114   3.872
   95PPPE  H10Y46012   0.814   2.268   3.837
   95PPPE  C31146013   1.002   2.289   3.944
   95PPPE  H11X46014   1.010   2.397   3.920
   95PPPE  H11Y46015   1.104   2.246   3.938
   95PPPE  C31246016   0.955   2.272   4.090
   95PPPE  H12X46017   1.046   2.280   4.155
   95PPPE  H12Y46018   0.913   2.170   4.108
   95PPPE  C31346019   0.857   2.380   4.138
   95PPPE  H13X46020   0.755   2.359   4.098
   95PPPE  H13Y46021   0.890   2.478   4.096
   95PPPE  C31446022   0.854   2.394   4.292
   95PPPE  H14X46023   0.958   2.405   4.327
   95PPPE  H14Y46024   0.814   2.301   4.337
   95PPPE  C31546025   0.775   2.516   4.341
   95PPPE  H15X46026   0.670   2.485   4.365
   95PPPE  H15Y46027   0.769   2.591   4.259
   95PPPE  C31646028   0.836   2.583   4.464
   95PPPE  H16X46029   0.932   2.633   4.438
   95PPPE  H16Y46030   0.767   2.660   4.506
   95PPPE  H16Z46031   0.857   2.508   4.543
   96PPPE     N46032   5.687   0.823   2.695
   96PPPE   HN146033   5.614   0.763   2.650
   96PPPE   HN246034   5.694   0.908   2.636
   96PPPE   HN346035   5.776   0.768   2.695
   96PPPE   C1246036   5.637   0.865   2.830
   96PPPE  H12A46037   5.723   0.897   2.892
   96PPPE  H12B46038   5.589   0.776   2.877
   96PPPE   C1146039   5.533   0.978   2.817
   96PPPE  H11A46040   5.585   1.076   2.818
   96PPPE  H11B46041   5.468   0.978   2.907
   96PPPE     P46042   5.474   1.052   2.574
   96PPPE   O1346043   5.620   1.057   2.549
   96PPPE   O1446044   5.393   1.008   2.459
   96PPPE   O1146045   5.423   1.194   2.619
   96PPPE   O1246046   5.452   0.959   2.700
   96PPPE    C146047   5.291   1.200   2.675
   96PPPE    HA46048   5.264   1.108   2.732
   96PPPE    HB46049   5.215   1.212   2.595
   96PPPE    C246050   5.271   1.318   2.776
   96PPPE    HS46051   5.240   1.405   2.714
   96PPPE   O2146052   5.395   1.347   2.845
   96PPPE   C2146053   5.389   1.466   2.907
   96PPPE   O2246054   5.304   1.550   2.886
   96PPPE   C2246055   5.502   1.486   3.007
   96PPPE   H2R46056   5.454   1.488   3.108
   96PPPE   H2S46057   5.546   1.586   2.988
   96PPPE    C346058   5.156   1.284   2.877
   96PPPE    HX46059   5.143   1.367   2.950
   96PPPE    HY46060   5.061   1.282   2.817
   96PPPE   O3146061   5.171   1.156   2.943
   96PPPE   C3146062   5.244   1.155   3.054
   96PPPE   O3246063   5.310   1.248   3.095
   96PPPE   C3246064   5.233   1.019   3.122
   96PPPE   H2X46065   5.285   0.942   3.058
   96PPPE   H2Y46066   5.126   0.993   3.127
   96PPPE   C2346067   5.613   1.378   3.006
   96PPPE   H3R46068   5.659   1.376   2.905
   96PPPE   H3S46069   5.569   1.278   3.026
   96PPPE   C2446070   5.723   1.408   3.110
   96PPPE   H4R46071   5.734   1.517   3.125
   96PPPE   H4S46072   5.818   1.371   3.069
   96PPPE   C2546073   5.703   1.338   3.247
   96PPPE   H5R46074   5.801   1.335   3.297
   96PPPE   H5S46075   5.670   1.233   3.229
   96PPPE   C2646076   5.606   1.403   3.344
   96PPPE   H6R46077   5.503   1.406   3.301
   96PPPE   H6S46078   5.639   1.507   3.365
   96PPPE   C2746079   5.601   1.323   3.476
   96PPPE   H7R46080   5.703   1.312   3.517
   96PPPE   H7S46081   5.564   1.221   3.453
   96PPPE   C2846082   5.508   1.384   3.582
   96PPPE   H8R46083   5.493   1.309   3.662
   96PPPE   H8S46084   5.408   1.403   3.537
   96PPPE   C2946085   5.565   1.511   3.642
   96PPPE   H9146086   5.653   1.553   3.591
   96PPPE  C21046087   5.517   1.572   3.752
   96PPPE  H10146088   5.567   1.663   3.788
   96PPPE  C21146089   5.399   1.527   3.833
   96PPPE  H11R46090   5.325   1.471   3.770
   96PPPE  H11S46091   5.345   1.616   3.872
   96PPPE  C21246092   5.436   1.437   3.953
   96PPPE  H12R46093   5.464   1.335   3.917
   96PPPE  H12S46094   5.345   1.426   4.016
   96PPPE  C21346095   5.549   1.493   4.040
   96PPPE  H13R46096   5.541   1.604   4.039
   96PPPE  H13S46097   5.647   1.466   3.993
   96PPPE  C21446098   5.548   1.447   4.186
   96PPPE  H14R46099   5.642   1.481   4.234
   96PPPE  H14S46100   5.546   1.336   4.191
   96PPPE  C21546101   5.431   1.504   4.269
   96PPPE  H15R46102   5.335   1.467   4.228
   96PPPE  H15S46103   5.431   1.615   4.259
   96PPPE  C21646104   5.439   1.467   4.417
   96PPPE  H16R46105   5.435   1.357   4.431
   96PPPE  H16S46106   5.534   1.504   4.462
   96PPPE  H16T46107   5.354   1.512   4.473
   96PPPE   C3346108   5.292   1.021   3.264
   96PPPE   H3X46109   5.251   1.109   3.319
   96PPPE   H3Y46110   5.402   1.033   3.260
   96PPPE   C3446111   5.255   0.896   3.344
   96PPPE   H4X46112   5.278   0.806   3.283
   96PPPE   H4Y46113   5.146   0.896   3.365
   96PPPE   C3546114   5.332   0.884   3.476
   96PPPE   H5X46115   5.441   0.880   3.453
   96PPPE   H5Y46116   5.304   0.789   3.526
   96PPPE   C3646117   5.311   0.999   3.576
   96PPPE   H6X46118   5.337   1.097   3.530
   96PPPE   H6Y46119   5.383   0.982   3.660
   96PPPE   C3746120   5.169   1.005   3.634
   96PPPE   H7X46121   5.139   0.904   3.667
   96PPPE   H7Y46122   5.099   1.035   3.554
   96PPPE   C3846123   5.155   1.102   3.752
   96PPPE   H8X46124   5.048   1.106   3.782
   96PPPE   H8Y46125   5.184   1.204   3.720
   96PPPE   C3946126   5.238   1.061   3.875
   96PPPE   H9X46127   5.346   1.066   3.849
   96PPPE   H9Y46128   5.214   0.956   3.903
   96PPPE  C31046129   5.214   1.152   3.995
   96PPPE  H10X46130   5.111   1.139   4.033
   96PPPE  H10Y46131   5.224   1.257   3.960
   96PPPE  C31146132   5.315   1.134   4.109
   96PPPE  H11X46133   5.292   1.209   4.188
   96PPPE  H11Y46134   5.417   1.155   4.071
   96PPPE  C31246135   5.311   0.994   4.171
   96PPPE  H12X46136   5.360   0.921   4.104
   96PPPE  H12Y46137   5.205   0.963   4.183
   96PPPE  C31346138   5.377   0.990   4.311
   96PPPE  H13X46139   5.364   0.888   4.354
   96PPPE  H13Y46140   5.326   1.061   4.378
   96PPPE  C31446141   5.526   1.027   4.311
   96PPPE  H14X46142   5.544   1.119   4.253
   96PPPE  H14Y46143   5.583   0.945   4.263
   96PPPE  C31546144   5.575   1.050   4.455
   96PPPE  H15X46145   5.493   1.024   4.525
   96PPPE  H15Y46146   5.596   1.157   4.470
   96PPPE  C31646147   5.697   0.966   4.490
   96PPPE  H16X46148   5.783   0.997   4.426
   96PPPE  H16Y46149   5.724   0.980   4.596
   96PPPE  H16Z46150   5.677   0.858   4.472
   97PPPE     N46151   7.191   2.238   2.438
   97PPPE   HN146152   7.219   2.334   2.410
   97PPPE   HN246153   7.265   2.174   2.403
   97PPPE   HN346154   7.104   2.215   2.386
   97PPPE   C1246155   7.170   2.237   2.587
   97PPPE  H12A46156   7.268   2.258   2.634
   97PPPE  H12B46157   7.134   2.137   2.618
   97PPPE   C1146158   7.070   2.347   2.627
   97PPPE  H11A46159   7.080   2.362   2.737
   97PPPE  H11B46160   6.966   2.313   2.607
   97PPPE     P46161   7.062   2.611   2.605
   97PPPE   O1346162   7.170   2.700   2.556
   97PPPE   O1446163   6.924   2.644   2.561
   97PPPE   O1146164   7.066   2.596   2.762
   97PPPE   O1246165   7.096   2.466   2.552
   97PPPE    C146166   6.949   2.580   2.843
   97PPPE    HA46167   6.967   2.500   2.918
   97PPPE    HB46168   6.860   2.550   2.784
   97PPPE    C246169   6.918   2.711   2.919
   97PPPE    HS46170   6.938   2.793   2.846
   97PPPE   O2146171   7.006   2.719   3.032
   97PPPE   C2146172   7.025   2.844   3.075
   97PPPE   O2246173   6.982   2.943   3.019
   97PPPE   C2246174   7.112   2.846   3.201
   97PPPE   H2R46175   7.085   2.937   3.259
   97PPPE   H2S46176   7.217   2.856   3.167
   97PPPE    C346177   6.767   2.724   2.960
   97PPPE    HX46178   6.750   2.825   3.002
   97PPPE    HY46179   6.708   2.722   2.866
   97PPPE   O3146180   6.716   2.619   3.046
   97PPPE   C3146181   6.728   2.648   3.177
   97PPPE   O3246182   6.795   2.740   3.220
   97PPPE   C3246183   6.645   2.554   3.263
   97PPPE   H2X46184   6.671   2.449   3.238
   97PPPE   H2Y46185   6.538   2.572   3.240
   97PPPE   C2346186   7.103   2.722   3.293
   97PPPE   H3R46187   7.136   2.631   3.238
   97PPPE   H3S46188   6.998   2.706   3.326
   97PPPE   C2446189   7.188   2.738   3.420
   97PPPE   H4R46190   7.156   2.830   3.473
   97PPPE   H4S46191   7.295   2.751   3.393
   97PPPE   C2546192   7.172   2.619   3.516
   97PPPE   H5R46193   7.218   2.529   3.467
   97PPPE   H5S46194   7.065   2.597   3.532
   97PPPE   C2646195   7.240   2.643   3.651
   97PPPE   H6R46196   7.175   2.707   3.714
   97PPPE   H6S46197   7.334   2.699   3.634
   97PPPE   C2746198   7.274   2.513   3.726
   97PPPE   H7R46199   7.328   2.539   3.818
   97PPPE   H7S46200   7.341   2.453   3.660
   97PPPE   C2846201   7.153   2.425   3.759
   97PPPE   H8R46202   7.107   2.391   3.663
   97PPPE   H8S46203   7.078   2.489   3.809
   97PPPE   C2946204   7.192   2.305   3.841
   97PPPE   H9146205   7.262   2.236   3.793
   97PPPE  C21046206   7.150   2.276   3.966
   97PPPE  H10146207   7.183   2.182   4.012
   97PPPE  C21146208   7.055   2.355   4.054
   97PPPE  H11R46209   6.957   2.305   4.062
   97PPPE  H11S46210   7.038   2.457   4.012
   97PPPE  C21246211   7.118   2.369   4.193
   97PPPE  H12R46212   7.219   2.416   4.186
   97PPPE  H12S46213   7.129   2.267   4.233
   97PPPE  C21346214   7.038   2.444   4.299
   97PPPE  H13R46215   6.941   2.392   4.318
   97PPPE  H13S46216   7.014   2.548   4.267
   97PPPE  C21446217   7.119   2.447   4.431
   97PPPE  H14R46218   7.207   2.514   4.417
   97PPPE  H14S46219   7.159   2.345   4.448
   97PPPE  C21546220   7.040   2.486   4.554
   97PPPE  H15R46221   7.105   2.471   4.643
   97PPPE  H15S46222   6.953   2.418   4.565
   97PPPE  C21646223   6.993   2.631   4.554
   97PPPE  H16R46224   6.939   2.656   4.648
   97PPPE  H16S46225   7.082   2.698   4.546
   97PPPE  H16T46226   6.926   2.652   4.466
   97PPPE   C3346227   6.669   2.580   3.413
   97PPPE   H3X46228   6.648   2.686   3.438
   97PPPE   H3Y46229   6.776   2.562   3.438
   97PPPE   C3446230   6.583   2.491   3.505
   97PPPE   H4X46231   6.578   2.388   3.464
   97PPPE   H4Y46232   6.480   2.531   3.507
   97PPPE   C3546233   6.637   2.482   3.648
   97PPPE   H5X46234   6.735   2.428   3.650
   97PPPE   H5Y46235   6.566   2.424   3.710
   97PPPE   C3646236   6.661   2.619   3.714
   97PPPE   H6X46237   6.568   2.678   3.702
   97PPPE   H6Y46238   6.743   2.673   3.662
   97PPPE   C3746239   6.692   2.608   3.865
   97PPPE   H7X46240   6.625   2.532   3.910
   97PPPE   H7Y46241   6.668   2.706   3.910
   97PPPE   C3846242   6.837   2.578   3.903
   97PPPE   H8X46243   6.875   2.491   3.846
   97PPPE   H8Y46244   6.834   2.550   4.011
   97PPPE   C3946245   6.929   2.702   3.891
   97PPPE   H9X46246   6.866   2.789   3.917
   97PPPE   H9Y46247   6.962   2.714   3.785
   97PPPE  C31046248   7.048   2.708   3.987
   97PPPE  H10X46249   7.135   2.651   3.947
   97PPPE  H10Y46250   7.016   2.658   4.082
   97PPPE  C31146251   7.091   2.851   4.023
   97PPPE  H11X46252   7.006   2.899   4.076
   97PPPE  H11Y46253   7.111   2.909   3.931
   97PPPE  C31246254   7.214   2.858   4.116
   97PPPE  H12X46255   7.220   2.962   4.156
   97PPPE  H12Y46256   7.306   2.839   4.058
   97PPPE  C31346257   7.208   2.758   4.233
   97PPPE  H13X46258   7.239   2.658   4.196
   97PPPE  H13Y46259   7.103   2.750   4.268
   97PPPE  C31446260   7.293   2.798   4.353
   97PPPE  H14X46261   7.394   2.833   4.321
   97PPPE  H14Y46262   7.308   2.708   4.418
   97PPPE  C31546263   7.224   2.905   4.438
   97PPPE  H15X46264   7.119   2.874   4.457
   97PPPE  H15Y46265   7.216   2.998   4.377
   97PPPE  C31646266   7.293   2.934   4.571
   97PPPE  H16X46267   7.228   2.996   4.636
   97PPPE  H16Y46268   7.315   2.838   4.623
   97PPPE  H16Z46269   7.388   2.988   4.556
   98PPPE     N46270   7.656   4.089   2.861
   98PPPE   HN146271   7.715   4.169   2.891
   98PPPE   HN246272   7.564   4.126   2.829
   98PPPE   HN346273   7.644   4.023   2.941
   98PPPE   C1246274   7.724   4.024   2.744
   98PPPE  H12A46275   7.832   4.049   2.750
   98PPPE  H12B46276   7.714   3.913   2.753
   98PPPE   C1146277   7.664   4.072   2.609
   98PPPE  H11A46278   7.575   4.008   2.589
   98PPPE  H11B46279   7.738   4.049   2.529
   98PPPE     P46280   7.484   4.258   2.618
   98PPPE   O1346281   7.421   4.236   2.485
   98PPPE   O1446282   7.430   4.186   2.735
   98PPPE   O1146283   7.492   4.413   2.648
   98PPPE   O1246284   7.635   4.212   2.607
   98PPPE    C146285   7.604   4.470   2.717
   98PPPE    HA46286   7.622   4.571   2.675
   98PPPE    HB46287   7.698   4.414   2.704
   98PPPE    C246288   7.580   4.493   2.870
   98PPPE    HS46289   7.662   4.562   2.898
   98PPPE   O2146290   7.586   4.367   2.940
   98PPPE   C2146291   7.625   4.386   3.068
   98PPPE   O2246292   7.687   4.483   3.105
   98PPPE   C2246293   7.579   4.272   3.156
   98PPPE   H2R46294   7.622   4.176   3.120
   98PPPE   H2S46295   7.468   4.267   3.149
   98PPPE    C346296   7.445   4.563   2.901
   98PPPE    HX46297   7.422   4.638   2.822
   98PPPE    HY46298   7.365   4.486   2.896
   98PPPE   O3146299   7.447   4.622   3.035
   98PPPE   C3146300   7.508   4.740   3.040
   98PPPE   O3246301   7.537   4.808   2.943
   98PPPE   C3246302   7.535   4.786   3.183
   98PPPE   H2X46303   7.452   4.853   3.214
   98PPPE   H2Y46304   7.628   4.847   3.177
   98PPPE   C2346305   7.619   4.294   3.304
   98PPPE   H3R46306   7.607   4.400   3.333
   98PPPE   H3S46307   7.726   4.267   3.319
   98PPPE   C2446308   7.531   4.214   3.401
   98PPPE   H4R46309   7.531   4.106   3.374
   98PPPE   H4S46310   7.426   4.250   3.392
   98PPPE   C2546311   7.577   4.229   3.547
   98PPPE   H5R46312   7.605   4.335   3.566
   98PPPE   H5S46313   7.669   4.169   3.561
   98PPPE   C2646314   7.473   4.186   3.651
   98PPPE   H6R46315   7.520   4.194   3.752
   98PPPE   H6S46316   7.446   4.079   3.636
   98PPPE   C2746317   7.344   4.271   3.655
   98PPPE   H7R46318   7.288   4.243   3.747
   98PPPE   H7S46319   7.279   4.246   3.568
   98PPPE   C2846320   7.371   4.423   3.655
   98PPPE   H8R46321   7.404   4.452   3.554
   98PPPE   H8S46322   7.457   4.440   3.724
   98PPPE   C2946323   7.252   4.507   3.695
   98PPPE   H9146324   7.173   4.512   3.620
   98PPPE  C21046325   7.235   4.572   3.811
   98PPPE  H10146326   7.141   4.628   3.827
   98PPPE  C21146327   7.327   4.576   3.931
   98PPPE  H11R46328   7.344   4.680   3.964
   98PPPE  H11S46329   7.427   4.533   3.907
   98PPPE  C21246330   7.267   4.495   4.046
   98PPPE  H12R46331   7.247   4.392   4.010
   98PPPE  H12S46332   7.171   4.540   4.078
   98PPPE  C21346333   7.357   4.483   4.170
   98PPPE  H13R46334   7.359   4.581   4.223
   98PPPE  H13S46335   7.461   4.460   4.138
   98PPPE  C21446336   7.310   4.370   4.263
   98PPPE  H14R46337   7.392   4.296   4.274
   98PPPE  H14S46338   7.224   4.318   4.217
   98PPPE  C21546339   7.268   4.417   4.403
   98PPPE  H15R46340   7.223   4.331   4.457
   98PPPE  H15S46341   7.188   4.493   4.393
   98PPPE  C21646342   7.381   4.477   4.487
   98PPPE  H16R46343   7.350   4.485   4.594
   98PPPE  H16S46344   7.471   4.412   4.483
   98PPPE  H16T46345   7.407   4.578   4.452
   98PPPE   C3346346   7.559   4.678   3.292
   98PPPE   H3X46347   7.660   4.633   3.278
   98PPPE   H3Y46348   7.482   4.597   3.287
   98PPPE   C3446349   7.558   4.742   3.429
   98PPPE   H4X46350   7.453   4.764   3.459
   98PPPE   H4Y46351   7.613   4.839   3.419
   98PPPE   C3546352   7.629   4.667   3.542
   98PPPE   H5X46353   7.736   4.654   3.517
   98PPPE   H5Y46354   7.583   4.567   3.556
   98PPPE   C3646355   7.616   4.747   3.672
   98PPPE   H6X46356   7.509   4.767   3.691
   98PPPE   H6Y46357   7.667   4.845   3.661
   98PPPE   C3746358   7.674   4.673   3.792
   98PPPE   H7X46359   7.783   4.657   3.780
   98PPPE   H7Y46360   7.625   4.574   3.799
   98PPPE   C3846361   7.649   4.748   3.924
   98PPPE   H8X46362   7.543   4.780   3.931
   98PPPE   H8Y46363   7.711   4.841   3.927
   98PPPE   C3946364   7.681   4.659   4.044
   98PPPE   H9X46365   7.786   4.624   4.039
   98PPPE   H9Y46366   7.616   4.569   4.039
   98PPPE  C31046367   7.658   4.729   4.179
   98PPPE  H10X46368   7.554   4.766   4.184
   98PPPE  H10Y46369   7.725   4.817   4.188
   98PPPE  C31146370   7.683   4.634   4.297
   98PPPE  H11X46371   7.708   4.532   4.260
   98PPPE  H11Y46372   7.589   4.625   4.355
   98PPPE  C31246373   7.794   4.681   4.392
   98PPPE  H12X46374   7.779   4.790   4.412
   98PPPE  H12Y46375   7.893   4.669   4.344
   98PPPE  C31346376   7.791   4.608   4.528
   98PPPE  H13X46377   7.688   4.613   4.569
   98PPPE  H13Y46378   7.857   4.661   4.599
   98PPPE  C31446379   7.833   4.461   4.521
   98PPPE  H14X46380   7.941   4.457   4.497
   98PPPE  H14Y46381   7.777   4.407   4.443
   98PPPE  C31546382   7.809   4.392   4.656
   98PPPE  H15X46383   7.847   4.458   4.736
   98PPPE  H15Y46384   7.868   4.298   4.660
   98PPPE  C31646385   7.663   4.354   4.684
   98PPPE  H16X46386   7.623   4.291   4.602
   98PPPE  H16Y46387   7.657   4.297   4.778
   98PPPE  H16Z46388   7.600   4.445   4.694
   99PPPE     N46389   0.813   4.664   2.536
   99PPPE   HN146390   0.817   4.649   2.639
   99PPPE   HN246391   0.723   4.621   2.505
   99PPPE   HN346392   0.894   4.614   2.495
   99PPPE   C1246393   0.828   4.812   2.510
   99PPPE  H12A46394   0.765   4.865   2.584
   99PPPE  H12B46395   0.791   4.834   2.408
   99PPPE   C1146396   0.976   4.857   2.524
   99PPPE  H11A46397   0.981   4.965   2.546
   99PPPE  H11B46398   1.025   4.844   2.425
   99PPPE     P46399   1.029   4.801   2.775
   99PPPE   O1346400   1.118   4.906   2.829
   99PPPE   O1446401   0.884   4.805   2.800
   99PPPE   O1146402   1.090   4.669   2.833
   99PPPE   O1246403   1.051   4.780   2.619
   99PPPE    C146404   1.066   4.539   2.779
   99PPPE    HA46405   1.163   4.498   2.743
   99PPPE    HB46406   0.998   4.539   2.692
   99PPPE    C246407   1.013   4.442   2.889
   99PPPE    HS46408   0.998   4.342   2.843
   99PPPE   O2146409   0.891   4.486   2.951
   99PPPE   C2146410   0.784   4.511   2.880
   99PPPE   O2246411   0.774   4.507   2.758
   99PPPE   C2246412   0.666   4.541   2.976
   99PPPE   H2R46413   0.635   4.444   3.019
   99PPPE   H2S46414   0.582   4.582   2.914
   99PPPE    C346415   1.121   4.426   3.002
   99PPPE    HX46416   1.098   4.336   3.061
   99PPPE    HY46417   1.218   4.406   2.951
   99PPPE   O3146418   1.135   4.546   3.082
   99PPPE   C3146419   1.059   4.542   3.194
   99PPPE   O3246420   0.986   4.451   3.227
   99PPPE   C3246421   1.077   4.671   3.273
   99PPPE   H2X46422   1.185   4.683   3.295
   99PPPE   H2Y46423   1.022   4.659   3.368
   99PPPE   C2346424   0.703   4.640   3.089
   99PPPE   H3R46425   0.722   4.741   3.046
   99PPPE   H3S46426   0.798   4.605   3.135
   99PPPE   C2446427   0.603   4.649   3.204
   99PPPE   H4R46428   0.577   4.547   3.240
   99PPPE   H4S46429   0.510   4.699   3.171
   99PPPE   C2546430   0.665   4.726   3.322
   99PPPE   H5R46431   0.695   4.827   3.287
   99PPPE   H5S46432   0.758   4.674   3.353
   99PPPE   C2646433   0.577   4.742   3.447
   99PPPE   H6R46434   0.548   4.643   3.486
   99PPPE   H6S46435   0.484   4.798   3.420
   99PPPE   C2746436   0.651   4.820   3.557
   99PPPE   H7R46437   0.685   4.917   3.516
   99PPPE   H7S46438   0.742   4.762   3.587
   99PPPE   C2846439   0.566   4.846   3.683
   99PPPE   H8R46440   0.534   4.748   3.726
   99PPPE   H8S46441   0.474   4.899   3.653
   99PPPE   C2946442   0.641   4.928   3.786
   99PPPE   H9146443   0.641   5.037   3.768
   99PPPE  C21046444   0.708   4.881   3.893
   99PPPE  H10146445   0.758   4.952   3.960
   99PPPE  C21146446   0.723   4.737   3.933
   99PPPE  H11R46447   0.692   4.670   3.851
   99PPPE  H11S46448   0.656   4.714   4.018
   99PPPE  C21246449   0.867   4.699   3.971
   99PPPE  H12R46450   0.942   4.742   3.900
   99PPPE  H12S46451   0.875   4.589   3.962
   99PPPE  C21346452   0.905   4.733   4.116
   99PPPE  H13R46453   0.814   4.733   4.179
   99PPPE  H13S46454   0.947   4.836   4.118
   99PPPE  C21446455   1.007   4.635   4.177
   99PPPE  H14R46456   1.095   4.627   4.110
   99PPPE  H14S46457   0.961   4.535   4.186
   99PPPE  C21546458   1.056   4.677   4.318
   99PPPE  H15R46459   1.113   4.771   4.308
   99PPPE  H15S46460   1.126   4.599   4.354
   99PPPE  C21646461   0.946   4.696   4.421
   99PPPE  H16R46462   0.876   4.609   4.424
   99PPPE  H16S46463   0.989   4.706   4.523
   99PPPE  H16T46464   0.887   4.788   4.400
   99PPPE   C3346465   1.023   4.795   3.196
   99PPPE   H3X46466   0.913   4.790   3.186
   99PPPE   H3Y46467   1.066   4.799   3.094
   99PPPE   C3446468   1.059   4.925   3.268
   99PPPE   H4X46469   1.042   5.012   3.200
   99PPPE   H4Y46470   1.167   4.921   3.294
   99PPPE   C3546471   0.983   4.949   3.398
   99PPPE   H5X46472   0.996   4.862   3.466
   99PPPE   H5Y46473   0.874   4.961   3.378
   99PPPE   C3646474   1.036   5.074   3.469
   99PPPE   H6X46475   1.010   5.165   3.410
   99PPPE   H6Y46476   1.146   5.069   3.476
   99PPPE   C3746477   0.980   5.090   3.611
   99PPPE   H7X46478   1.006   4.999   3.671
   99PPPE   H7Y46479   0.870   5.097   3.608
   99PPPE   C3846480   1.037   5.214   3.681
   99PPPE   H8X46481   1.014   5.302   3.617
   99PPPE   H8Y46482   1.147   5.207   3.690
   99PPPE   C3946483   0.975   5.235   3.819
   99PPPE   H9X46484   0.865   5.217   3.813
   99PPPE   H9Y46485   0.987   5.342   3.847
   99PPPE  C31046486   1.035   5.148   3.931
   99PPPE  H10X46487   1.140   5.179   3.950
   99PPPE  H10Y46488   1.036   5.041   3.899
   99PPPE  C31146489   0.951   5.163   4.057
   99PPPE  H11X46490   0.850   5.120   4.035
   99PPPE  H11Y46491   0.937   5.271   4.078
   99PPPE  C31246492   1.006   5.097   4.186
   99PPPE  H12X46493   1.076   5.167   4.234
   99PPPE  H12Y46494   1.064   5.006   4.160
   99PPPE  C31346495   0.893   5.059   4.285
   99PPPE  H13X46496   0.939   5.029   4.380
   99PPPE  H13Y46497   0.837   4.972   4.245
   99PPPE  C31446498   0.791   5.171   4.307
   99PPPE  H14X46499   0.752   5.206   4.209
   99PPPE  H14Y46500   0.842   5.257   4.355
   99PPPE  C31546501   0.667   5.133   4.389
   99PPPE  H15X46502   0.616   5.049   4.337
   99PPPE  H15Y46503   0.598   5.220   4.389
   99PPPE  C31646504   0.695   5.095   4.535
   99PPPE  H16X46505   0.767   5.010   4.539
   99PPPE  H16Y46506   0.738   5.180   4.590
   99PPPE  H16Z46507   0.602   5.066   4.587
  100PPPE     N46508   4.386   0.786   2.668
  100PPPE   HN146509   4.305   0.831   2.621
  100PPPE   HN246510   4.393   0.823   2.765
  100PPPE   HN346511   4.470   0.817   2.616
  100PPPE   C1246512   4.380   0.635   2.661
  100PPPE  H12A46513   4.346   0.610   2.558
  100PPPE  H12B46514   4.306   0.598   2.734
  100PPPE   C1146515   4.519   0.572   2.682
  100PPPE  H11A46516   4.516   0.466   2.650
  100PPPE  H11B46517   4.545   0.572   2.790
  100PPPE     P46518   4.767   0.653   2.629
  100PPPE   O1346519   4.826   0.521   2.597
  100PPPE   O1446520   4.807   0.768   2.544
  100PPPE   O1146521   4.780   0.690   2.783
  100PPPE   O1246522   4.612   0.644   2.604
  100PPPE    C146523   4.701   0.792   2.846
  100PPPE    HA46524   4.594   0.763   2.849
  100PPPE    HB46525   4.709   0.888   2.790
  100PPPE    C246526   4.739   0.822   2.995
  100PPPE    HS46527   4.829   0.888   2.988
  100PPPE   O2146528   4.773   0.698   3.063
  100PPPE   C2146529   4.864   0.711   3.161
  100PPPE   O2246530   4.921   0.815   3.188
  100PPPE   C2246531   4.890   0.577   3.234
  100PPPE   H2R46532   4.999   0.557   3.227
  100PPPE   H2S46533   4.836   0.495   3.182
  100PPPE    C346534   4.626   0.907   3.070
  100PPPE    HX46535   4.675   0.945   3.162
  100PPPE    HY46536   4.604   0.996   3.009
  100PPPE   O3146537   4.502   0.842   3.111
  100PPPE   C3146538   4.392   0.845   3.035
  100PPPE   O3246539   4.391   0.885   2.920
  100PPPE   C3246540   4.267   0.778   3.101
  100PPPE   H2X46541   4.283   0.668   3.104
  100PPPE   H2Y46542   4.184   0.795   3.030
  100PPPE   C2346543   4.850   0.580   3.385
  100PPPE   H3R46544   4.742   0.560   3.396
  100PPPE   H3S46545   4.871   0.681   3.427
  100PPPE   C2446546   4.917   0.477   3.477
  100PPPE   H4R46547   5.027   0.492   3.474
  100PPPE   H4S46548   4.896   0.375   3.440
  100PPPE   C2546549   4.871   0.488   3.625
  100PPPE   H5R46550   4.792   0.565   3.635
  100PPPE   H5S46551   4.958   0.525   3.684
  100PPPE   C2646552   4.821   0.357   3.690
  100PPPE   H6R46553   4.861   0.270   3.634
  100PPPE   H6S46554   4.710   0.352   3.682
  100PPPE   C2746555   4.864   0.342   3.839
  100PPPE   H7R46556   4.974   0.351   3.844
  100PPPE   H7S46557   4.836   0.241   3.874
  100PPPE   C2846558   4.799   0.447   3.932
  100PPPE   H8R46559   4.692   0.417   3.939
  100PPPE   H8S46560   4.803   0.545   3.880
  100PPPE   C2946561   4.859   0.464   4.070
  100PPPE   H9146562   4.969   0.463   4.071
  100PPPE  C21046563   4.795   0.481   4.188
  100PPPE  H10146564   4.855   0.491   4.280
  100PPPE  C21146565   4.646   0.487   4.212
  100PPPE  H11R46566   4.592   0.470   4.116
  100PPPE  H11S46567   4.615   0.587   4.249
  100PPPE  C21246568   4.588   0.379   4.306
  100PPPE  H12R46569   4.646   0.286   4.293
  100PPPE  H12S46570   4.483   0.358   4.278
  100PPPE  C21346571   4.588   0.411   4.455
  100PPPE  H13R46572   4.683   0.463   4.483
  100PPPE  H13S46573   4.586   0.316   4.512
  100PPPE  C21446574   4.466   0.493   4.497
  100PPPE  H14R46575   4.373   0.436   4.473
  100PPPE  H14S46576   4.463   0.587   4.439
  100PPPE  C21546577   4.468   0.523   4.648
  100PPPE  H15R46578   4.567   0.565   4.674
  100PPPE  H15S46579   4.457   0.427   4.702
  100PPPE  C21646580   4.360   0.620   4.693
  100PPPE  H16R46581   4.358   0.711   4.629
  100PPPE  H16S46582   4.260   0.571   4.690
  100PPPE  H16T46583   4.380   0.652   4.799
  100PPPE   C3346584   4.216   0.827   3.242
  100PPPE   H3X46585   4.151   0.915   3.222
  100PPPE   H3Y46586   4.299   0.868   3.304
  100PPPE   C3446587   4.135   0.725   3.330
  100PPPE   H4X46588   4.073   0.660   3.266
  100PPPE   H4Y46589   4.068   0.788   3.393
  100PPPE   C3546590   4.216   0.641   3.432
  100PPPE   H5X46591   4.273   0.719   3.485
  100PPPE   H5Y46592   4.282   0.576   3.370
  100PPPE   C3646593   4.164   0.548   3.545
  100PPPE   H6X46594   4.098   0.474   3.497
  100PPPE   H6Y46595   4.101   0.602   3.620
  100PPPE   C3746596   4.276   0.465   3.620
  100PPPE   H7X46597   4.364   0.448   3.552
  100PPPE   H7Y46598   4.230   0.365   3.629
  100PPPE   C3846599   4.325   0.497   3.766
  100PPPE   H8X46600   4.329   0.399   3.818
  100PPPE   H8Y46601   4.244   0.550   3.821
  100PPPE   C3946602   4.468   0.557   3.792
  100PPPE   H9X46603   4.508   0.620   3.710
  100PPPE   H9Y46604   4.534   0.467   3.787
  100PPPE  C31046605   4.499   0.621   3.932
  100PPPE  H10X46606   4.607   0.609   3.951
  100PPPE  H10Y46607   4.445   0.559   4.007
  100PPPE  C31146608   4.477   0.772   3.967
  100PPPE  H11X46609   4.381   0.807   3.924
  100PPPE  H11Y46610   4.558   0.835   3.924
  100PPPE  C31246611   4.470   0.800   4.120
  100PPPE  H12X46612   4.574   0.805   4.160
  100PPPE  H12Y46613   4.423   0.712   4.169
  100PPPE  C31346614   4.390   0.926   4.165
  100PPPE  H13X46615   4.293   0.929   4.110
  100PPPE  H13Y46616   4.443   1.019   4.138
  100PPPE  C31446617   4.353   0.927   4.316
  100PPPE  H14X46618   4.428   0.985   4.375
  100PPPE  H14Y46619   4.352   0.823   4.355
  100PPPE  C31546620   4.221   0.995   4.353
  100PPPE  H15X46621   4.135   0.945   4.302
  100PPPE  H15Y46622   4.223   1.099   4.316
  100PPPE  C31646623   4.199   0.995   4.505
  100PPPE  H16X46624   4.278   1.054   4.556
  100PPPE  H16Y46625   4.101   1.039   4.532
  100PPPE  H16Z46626   4.204   0.892   4.546
  101PPPE     N46627   0.839   3.747   2.490
  101PPPE   HN146628   0.812   3.646   2.490
  101PPPE   HN246629   0.754   3.803   2.510
  101PPPE   HN346630   0.878   3.776   2.397
  101PPPE   C1246631   0.930   3.780   2.604
  101PPPE  H12A46632   0.998   3.861   2.570
  101PPPE  H12B46633   0.989   3.690   2.630
  101PPPE   C1146634   0.841   3.828   2.719
  101PPPE  H11A46635   0.902   3.877   2.798
  101PPPE  H11B46636   0.794   3.740   2.767
  101PPPE     P46637   0.758   4.069   2.656
  101PPPE   O1346638   0.869   4.087   2.560
  101PPPE   O1446639   0.629   4.128   2.615
  101PPPE   O1146640   0.798   4.110   2.804
  101PPPE   O1246641   0.736   3.913   2.669
  101PPPE    C146642   0.705   4.076   2.908
  101PPPE    HA46643   0.674   3.970   2.905
  101PPPE    HB46644   0.613   4.139   2.898
  101PPPE    C246645   0.760   4.099   3.054
  101PPPE    HS46646   0.801   4.201   3.062
  101PPPE   O2146647   0.857   3.998   3.089
  101PPPE   C2146648   0.983   4.030   3.071
  101PPPE   O2246649   1.027   4.116   2.997
  101PPPE   C2246650   1.070   3.941   3.160
  101PPPE   H2R46651   1.175   3.956   3.127
  101PPPE   H2S46652   1.041   3.835   3.141
  101PPPE    C346653   0.642   4.085   3.153
  101PPPE    HX46654   0.566   4.163   3.129
  101PPPE    HY46655   0.597   3.985   3.132
  101PPPE   O3146656   0.683   4.095   3.292
  101PPPE   C3146657   0.582   4.061   3.373
  101PPPE   O3246658   0.471   4.029   3.335
  101PPPE   C3246659   0.623   4.065   3.520
  101PPPE   H2X46660   0.670   3.968   3.546
  101PPPE   H2Y46661   0.529   4.074   3.578
  101PPPE   C2346662   1.057   3.972   3.311
  101PPPE   H3R46663   0.991   4.060   3.329
  101PPPE   H3S46664   1.157   3.998   3.353
  101PPPE   C2446665   1.001   3.852   3.389
  101PPPE   H4R46666   1.073   3.767   3.382
  101PPPE   H4S46667   0.906   3.820   3.340
  101PPPE   C2546668   0.970   3.879   3.537
  101PPPE   H5R46669   0.929   3.784   3.580
  101PPPE   H5S46670   0.891   3.956   3.546
  101PPPE   C2646671   1.090   3.922   3.623
  101PPPE   H6R46672   1.105   4.032   3.615
  101PPPE   H6S46673   1.182   3.873   3.585
  101PPPE   C2746674   1.073   3.883   3.771
  101PPPE   H7R46675   1.167   3.907   3.826
  101PPPE   H7S46676   1.057   3.773   3.778
  101PPPE   C2846677   0.954   3.949   3.842
  101PPPE   H8R46678   0.861   3.923   3.787
  101PPPE   H8S46679   0.967   4.059   3.835
  101PPPE   C2946680   0.940   3.905   3.986
  101PPPE   H9146681   0.866   3.825   4.005
  101PPPE  C21046682   1.011   3.954   4.089
  101PPPE  H10146683   0.993   3.915   4.190
  101PPPE  C21146684   1.115   4.062   4.077
  101PPPE  H11R46685   1.078   4.145   4.013
  101PPPE  H11S46686   1.206   4.021   4.028
  101PPPE  C21246687   1.158   4.123   4.212
  101PPPE  H12R46688   1.232   4.204   4.189
  101PPPE  H12S46689   1.211   4.047   4.273
  101PPPE  C21346690   1.044   4.184   4.294
  101PPPE  H13R46691   0.985   4.102   4.341
  101PPPE  H13S46692   0.977   4.241   4.227
  101PPPE  C21446693   1.097   4.278   4.405
  101PPPE  H14R46694   1.156   4.358   4.355
  101PPPE  H14S46695   1.165   4.222   4.472
  101PPPE  C21546696   0.985   4.344   4.487
  101PPPE  H15R46697   0.908   4.385   4.418
  101PPPE  H15S46698   1.030   4.429   4.543
  101PPPE  C21646699   0.919   4.250   4.589
  101PPPE  H16R46700   0.864   4.169   4.537
  101PPPE  H16S46701   0.995   4.205   4.655
  101PPPE  H16T46702   0.846   4.307   4.651
  101PPPE   C3346703   0.716   4.183   3.557
  101PPPE   H3X46704   0.679   4.278   3.514
  101PPPE   H3Y46705   0.818   4.165   3.517
  101PPPE   C3446706   0.722   4.199   3.709
  101PPPE   H4X46707   0.747   4.101   3.756
  101PPPE   H4Y46708   0.622   4.228   3.747
  101PPPE   C3546709   0.824   4.303   3.757
  101PPPE   H5X46710   0.800   4.402   3.712
  101PPPE   H5Y46711   0.926   4.274   3.722
  101PPPE   C3646712   0.827   4.317   3.910
  101PPPE   H6X46713   0.909   4.387   3.938
  101PPPE   H6Y46714   0.850   4.220   3.957
  101PPPE   C3746715   0.693   4.368   3.967
  101PPPE   H7X46716   0.619   4.286   3.957
  101PPPE   H7Y46717   0.656   4.454   3.908
  101PPPE   C3846718   0.704   4.409   4.115
  101PPPE   H8X46719   0.750   4.510   4.122
  101PPPE   H8Y46720   0.772   4.339   4.167
  101PPPE   C3946721   0.569   4.413   4.188
  101PPPE   H9X46722   0.503   4.490   4.141
  101PPPE   H9Y46723   0.587   4.445   4.292
  101PPPE  C31046724   0.497   4.278   4.191
  101PPPE  H10X46725   0.450   4.256   4.094
  101PPPE  H10Y46726   0.416   4.283   4.266
  101PPPE  C31146727   0.591   4.163   4.228
  101PPPE  H11X46728   0.662   4.199   4.306
  101PPPE  H11Y46729   0.652   4.132   4.141
  101PPPE  C31246730   0.514   4.044   4.285
  101PPPE  H12X46731   0.444   4.006   4.207
  101PPPE  H12Y46732   0.454   4.078   4.372
  101PPPE  C31346733   0.606   3.931   4.330
  101PPPE  H13X46734   0.655   3.883   4.243
  101PPPE  H13Y46735   0.538   3.858   4.380
  101PPPE  C31446736   0.711   3.969   4.434
  101PPPE  H14X46737   0.664   4.033   4.511
  101PPPE  H14Y46738   0.792   4.028   4.385
  101PPPE  C31546739   0.772   3.847   4.503
  101PPPE  H15X46740   0.825   3.785   4.429
  101PPPE  H15Y46741   0.689   3.785   4.545
  101PPPE  C31646742   0.868   3.883   4.617
  101PPPE  H16X46743   0.816   3.947   4.693
  101PPPE  H16Y46744   0.903   3.792   4.669
  101PPPE  H16Z46745   0.956   3.938   4.578
  102PPPE     N46746   6.088   1.323   2.658
  102PPPE   HN146747   6.016   1.281   2.720
  102PPPE   HN246748   6.176   1.322   2.714
  102PPPE   HN346749   6.066   1.421   2.632
  102PPPE   C1246750   6.118   1.237   2.540
  102PPPE  H12A46751   6.037   1.250   2.464
  102PPPE  H12B46752   6.119   1.132   2.574
  102PPPE   C1146753   6.256   1.277   2.483
  102PPPE  H11A46754   6.243   1.369   2.422
  102PPPE  H11B46755   6.291   1.197   2.415
  102PPPE     P46756   6.401   1.192   2.686
  102PPPE   O1346757   6.345   1.063   2.640
  102PPPE   O1446758   6.546   1.200   2.707
  102PPPE   O1146759   6.317   1.249   2.810
  102PPPE   O1246760   6.355   1.304   2.583
  102PPPE    C146761   6.372   1.364   2.878
  102PPPE    HA46762   6.369   1.452   2.810
  102PPPE    HB46763   6.478   1.348   2.907
  102PPPE    C246764   6.297   1.406   3.009
  102PPPE    HS46765   6.313   1.515   3.018
  102PPPE   O2146766   6.360   1.340   3.122
  102PPPE   C2146767   6.320   1.388   3.240
  102PPPE   O2246768   6.250   1.487   3.252
  102PPPE   C2246769   6.377   1.303   3.353
  102PPPE   H2R46770   6.481   1.337   3.373
  102PPPE   H2S46771   6.380   1.198   3.318
  102PPPE    C346772   6.143   1.381   3.006
  102PPPE    HX46773   6.094   1.451   3.078
  102PPPE    HY46774   6.105   1.409   2.906
  102PPPE   O3146775   6.110   1.246   3.046
  102PPPE   C3146776   6.024   1.178   2.974
  102PPPE   O3246777   5.974   1.214   2.870
  102PPPE   C3246778   5.989   1.049   3.047
  102PPPE   H2X46779   6.078   1.017   3.108
  102PPPE   H2Y46780   5.967   0.971   2.971
  102PPPE   C2346781   6.292   1.313   3.483
  102PPPE   H3R46782   6.319   1.229   3.549
  102PPPE   H3S46783   6.184   1.301   3.457
  102PPPE   C2446784   6.312   1.444   3.561
  102PPPE   H4R46785   6.317   1.528   3.487
  102PPPE   H4S46786   6.409   1.441   3.615
  102PPPE   C2546787   6.198   1.478   3.656
  102PPPE   H5R46788   6.104   1.483   3.597
  102PPPE   H5S46789   6.215   1.578   3.700
  102PPPE   C2646790   6.178   1.376   3.769
  102PPPE   H6R46791   6.264   1.380   3.840
  102PPPE   H6S46792   6.177   1.274   3.726
  102PPPE   C2746793   6.046   1.397   3.845
  102PPPE   H7R46794   6.018   1.305   3.900
  102PPPE   H7S46795   5.966   1.415   3.770
  102PPPE   C2846796   6.049   1.514   3.944
  102PPPE   H8R46797   5.944   1.540   3.967
  102PPPE   H8S46798   6.094   1.603   3.895
  102PPPE   C2946799   6.125   1.482   4.070
  102PPPE   H9146800   6.235   1.486   4.061
  102PPPE  C21046801   6.071   1.451   4.189
  102PPPE  H10146802   6.138   1.433   4.275
  102PPPE  C21146803   5.924   1.440   4.220
  102PPPE  H11R46804   5.865   1.419   4.129
  102PPPE  H11S46805   5.887   1.538   4.259
  102PPPE  C21246806   5.888   1.330   4.323
  102PPPE  H12R46807   5.909   1.231   4.278
  102PPPE  H12S46808   5.779   1.334   4.344
  102PPPE  C21346809   5.962   1.338   4.458
  102PPPE  H13R46810   6.070   1.321   4.443
  102PPPE  H13S46811   5.926   1.253   4.521
  102PPPE  C21446812   5.943   1.470   4.535
  102PPPE  H14R46813   5.899   1.547   4.469
  102PPPE  H14S46814   6.042   1.508   4.568
  102PPPE  C21546815   5.854   1.458   4.660
  102PPPE  H15R46816   5.757   1.413   4.630
  102PPPE  H15S46817   5.834   1.560   4.697
  102PPPE  C21646818   5.917   1.376   4.773
  102PPPE  H16R46819   5.854   1.380   4.865
  102PPPE  H16S46820   5.929   1.270   4.743
  102PPPE  H16T46821   6.017   1.416   4.799
  102PPPE   C3346822   5.867   1.071   3.138
  102PPPE   H3X46823   5.777   1.086   3.075
  102PPPE   H3Y46824   5.884   1.164   3.196
  102PPPE   C3446825   5.840   0.958   3.240
  102PPPE   H4X46826   5.840   0.860   3.186
  102PPPE   H4Y46827   5.738   0.973   3.281
  102PPPE   C3546828   5.939   0.954   3.358
  102PPPE   H5X46829   6.043   0.942   3.320
  102PPPE   H5Y46830   5.914   0.863   3.417
  102PPPE   C3646831   5.933   1.077   3.450
  102PPPE   H6X46832   5.829   1.092   3.485
  102PPPE   H6Y46833   5.963   1.168   3.392
  102PPPE   C3746834   6.027   1.067   3.571
  102PPPE   H7X46835   6.027   1.165   3.624
  102PPPE   H7Y46836   6.131   1.047   3.535
  102PPPE   C3846837   5.986   0.959   3.670
  102PPPE   H8X46838   5.973   0.863   3.616
  102PPPE   H8Y46839   5.887   0.984   3.715
  102PPPE   C3946840   6.088   0.932   3.781
  102PPPE   H9X46841   6.191   0.928   3.740
  102PPPE   H9Y46842   6.065   0.831   3.822
  102PPPE  C31046843   6.082   1.027   3.901
  102PPPE  H10X46844   5.976   1.047   3.929
  102PPPE  H10Y46845   6.129   1.123   3.873
  102PPPE  C31146846   6.154   0.969   4.024
  102PPPE  H11X46847   6.255   0.937   3.993
  102PPPE  H11Y46848   6.099   0.880   4.061
  102PPPE  C31246849   6.167   1.071   4.138
  102PPPE  H12X46850   6.066   1.100   4.175
  102PPPE  H12Y46851   6.215   1.163   4.097
  102PPPE  C31346852   6.253   1.018   4.254
  102PPPE  H13X46853   6.286   1.105   4.315
  102PPPE  H13Y46854   6.344   0.971   4.212
  102PPPE  C31446855   6.181   0.919   4.346
  102PPPE  H14X46856   6.257   0.869   4.410
  102PPPE  H14Y46857   6.131   0.839   4.287
  102PPPE  C31546858   6.079   0.987   4.438
  102PPPE  H15X46859   5.994   1.023   4.377
  102PPPE  H15Y46860   6.126   1.076   4.484
  102PPPE  C31646861   6.029   0.896   4.550
  102PPPE  H16X46862   6.113   0.859   4.612
  102PPPE  H16Y46863   5.960   0.953   4.617
  102PPPE  H16Z46864   5.973   0.809   4.509
  103PPPE     N46865   1.115   5.563   2.865
  103PPPE   HN146866   1.021   5.590   2.827
  103PPPE   HN246867   1.105   5.517   2.957
  103PPPE   HN346868   1.163   5.654   2.874
  103PPPE   C1246869   1.183   5.476   2.761
  103PPPE  H12A46870   1.116   5.390   2.739
  103PPPE  H12B46871   1.278   5.438   2.804
  103PPPE   C1146872   1.212   5.554   2.630
  103PPPE  H11A46873   1.251   5.481   2.556
  103PPPE  H11B46874   1.294   5.626   2.648
  103PPPE     P46875   1.076   5.773   2.581
  103PPPE   O1346876   1.194   5.837   2.521
  103PPPE   O1446877   0.942   5.808   2.530
  103PPPE   O1146878   1.080   5.793   2.737
  103PPPE   O1246879   1.093   5.615   2.577
  103PPPE    C146880   1.092   5.922   2.797
  103PPPE    HA46881   1.007   5.936   2.868
  103PPPE    HB46882   1.087   6.006   2.725
  103PPPE    C246883   1.224   5.935   2.878
  103PPPE    HS46884   1.307   5.933   2.804
  103PPPE   O2146885   1.234   5.821   2.967
  103PPPE   C2146886   1.357   5.807   3.020
  103PPPE   O2246887   1.453   5.873   2.988
  103PPPE   C2246888   1.359   5.681   3.108
  103PPPE   H2R46889   1.466   5.652   3.120
  103PPPE   H2S46890   1.308   5.600   3.051
  103PPPE    C346891   1.230   6.073   2.952
  103PPPE    HX46892   1.322   6.083   3.013
  103PPPE    HY46893   1.238   6.151   2.873
  103PPPE   O3146894   1.109   6.099   3.025
  103PPPE   C3146895   1.111   6.062   3.153
  103PPPE   O3246896   1.208   6.016   3.212
  103PPPE   C3246897   0.972   6.081   3.212
  103PPPE   H2X46898   0.905   6.002   3.171
  103PPPE   H2Y46899   0.934   6.180   3.177
  103PPPE   C2346900   1.295   5.697   3.247
  103PPPE   H3R46901   1.201   5.756   3.242
  103PPPE   H3S46902   1.365   5.754   3.311
  103PPPE   C2446903   1.264   5.560   3.311
  103PPPE   H4R46904   1.329   5.483   3.264
  103PPPE   H4S46905   1.158   5.533   3.288
  103PPPE   C2546906   1.286   5.550   3.462
  103PPPE   H5R46907   1.395   5.542   3.483
  103PPPE   H5S46908   1.241   5.456   3.499
  103PPPE   C2646909   1.233   5.668   3.544
  103PPPE   H6R46910   1.123   5.676   3.531
  103PPPE   H6S46911   1.279   5.763   3.509
  103PPPE   C2746912   1.267   5.651   3.693
  103PPPE   H7R46913   1.370   5.610   3.700
  103PPPE   H7S46914   1.200   5.574   3.737
  103PPPE   C2846915   1.260   5.781   3.774
  103PPPE   H8R46916   1.154   5.814   3.782
  103PPPE   H8S46917   1.314   5.862   3.719
  103PPPE   C2946918   1.323   5.764   3.910
  103PPPE   H9146919   1.429   5.791   3.917
  103PPPE  C21046920   1.263   5.713   4.018
  103PPPE  H10146921   1.320   5.703   4.111
  103PPPE  C21146922   1.121   5.663   4.026
  103PPPE  H11R46923   1.058   5.703   3.945
  103PPPE  H11S46924   1.075   5.696   4.122
  103PPPE  C21246925   1.116   5.509   4.018
  103PPPE  H12R46926   1.151   5.476   3.918
  103PPPE  H12S46927   1.010   5.477   4.030
  103PPPE  C21346928   1.201   5.435   4.123
  103PPPE  H13R46929   1.307   5.466   4.111
  103PPPE  H13S46930   1.197   5.325   4.104
  103PPPE  C21446931   1.154   5.461   4.266
  103PPPE  H14R46932   1.051   5.422   4.280
  103PPPE  H14S46933   1.150   5.571   4.281
  103PPPE  C21546934   1.244   5.402   4.374
  103PPPE  H15R46935   1.230   5.292   4.379
  103PPPE  H15S46936   1.211   5.441   4.473
  103PPPE  C21646937   1.392   5.435   4.359
  103PPPE  H16R46938   1.448   5.409   4.452
  103PPPE  H16S46939   1.438   5.380   4.274
  103PPPE  H16T46940   1.404   5.544   4.340
  103PPPE   C3346941   0.970   6.078   3.366
  103PPPE   H3X46942   0.874   6.121   3.401
  103PPPE   H3Y46943   1.051   6.143   3.406
  103PPPE   C3446944   0.984   5.938   3.425
  103PPPE   H4X46945   1.073   5.887   3.384
  103PPPE   H4Y46946   0.894   5.877   3.398
  103PPPE   C3546947   1.000   5.941   3.577
  103PPPE   H5X46948   1.094   5.994   3.604
  103PPPE   H5Y46949   1.009   5.836   3.615
  103PPPE   C3646950   0.882   6.005   3.651
  103PPPE   H6X46951   0.789   5.955   3.618
  103PPPE   H6Y46952   0.873   6.114   3.627
  103PPPE   C3746953   0.892   5.987   3.804
  103PPPE   H7X46954   0.912   5.880   3.825
  103PPPE   H7Y46955   0.793   6.012   3.848
  103PPPE   C3846956   0.998   6.075   3.870
  103PPPE   H8X46957   0.961   6.180   3.873
  103PPPE   H8Y46958   1.094   6.073   3.814
  103PPPE   C3946959   1.024   6.025   4.012
  103PPPE   H9X46960   1.100   5.944   4.011
  103PPPE   H9Y46961   0.930   5.980   4.051
  103PPPE  C31046962   1.064   6.133   4.113
  103PPPE  H10X46963   0.988   6.214   4.113
  103PPPE  H10Y46964   1.162   6.177   4.085
  103PPPE  C31146965   1.072   6.071   4.253
  103PPPE  H11X46966   1.157   6.000   4.252
  103PPPE  H11Y46967   0.980   6.014   4.276
  103PPPE  C31246968   1.093   6.174   4.363
  103PPPE  H12X46969   0.994   6.215   4.392
  103PPPE  H12Y46970   1.153   6.259   4.323
  103PPPE  C31346971   1.163   6.116   4.487
  103PPPE  H13X46972   1.268   6.155   4.491
  103PPPE  H13Y46973   1.170   6.006   4.478
  103PPPE  C31446974   1.094   6.145   4.622
  103PPPE  H14X46975   1.059   6.251   4.622
  103PPPE  H14Y46976   1.168   6.135   4.703
  103PPPE  C31546977   0.977   6.050   4.650
  103PPPE  H15X46978   0.947   5.999   4.556
  103PPPE  H15Y46979   0.889   6.108   4.686
  103PPPE  C31646980   1.011   5.945   4.757
  103PPPE  H16X46981   1.022   5.994   4.856
  103PPPE  H16Y46982   0.932   5.868   4.764
  103PPPE  H16Z46983   1.108   5.895   4.734
  104PPPE     N46984   3.743   0.531   2.774
  104PPPE   HN146985   3.642   0.551   2.765
  104PPPE   HN246986   3.765   0.432   2.750
  104PPPE   HN346987   3.772   0.545   2.873
  104PPPE   C1246988   3.821   0.621   2.682
  104PPPE  H12A46989   3.819   0.724   2.725
  104PPPE  H12B46990   3.768   0.620   2.585
  104PPPE   C1146991   3.965   0.572   2.661
  104PPPE  H11A46992   4.017   0.565   2.758
  104PPPE  H11B46993   4.018   0.648   2.599
  104PPPE     P46994   4.080   0.343   2.602
  104PPPE   O1346995   4.046   0.226   2.519
  104PPPE   O1446996   4.208   0.411   2.572
  104PPPE   O1146997   4.073   0.308   2.755
  104PPPE   O1246998   3.963   0.449   2.590
  104PPPE    C146999   4.188   0.300   2.838
  104PPPE    HA47000   4.247   0.394   2.837
  104PPPE    HB47001   4.253   0.216   2.804
  104PPPE    C247002   4.148   0.269   2.986
  104PPPE    HS47003   4.079   0.182   2.985
  104PPPE   O2147004   4.085   0.383   3.047
  104PPPE   C2147005   3.956   0.401   3.026
  104PPPE   O2247006   3.884   0.341   2.950
  104PPPE   C2247007   3.908   0.519   3.108
  104PPPE   H2R47008   3.808   0.551   3.069
  104PPPE   H2S47009   3.980   0.603   3.092
  104PPPE    C347010   4.272   0.228   3.073
  104PPPE    HX47011   4.232   0.188   3.168
  104PPPE    HY47012   4.319   0.141   3.023
  104PPPE   O3147013   4.375   0.331   3.090
  104PPPE   C3147014   4.387   0.377   3.217
  104PPPE   O3247015   4.306   0.355   3.306
  104PPPE   C3247016   4.526   0.442   3.242
  104PPPE   H2X47017   4.591   0.411   3.157
  104PPPE   H2Y47018   4.568   0.400   3.337
  104PPPE   C2347019   3.894   0.484   3.257
  104PPPE   H3R47020   3.873   0.579   3.311
  104PPPE   H3S47021   3.988   0.443   3.299
  104PPPE   C2447022   3.778   0.389   3.287
  104PPPE   H4R47023   3.814   0.284   3.292
  104PPPE   H4S47024   3.703   0.395   3.205
  104PPPE   C2547025   3.706   0.425   3.417
  104PPPE   H5R47026   3.615   0.361   3.429
  104PPPE   H5S47027   3.672   0.530   3.410
  104PPPE   C2647028   3.790   0.413   3.545
  104PPPE   H6R47029   3.726   0.447   3.629
  104PPPE   H6S47030   3.877   0.481   3.542
  104PPPE   C2747031   3.834   0.269   3.575
  104PPPE   H7R47032   3.925   0.244   3.516
  104PPPE   H7S47033   3.753   0.200   3.544
  104PPPE   C2847034   3.859   0.246   3.726
  104PPPE   H8R47035   3.874   0.137   3.740
  104PPPE   H8S47036   3.767   0.274   3.781
  104PPPE   C2947037   3.976   0.324   3.778
  104PPPE   H9147038   3.998   0.418   3.726
  104PPPE  C21047039   4.052   0.290   3.882
  104PPPE  H10147040   4.137   0.355   3.910
  104PPPE  C21147041   4.035   0.169   3.970
  104PPPE  H11R47042   4.121   0.101   3.958
  104PPPE  H11S47043   3.944   0.110   3.945
  104PPPE  C21247044   4.027   0.207   4.120
  104PPPE  H12R47045   4.114   0.268   4.150
  104PPPE  H12S47046   4.036   0.112   4.177
  104PPPE  C21347047   3.896   0.277   4.160
  104PPPE  H13R47048   3.809   0.232   4.106
  104PPPE  H13S47049   3.901   0.384   4.127
  104PPPE  C21447050   3.872   0.269   4.311
  104PPPE  H14R47051   3.970   0.274   4.362
  104PPPE  H14S47052   3.827   0.171   4.335
  104PPPE  C21547053   3.782   0.378   4.370
  104PPPE  H15R47054   3.677   0.361   4.339
  104PPPE  H15S47055   3.812   0.478   4.332
  104PPPE  C21647056   3.791   0.380   4.523
  104PPPE  H16R47057   3.896   0.394   4.556
  104PPPE  H16S47058   3.731   0.463   4.565
  104PPPE  H16T47059   3.755   0.284   4.565
  104PPPE   C3347060   4.535   0.596   3.253
  104PPPE   H3X47061   4.465   0.633   3.175
  104PPPE   H3Y47062   4.636   0.628   3.222
  104PPPE   C3447063   4.509   0.665   3.389
  104PPPE   H4X47064   4.480   0.593   3.469
  104PPPE   H4Y47065   4.422   0.727   3.359
  104PPPE   C3547066   4.592   0.781   3.450
  104PPPE   H5X47067   4.650   0.830   3.367
  104PPPE   H5Y47068   4.664   0.741   3.524
  104PPPE   C3647069   4.505   0.892   3.518
  104PPPE   H6X47070   4.433   0.932   3.444
  104PPPE   H6Y47071   4.573   0.975   3.549
  104PPPE   C3747072   4.426   0.850   3.644
  104PPPE   H7X47073   4.498   0.848   3.729
  104PPPE   H7Y47074   4.394   0.745   3.627
  104PPPE   C3847075   4.295   0.923   3.689
  104PPPE   H8X47076   4.245   0.969   3.601
  104PPPE   H8Y47077   4.320   1.003   3.762
  104PPPE   C3947078   4.191   0.824   3.752
  104PPPE   H9X47079   4.250   0.732   3.770
  104PPPE   H9Y47080   4.113   0.800   3.676
  104PPPE  C31047081   4.121   0.854   3.887
  104PPPE  H10X47082   4.028   0.910   3.865
  104PPPE  H10Y47083   4.185   0.921   3.948
  104PPPE  C31147084   4.074   0.732   3.971
  104PPPE  H11X47085   4.034   0.651   3.905
  104PPPE  H11Y47086   3.992   0.768   4.037
  104PPPE  C31247087   4.178   0.676   4.069
  104PPPE  H12X47088   4.203   0.753   4.145
  104PPPE  H12Y47089   4.266   0.655   4.004
  104PPPE  C31347090   4.155   0.544   4.143
  104PPPE  H13X47091   4.255   0.502   4.169
  104PPPE  H13Y47092   4.106   0.472   4.075
  104PPPE  C31447093   4.076   0.551   4.274
  104PPPE  H14X47094   4.075   0.449   4.318
  104PPPE  H14Y47095   3.971   0.580   4.250
  104PPPE  C31547096   4.129   0.645   4.382
  104PPPE  H15X47097   4.117   0.749   4.345
  104PPPE  H15Y47098   4.238   0.626   4.399
  104PPPE  C31647099   4.054   0.632   4.516
  104PPPE  H16X47100   3.945   0.645   4.499
  104PPPE  H16Y47101   4.072   0.532   4.561
  104PPPE  H16Z47102   4.088   0.709   4.587
  105PPPE     N47103   2.037   6.848   2.926
  105PPPE   HN147104   1.992   6.941   2.940
  105PPPE   HN247105   1.963   6.777   2.912
  105PPPE   HN347106   2.094   6.823   3.009
  105PPPE   C1247107   2.124   6.855   2.804
  105PPPE  H12A47108   2.166   6.753   2.783
  105PPPE  H12B47109   2.209   6.922   2.828
  105PPPE   C1147110   2.043   6.905   2.684
  105PPPE  H11A47111   2.000   7.006   2.706
  105PPPE  H11B47112   1.956   6.838   2.667
  105PPPE     P47113   2.226   7.022   2.538
  105PPPE   O1347114   2.320   7.027   2.651
  105PPPE   O1447115   2.279   7.004   2.401
  105PPPE   O1147116   2.134   7.151   2.537
  105PPPE   O1247117   2.121   6.907   2.565
  105PPPE    C147118   2.177   7.270   2.606
  105PPPE    HA47119   2.167   7.357   2.538
  105PPPE    HB47120   2.284   7.269   2.635
  105PPPE    C247121   2.087   7.297   2.729
  105PPPE    HS47122   2.111   7.399   2.767
  105PPPE   O2147123   2.107   7.198   2.832
  105PPPE   C2147124   2.216   7.216   2.906
  105PPPE   O2247125   2.309   7.289   2.877
  105PPPE   C2247126   2.198   7.142   3.039
  105PPPE   H2R47127   2.261   7.050   3.035
  105PPPE   H2S47128   2.091   7.115   3.052
  105PPPE    C347129   1.937   7.298   2.690
  105PPPE    HX47130   1.924   7.362   2.600
  105PPPE    HY47131   1.901   7.196   2.664
  105PPPE   O3147132   1.861   7.356   2.797
  105PPPE   C3147133   1.846   7.279   2.905
  105PPPE   O3247134   1.846   7.156   2.905
  105PPPE   C3247135   1.858   7.369   3.028
  105PPPE   H2X47136   1.826   7.471   2.997
  105PPPE   H2Y47137   1.964   7.374   3.059
  105PPPE   C2347138   2.243   7.229   3.160
  105PPPE   H3R47139   2.180   7.320   3.167
  105PPPE   H3S47140   2.347   7.263   3.137
  105PPPE   C2447141   2.249   7.157   3.295
  105PPPE   H4R47142   2.348   7.179   3.339
  105PPPE   H4S47143   2.244   7.046   3.282
  105PPPE   C2547144   2.144   7.203   3.399
  105PPPE   H5R47145   2.067   7.123   3.411
  105PPPE   H5S47146   2.093   7.295   3.365
  105PPPE   C2647147   2.206   7.235   3.537
  105PPPE   H6R47148   2.290   7.165   3.557
  105PPPE   H6S47149   2.131   7.219   3.617
  105PPPE   C2747150   2.254   7.380   3.546
  105PPPE   H7R47151   2.169   7.451   3.535
  105PPPE   H7S47152   2.318   7.396   3.457
  105PPPE   C2847153   2.339   7.415   3.670
  105PPPE   H8R47154   2.414   7.490   3.637
  105PPPE   H8S47155   2.397   7.325   3.700
  105PPPE   C2947156   2.270   7.476   3.790
  105PPPE   H9147157   2.237   7.579   3.776
  105PPPE  C21047158   2.248   7.417   3.908
  105PPPE  H10147159   2.194   7.474   3.986
  105PPPE  C21147160   2.286   7.276   3.950
  105PPPE  H11R47161   2.350   7.226   3.872
  105PPPE  H11S47162   2.193   7.216   3.955
  105PPPE  C21247163   2.356   7.263   4.085
  105PPPE  H12R47164   2.444   7.331   4.089
  105PPPE  H12S47165   2.393   7.159   4.098
  105PPPE  C21347166   2.262   7.294   4.203
  105PPPE  H13R47167   2.189   7.211   4.214
  105PPPE  H13S47168   2.206   7.387   4.179
  105PPPE  C21447169   2.333   7.317   4.337
  105PPPE  H14R47170   2.433   7.362   4.318
  105PPPE  H14S47171   2.348   7.221   4.391
  105PPPE  C21547172   2.256   7.412   4.427
  105PPPE  H15R47173   2.219   7.500   4.370
  105PPPE  H15S47174   2.324   7.453   4.505
  105PPPE  C21647175   2.140   7.342   4.497
  105PPPE  H16R47176   2.079   7.414   4.554
  105PPPE  H16S47177   2.075   7.291   4.422
  105PPPE  H16T47178   2.177   7.263   4.565
  105PPPE   C3347179   1.767   7.323   3.142
  105PPPE   H3X47180   1.666   7.301   3.101
  105PPPE   H3Y47181   1.756   7.411   3.209
  105PPPE   C3447182   1.814   7.206   3.228
  105PPPE   H4X47183   1.893   7.245   3.295
  105PPPE   H4Y47184   1.859   7.126   3.165
  105PPPE   C3547185   1.700   7.146   3.313
  105PPPE   H5X47186   1.643   7.071   3.255
  105PPPE   H5Y47187   1.628   7.228   3.337
  105PPPE   C3647188   1.748   7.086   3.446
  105PPPE   H6X47189   1.824   7.156   3.487
  105PPPE   H6Y47190   1.799   6.989   3.427
  105PPPE   C3747191   1.640   7.067   3.557
  105PPPE   H7X47192   1.689   7.015   3.643
  105PPPE   H7Y47193   1.561   6.998   3.520
  105PPPE   C3847194   1.578   7.200   3.605
  105PPPE   H8X47195   1.484   7.218   3.549
  105PPPE   H8Y47196   1.648   7.280   3.571
  105PPPE   C3947197   1.555   7.227   3.757
  105PPPE   H9X47198   1.477   7.306   3.766
  105PPPE   H9Y47199   1.647   7.271   3.800
  105PPPE  C31047200   1.517   7.110   3.851
  105PPPE  H10X47201   1.604   7.041   3.852
  105PPPE  H10Y47202   1.430   7.053   3.813
  105PPPE  C31147203   1.487   7.158   3.995
  105PPPE  H11X47204   1.396   7.223   3.995
  105PPPE  H11Y47205   1.569   7.225   4.028
  105PPPE  C31247206   1.469   7.044   4.095
  105PPPE  H12X47207   1.561   6.981   4.095
  105PPPE  H12Y47208   1.384   6.980   4.062
  105PPPE  C31347209   1.448   7.081   4.243
  105PPPE  H13X47210   1.403   6.992   4.292
  105PPPE  H13Y47211   1.377   7.166   4.254
  105PPPE  C31447212   1.578   7.112   4.318
  105PPPE  H14X47213   1.602   7.220   4.304
  105PPPE  H14Y47214   1.662   7.052   4.278
  105PPPE  C31547215   1.569   7.084   4.469
  105PPPE  H15X47216   1.639   7.001   4.495
  105PPPE  H15Y47217   1.466   7.051   4.495
  105PPPE  C31647218   1.606   7.204   4.556
  105PPPE  H16X47219   1.554   7.295   4.520
  105PPPE  H16Y47220   1.578   7.187   4.661
  105PPPE  H16Z47221   1.716   7.221   4.551
  106PPPE     N47222   7.398   5.016   2.841
  106PPPE   HN147223   7.310   4.961   2.831
  106PPPE   HN247224   7.463   4.955   2.894
  106PPPE   HN347225   7.378   5.102   2.898
  106PPPE   C1247226   7.462   5.046   2.708
  106PPPE  H12A47227   7.384   5.080   2.637
  106PPPE  H12B47228   7.504   4.950   2.671
  106PPPE   C1147229   7.574   5.151   2.719
  106PPPE  H11A47230   7.618   5.153   2.822
  106PPPE  H11B47231   7.531   5.252   2.703
  106PPPE     P47232   7.796   5.031   2.651
  106PPPE   O1347233   7.748   4.891   2.639
  106PPPE   O1447234   7.911   5.062   2.562
  106PPPE   O1147235   7.830   5.063   2.801
  106PPPE   O1247236   7.674   5.127   2.619
  106PPPE    C147237   7.879   4.964   2.891
  106PPPE    HA47238   7.978   4.928   2.855
  106PPPE    HB47239   7.808   4.878   2.898
  106PPPE    C247240   7.900   5.015   3.037
  106PPPE    HS47241   7.944   4.929   3.092
  106PPPE   O2147242   7.771   5.050   3.094
  106PPPE   C2147243   7.778   5.067   3.226
  106PPPE   O2247244   7.875   5.040   3.294
  106PPPE   C2247245   7.643   5.116   3.278
  106PPPE   H2R47246   7.563   5.056   3.230
  106PPPE   H2S47247   7.630   5.223   3.249
  106PPPE    C347248   8.003   5.133   3.047
  106PPPE    HX47249   8.049   5.129   3.148
  106PPPE    HY47250   8.086   5.117   2.976
  106PPPE   O3147251   7.939   5.261   3.035
  106PPPE   C3147252   7.955   5.326   2.920
  106PPPE   O3247253   8.021   5.289   2.825
  106PPPE   C3247254   7.875   5.457   2.924
  106PPPE   H2X47255   7.814   5.458   2.830
  106PPPE   H2Y47256   7.947   5.541   2.918
  106PPPE   C2347257   7.633   5.102   3.432
  106PPPE   H3R47258   7.676   5.193   3.479
  106PPPE   H3S47259   7.697   5.019   3.469
  106PPPE   C2447260   7.491   5.074   3.485
  106PPPE   H4R47261   7.497   5.066   3.596
  106PPPE   H4S47262   7.455   4.976   3.448
  106PPPE   C2547263   7.381   5.175   3.450
  106PPPE   H5R47264   7.290   5.148   3.507
  106PPPE   H5S47265   7.354   5.165   3.342
  106PPPE   C2647266   7.415   5.321   3.479
  106PPPE   H6R47267   7.320   5.379   3.481
  106PPPE   H6S47268   7.477   5.360   3.395
  106PPPE   C2747269   7.488   5.350   3.610
  106PPPE   H7R47270   7.535   5.451   3.601
  106PPPE   H7S47271   7.571   5.279   3.628
  106PPPE   C2847272   7.400   5.356   3.734
  106PPPE   H8R47273   7.319   5.431   3.719
  106PPPE   H8S47274   7.468   5.395   3.813
  106PPPE   C2947275   7.339   5.226   3.781
  106PPPE   H9147276   7.241   5.203   3.740
  106PPPE  C21047277   7.395   5.141   3.868
  106PPPE  H10147278   7.340   5.050   3.895
  106PPPE  C21147279   7.529   5.156   3.936
  106PPPE  H11R47280   7.604   5.198   3.865
  106PPPE  H11S47281   7.566   5.055   3.964
  106PPPE  C21247282   7.532   5.244   4.063
  106PPPE  H12R47283   7.527   5.352   4.037
  106PPPE  H12S47284   7.629   5.225   4.113
  106PPPE  C21347285   7.421   5.211   4.163
  106PPPE  H13R47286   7.405   5.101   4.160
  106PPPE  H13S47287   7.326   5.260   4.131
  106PPPE  C21447288   7.454   5.247   4.309
  106PPPE  H14R47289   7.545   5.192   4.341
  106PPPE  H14S47290   7.370   5.212   4.374
  106PPPE  C21547291   7.474   5.396   4.339
  106PPPE  H15R47292   7.383   5.453   4.312
  106PPPE  H15S47293   7.556   5.436   4.274
  106PPPE  C21647294   7.507   5.422   4.486
  106PPPE  H16R47295   7.597   5.365   4.517
  106PPPE  H16S47296   7.422   5.390   4.551
  106PPPE  H16T47297   7.525   5.530   4.505
  106PPPE   C3347298   7.781   5.477   3.046
  106PPPE   H3X47299   7.730   5.381   3.073
  106PPPE   H3Y47300   7.702   5.550   3.019
  106PPPE   C3447301   7.855   5.534   3.168
  106PPPE   H4X47302   7.895   5.634   3.139
  106PPPE   H4Y47303   7.942   5.468   3.193
  106PPPE   C3547304   7.769   5.551   3.294
  106PPPE   H5X47305   7.662   5.562   3.264
  106PPPE   H5Y47306   7.798   5.645   3.345
  106PPPE   C3647307   7.784   5.435   3.394
  106PPPE   H6X47308   7.842   5.353   3.347
  106PPPE   H6Y47309   7.684   5.396   3.419
  106PPPE   C3747310   7.853   5.475   3.525
  106PPPE   H7X47311   7.784   5.539   3.587
  106PPPE   H7Y47312   7.942   5.539   3.502
  106PPPE   C3847313   7.899   5.354   3.609
  106PPPE   H8X47314   8.009   5.357   3.624
  106PPPE   H8Y47315   7.877   5.261   3.552
  106PPPE   C3947316   7.832   5.345   3.747
  106PPPE   H9X47317   7.833   5.239   3.782
  106PPPE   H9Y47318   7.725   5.376   3.737
  106PPPE  C31047319   7.899   5.432   3.853
  106PPPE  H10X47320   7.927   5.530   3.809
  106PPPE  H10Y47321   7.992   5.383   3.888
  106PPPE  C31147322   7.805   5.456   3.971
  106PPPE  H11X47323   7.772   5.359   4.013
  106PPPE  H11Y47324   7.714   5.508   3.932
  106PPPE  C31247325   7.866   5.543   4.082
  106PPPE  H12X47326   7.783   5.603   4.125
  106PPPE  H12Y47327   7.940   5.613   4.038
  106PPPE  C31347328   7.930   5.463   4.197
  106PPPE  H13X47329   7.995   5.531   4.256
  106PPPE  H13Y47330   7.993   5.382   4.157
  106PPPE  C31447331   7.824   5.406   4.293
  106PPPE  H14X47332   7.761   5.335   4.236
  106PPPE  H14Y47333   7.759   5.489   4.328
  106PPPE  C31547334   7.880   5.333   4.415
  106PPPE  H15X47335   7.972   5.277   4.386
  106PPPE  H15Y47336   7.805   5.259   4.450
  106PPPE  C31647337   7.911   5.426   4.533
  106PPPE  H16X47338   7.819   5.482   4.564
  106PPPE  H16Y47339   7.946   5.368   4.622
  106PPPE  H16Z47340   7.989   5.500   4.506
  107PPPE     N47341   1.746   6.304   2.658
  107PPPE   HN147342   1.797   6.234   2.600
  107PPPE   HN247343   1.819   6.350   2.716
  107PPPE   HN347344   1.684   6.248   2.720
  107PPPE   C1247345   1.669   6.405   2.577
  107PPPE  H12A47346   1.602   6.351   2.507
  107PPPE  H12B47347   1.742   6.466   2.519
  107PPPE   C1147348   1.586   6.495   2.670
  107PPPE  H11A47349   1.653   6.538   2.748
  107PPPE  H11B47350   1.509   6.433   2.720
  107PPPE     P47351   1.420   6.693   2.665
  107PPPE   O1347352   1.432   6.830   2.609
  107PPPE   O1447353   1.290   6.624   2.652
  107PPPE   O1147354   1.473   6.686   2.815
  107PPPE   O1247355   1.527   6.600   2.593
  107PPPE    C147356   1.427   6.773   2.918
  107PPPE    HA47357   1.316   6.786   2.914
  107PPPE    HB47358   1.474   6.873   2.910
  107PPPE    C247359   1.460   6.716   3.061
  107PPPE    HS47360   1.408   6.780   3.134
  107PPPE   O2147361   1.604   6.715   3.080
  107PPPE   C2147362   1.641   6.720   3.208
  107PPPE   O2247363   1.568   6.746   3.302
  107PPPE   C2247364   1.791   6.690   3.219
  107PPPE   H2R47365   1.842   6.780   3.259
  107PPPE   H2S47366   1.828   6.668   3.117
  107PPPE    C347367   1.403   6.571   3.072
  107PPPE    HX47368   1.293   6.574   3.056
  107PPPE    HY47369   1.444   6.513   2.986
  107PPPE   O3147370   1.439   6.501   3.193
  107PPPE   C3147371   1.361   6.529   3.299
  107PPPE   O3247372   1.270   6.610   3.299
  107PPPE   C3247373   1.401   6.435   3.413
  107PPPE   H2X47374   1.505   6.458   3.443
  107PPPE   H2Y47375   1.398   6.332   3.373
  107PPPE   C2347376   1.820   6.568   3.309
  107PPPE   H3R47377   1.916   6.522   3.280
  107PPPE   H3S47378   1.741   6.490   3.296
  107PPPE   C2447379   1.832   6.602   3.459
  107PPPE   H4R47380   1.736   6.644   3.495
  107PPPE   H4S47381   1.911   6.679   3.474
  107PPPE   C2547382   1.868   6.478   3.543
  107PPPE   H5R47383   1.967   6.439   3.513
  107PPPE   H5S47384   1.792   6.399   3.523
  107PPPE   C2647385   1.866   6.505   3.694
  107PPPE   H6R47386   1.764   6.538   3.719
  107PPPE   H6S47387   1.935   6.588   3.721
  107PPPE   C2747388   1.901   6.380   3.778
  107PPPE   H7R47389   2.011   6.370   3.785
  107PPPE   H7S47390   1.865   6.290   3.724
  107PPPE   C2847391   1.840   6.381   3.920
  107PPPE   H8R47392   1.873   6.472   3.973
  107PPPE   H8S47393   1.882   6.295   3.976
  107PPPE   C2947394   1.689   6.370   3.912
  107PPPE   H9147395   1.653   6.351   3.811
  107PPPE  C21047396   1.597   6.383   4.009
  107PPPE  H10147397   1.491   6.371   3.984
  107PPPE  C21147398   1.622   6.410   4.155
  107PPPE  H11R47399   1.581   6.509   4.183
  107PPPE  H11S47400   1.731   6.414   4.176
  107PPPE  C21247401   1.560   6.303   4.248
  107PPPE  H12R47402   1.630   6.284   4.332
  107PPPE  H12S47403   1.549   6.206   4.194
  107PPPE  C21347404   1.424   6.342   4.304
  107PPPE  H13R47405   1.358   6.253   4.299
  107PPPE  H13S47406   1.378   6.423   4.243
  107PPPE  C21447407   1.434   6.383   4.451
  107PPPE  H14R47408   1.522   6.449   4.465
  107PPPE  H14S47409   1.454   6.292   4.511
  107PPPE  C21547410   1.308   6.451   4.504
  107PPPE  H15R47411   1.219   6.404   4.457
  107PPPE  H15S47412   1.307   6.558   4.474
  107PPPE  C21647413   1.294   6.438   4.655
  107PPPE  H16R47414   1.193   6.471   4.688
  107PPPE  H16S47415   1.306   6.332   4.688
  107PPPE  H16T47416   1.370   6.499   4.708
  107PPPE   C3347417   1.308   6.442   3.538
  107PPPE   H3X47418   1.287   6.338   3.570
  107PPPE   H3Y47419   1.211   6.489   3.514
  107PPPE   C3447420   1.373   6.513   3.658
  107PPPE   H4X47421   1.468   6.462   3.684
  107PPPE   H4Y47422   1.304   6.503   3.745
  107PPPE   C3547423   1.401   6.663   3.635
  107PPPE   H5X47424   1.308   6.710   3.596
  107PPPE   H5Y47425   1.480   6.676   3.558
  107PPPE   C3647426   1.441   6.737   3.764
  107PPPE   H6X47427   1.363   6.720   3.841
  107PPPE   H6Y47428   1.443   6.846   3.743
  107PPPE   C3747429   1.578   6.695   3.822
  107PPPE   H7X47430   1.658   6.727   3.752
  107PPPE   H7Y47431   1.579   6.585   3.829
  107PPPE   C3847432   1.604   6.755   3.962
  107PPPE   H8X47433   1.521   6.726   4.030
  107PPPE   H8Y47434   1.600   6.865   3.945
  107PPPE   C3947435   1.738   6.724   4.030
  107PPPE   H9X47436   1.823   6.754   3.964
  107PPPE   H9Y47437   1.746   6.615   4.049
  107PPPE  C31047438   1.750   6.796   4.167
  107PPPE  H10X47439   1.661   6.772   4.228
  107PPPE  H10Y47440   1.748   6.905   4.145
  107PPPE  C31147441   1.878   6.771   4.248
  107PPPE  H11X47442   1.881   6.848   4.328
  107PPPE  H11Y47443   1.967   6.788   4.183
  107PPPE  C31247444   1.891   6.633   4.316
  107PPPE  H12X47445   1.984   6.633   4.378
  107PPPE  H12Y47446   1.904   6.556   4.237
  107PPPE  C31347447   1.774   6.591   4.406
  107PPPE  H13X47448   1.791   6.487   4.441
  107PPPE  H13Y47449   1.681   6.589   4.345
  107PPPE  C31447450   1.745   6.679   4.530
  107PPPE  H14X47451   1.814   6.766   4.533
  107PPPE  H14Y47452   1.764   6.619   4.622
  107PPPE  C31547453   1.600   6.728   4.533
  107PPPE  H15X47454   1.531   6.645   4.507
  107PPPE  H15Y47455   1.586   6.804   4.453
  107PPPE  C31647456   1.556   6.784   4.668
  107PPPE  H16X47457   1.557   6.704   4.745
  107PPPE  H16Y47458   1.623   6.865   4.701
  107PPPE  H16Z47459   1.452   6.824   4.662
  108PPPE     N47460   3.763   7.768   2.467
  108PPPE   HN147461   3.843   7.833   2.483
  108PPPE   HN247462   3.771   7.727   2.371
  108PPPE   HN347463   3.679   7.829   2.474
  108PPPE   C1247464   3.753   7.662   2.573
  108PPPE  H12A47465   3.853   7.615   2.584
  108PPPE  H12B47466   3.680   7.586   2.537
  108PPPE   C1147467   3.703   7.720   2.707
  108PPPE  H11A47468   3.773   7.798   2.745
  108PPPE  H11B47469   3.703   7.639   2.783
  108PPPE     P47470   3.536   7.922   2.680
  108PPPE   O1347471   3.609   7.966   2.558
  108PPPE   O1447472   3.390   7.940   2.679
  108PPPE   O1147473   3.607   7.986   2.806
  108PPPE   O1247474   3.569   7.768   2.694
  108PPPE    C147475   3.541   7.995   2.934
  108PPPE    HA47476   3.477   7.908   2.955
  108PPPE    HB47477   3.477   8.086   2.936
  108PPPE    C247478   3.645   8.008   3.050
  108PPPE    HS47479   3.723   8.079   3.014
  108PPPE   O2147480   3.701   7.878   3.077
  108PPPE   C2147481   3.818   7.882   3.141
  108PPPE   O2247482   3.877   7.983   3.174
  108PPPE   C2247483   3.878   7.741   3.146
  108PPPE   H2R47484   3.989   7.752   3.148
  108PPPE   H2S47485   3.849   7.688   3.054
  108PPPE    C347486   3.580   8.071   3.179
  108PPPE    HX47487   3.656   8.072   3.259
  108PPPE    HY47488   3.556   8.177   3.155
  108PPPE   O3147489   3.458   8.003   3.212
  108PPPE   C3147490   3.446   7.956   3.335
  108PPPE   O3247491   3.523   7.977   3.427
  108PPPE   C3247492   3.323   7.867   3.341
  108PPPE   H2X47493   3.235   7.930   3.313
  108PPPE   H2Y47494   3.310   7.833   3.446
  108PPPE   C2347495   3.833   7.655   3.267
  108PPPE   H3R47496   3.869   7.552   3.249
  108PPPE   H3S47497   3.723   7.649   3.273
  108PPPE   C2447498   3.892   7.700   3.403
  108PPPE   H4R47499   3.991   7.747   3.391
  108PPPE   H4S47500   3.906   7.609   3.465
  108PPPE   C2547501   3.798   7.792   3.481
  108PPPE   H5R47502   3.698   7.745   3.485
  108PPPE   H5S47503   3.785   7.889   3.429
  108PPPE   C2647504   3.843   7.820   3.627
  108PPPE   H6R47505   3.928   7.890   3.625
  108PPPE   H6S47506   3.877   7.725   3.674
  108PPPE   C2747507   3.728   7.878   3.710
  108PPPE   H7R47508   3.653   7.798   3.729
  108PPPE   H7S47509   3.677   7.957   3.651
  108PPPE   C2847510   3.770   7.940   3.845
  108PPPE   H8R47511   3.679   7.981   3.893
  108PPPE   H8S47512   3.838   8.026   3.825
  108PPPE   C2947513   3.839   7.840   3.936
  108PPPE   H9147514   3.944   7.818   3.908
  108PPPE  C21047515   3.786   7.778   4.042
  108PPPE  H10147516   3.848   7.708   4.098
  108PPPE  C21147517   3.647   7.792   4.096
  108PPPE  H11R47518   3.572   7.752   4.024
  108PPPE  H11S47519   3.621   7.899   4.115
  108PPPE  C21247520   3.633   7.715   4.229
  108PPPE  H12R47521   3.661   7.608   4.217
  108PPPE  H12S47522   3.526   7.718   4.260
  108PPPE  C21347523   3.717   7.775   4.342
  108PPPE  H13R47524   3.701   7.885   4.340
  108PPPE  H13S47525   3.825   7.755   4.323
  108PPPE  C21447526   3.681   7.724   4.481
  108PPPE  H14R47527   3.763   7.750   4.551
  108PPPE  H14S47528   3.673   7.613   4.481
  108PPPE  C21547529   3.551   7.786   4.535
  108PPPE  H15R47530   3.479   7.705   4.556
  108PPPE  H15S47531   3.505   7.849   4.455
  108PPPE  C21647532   3.573   7.871   4.660
  108PPPE  H16R47533   3.644   7.822   4.729
  108PPPE  H16S47534   3.613   7.971   4.631
  108PPPE  H16T47535   3.478   7.886   4.714
  108PPPE   C3347536   3.337   7.748   3.245
  108PPPE   H3X47537   3.369   7.783   3.144
  108PPPE   H3Y47538   3.238   7.698   3.233
  108PPPE   C3447539   3.438   7.643   3.295
  108PPPE   H4X47540   3.530   7.693   3.332
  108PPPE   H4Y47541   3.465   7.576   3.212
  108PPPE   C3547542   3.380   7.558   3.408
  108PPPE   H5X47543   3.276   7.533   3.378
  108PPPE   H5Y47544   3.372   7.616   3.502
  108PPPE   C3647545   3.453   7.425   3.431
  108PPPE   H6X47546   3.463   7.370   3.335
  108PPPE   H6Y47547   3.390   7.363   3.498
  108PPPE   C3747548   3.592   7.438   3.497
  108PPPE   H7X47549   3.661   7.487   3.425
  108PPPE   H7Y47550   3.631   7.336   3.517
  108PPPE   C3847551   3.593   7.518   3.629
  108PPPE   H8X47552   3.566   7.623   3.608
  108PPPE   H8Y47553   3.696   7.518   3.671
  108PPPE   C3947554   3.496   7.462   3.733
  108PPPE   H9X47555   3.525   7.356   3.754
  108PPPE   H9Y47556   3.393   7.461   3.693
  108PPPE  C31047557   3.493   7.541   3.865
  108PPPE  H10X47558   3.488   7.650   3.844
  108PPPE  H10Y47559   3.588   7.521   3.920
  108PPPE  C31147560   3.372   7.500   3.950
  108PPPE  H11X47561   3.358   7.391   3.938
  108PPPE  H11Y47562   3.280   7.549   3.913
  108PPPE  C31247563   3.389   7.525   4.101
  108PPPE  H12X47564   3.355   7.628   4.127
  108PPPE  H12Y47565   3.496   7.516   4.127
  108PPPE  C31347566   3.312   7.420   4.182
  108PPPE  H13X47567   3.365   7.323   4.176
  108PPPE  H13Y47568   3.213   7.407   4.134
  108PPPE  C31447569   3.290   7.454   4.330
  108PPPE  H14X47570   3.202   7.395   4.366
  108PPPE  H14Y47571   3.264   7.562   4.342
  108PPPE  C31547572   3.408   7.417   4.420
  108PPPE  H15X47573   3.492   7.487   4.401
  108PPPE  H15Y47574   3.442   7.314   4.394
  108PPPE  C31647575   3.371   7.417   4.568
  108PPPE  H16X47576   3.324   7.514   4.595
  108PPPE  H16Y47577   3.299   7.336   4.591
  108PPPE  H16Z47578   3.461   7.402   4.631
  109PPPE     N47579   6.767   7.068   2.457
  109PPPE   HN147580   6.816   7.032   2.372
  109PPPE   HN247581   6.832   7.101   2.531
  109PPPE   HN347582   6.709   6.991   2.495
  109PPPE   C1247583   6.661   7.169   2.426
  109PPPE  H12A47584   6.632   7.156   2.319
  109PPPE  H12B47585   6.700   7.272   2.442
  109PPPE   C1147586   6.542   7.135   2.516
  109PPPE  H11A47587   6.453   7.191   2.482
  109PPPE  H11B47588   6.565   7.168   2.620
  109PPPE     P47589   6.409   6.932   2.605
  109PPPE   O1347590   6.287   7.010   2.580
  109PPPE   O1447591   6.408   6.786   2.581
  109PPPE   O1147592   6.475   6.965   2.745
  109PPPE   O1247593   6.521   6.993   2.510
  109PPPE    C147594   6.600   6.904   2.782
  109PPPE    HA47595   6.652   6.971   2.853
  109PPPE    HB47596   6.667   6.890   2.695
  109PPPE    C247597   6.578   6.768   2.852
  109PPPE    HS47598   6.506   6.711   2.789
  109PPPE   O2147599   6.522   6.794   2.981
  109PPPE   C2147600   6.449   6.701   3.035
  109PPPE   O2247601   6.427   6.590   2.987
  109PPPE   C2247602   6.394   6.750   3.168
  109PPPE   H2R47603   6.357   6.661   3.223
  109PPPE   H2S47604   6.307   6.817   3.148
  109PPPE    C347605   6.708   6.682   2.862
  109PPPE    HX47606   6.677   6.580   2.893
  109PPPE    HY47607   6.753   6.671   2.761
  109PPPE   O3147608   6.802   6.731   2.959
  109PPPE   C3147609   6.893   6.818   2.917
  109PPPE   O3247610   6.903   6.862   2.804
  109PPPE   C3247611   6.993   6.841   3.030
  109PPPE   H2X47612   7.077   6.903   2.991
  109PPPE   H2Y47613   7.033   6.742   3.058
  109PPPE   C2347614   6.499   6.824   3.255
  109PPPE   H3R47615   6.601   6.783   3.240
  109PPPE   H3S47616   6.473   6.805   3.361
  109PPPE   C2447617   6.502   6.976   3.234
  109PPPE   H4R47618   6.434   7.003   3.150
  109PPPE   H4S47619   6.604   7.008   3.205
  109PPPE   C2547620   6.459   7.054   3.359
  109PPPE   H5R47621   6.360   7.016   3.393
  109PPPE   H5S47622   6.446   7.161   3.333
  109PPPE   C2647623   6.559   7.044   3.476
  109PPPE   H6R47624   6.652   7.098   3.448
  109PPPE   H6S47625   6.586   6.938   3.495
  109PPPE   C2747626   6.501   7.103   3.605
  109PPPE   H7R47627   6.411   7.046   3.634
  109PPPE   H7S47628   6.468   7.207   3.584
  109PPPE   C2847629   6.600   7.107   3.723
  109PPPE   H8R47630   6.551   7.164   3.806
  109PPPE   H8S47631   6.688   7.167   3.693
  109PPPE   C2947632   6.644   6.972   3.773
  109PPPE   H9147633   6.730   6.928   3.719
  109PPPE  C21047634   6.590   6.901   3.872
  109PPPE  H10147635   6.634   6.805   3.900
  109PPPE  C21147636   6.472   6.942   3.957
  109PPPE  H11R47637   6.429   6.851   4.004
  109PPPE  H11S47638   6.390   6.985   3.895
  109PPPE  C21247639   6.503   7.043   4.070
  109PPPE  H12R47640   6.468   7.144   4.039
  109PPPE  H12S47641   6.612   7.050   4.087
  109PPPE  C21347642   6.436   7.004   4.203
  109PPPE  H13R47643   6.486   6.912   4.240
  109PPPE  H13S47644   6.329   6.981   4.188
  109PPPE  C21447645   6.448   7.113   4.311
  109PPPE  H14R47646   6.372   7.192   4.294
  109PPPE  H14S47647   6.547   7.162   4.301
  109PPPE  C21547648   6.436   7.058   4.454
  109PPPE  H15R47649   6.464   7.137   4.526
  109PPPE  H15S47650   6.510   6.976   4.467
  109PPPE  C21647651   6.298   7.005   4.492
  109PPPE  H16R47652   6.300   6.964   4.595
  109PPPE  H16S47653   6.222   7.086   4.490
  109PPPE  H16T47654   6.266   6.923   4.424
  109PPPE   C3347655   6.934   6.906   3.158
  109PPPE   H3X47656   6.834   6.864   3.181
  109PPPE   H3Y47657   6.923   7.015   3.145
  109PPPE   C3447658   7.026   6.876   3.278
  109PPPE   H4X47659   7.129   6.908   3.254
  109PPPE   H4Y47660   7.028   6.767   3.296
  109PPPE   C3547661   6.983   6.946   3.408
  109PPPE   H5X47662   6.876   6.924   3.429
  109PPPE   H5Y47663   6.994   7.056   3.398
  109PPPE   C3647664   7.068   6.898   3.528
  109PPPE   H6X47665   7.176   6.906   3.503
  109PPPE   H6Y47666   7.045   6.791   3.546
  109PPPE   C3747667   7.040   6.978   3.655
  109PPPE   H7X47668   6.930   6.994   3.664
  109PPPE   H7Y47669   7.087   7.078   3.648
  109PPPE   C3847670   7.088   6.907   3.782
  109PPPE   H8X47671   7.198   6.896   3.781
  109PPPE   H8Y47672   7.044   6.805   3.782
  109PPPE   C3947673   7.044   6.980   3.910
  109PPPE   H9X47674   6.939   7.014   3.896
  109PPPE   H9Y47675   7.107   7.071   3.924
  109PPPE  C31047676   7.046   6.897   4.038
  109PPPE  H10X47677   7.017   6.963   4.123
  109PPPE  H10Y47678   7.149   6.860   4.059
  109PPPE  C31147679   6.947   6.780   4.035
  109PPPE  H11X47680   6.992   6.696   3.976
  109PPPE  H11Y47681   6.854   6.811   3.981
  109PPPE  C31247682   6.908   6.729   4.174
  109PPPE  H12X47683   6.834   6.799   4.219
  109PPPE  H12Y47684   6.996   6.731   4.240
  109PPPE  C31347685   6.850   6.587   4.171
  109PPPE  H13X47686   6.923   6.521   4.120
  109PPPE  H13Y47687   6.755   6.585   4.113
  109PPPE  C31447688   6.826   6.533   4.312
  109PPPE  H14X47689   6.919   6.549   4.370
  109PPPE  H14Y47690   6.809   6.423   4.308
  109PPPE  C31547691   6.709   6.599   4.386
  109PPPE  H15X47692   6.620   6.533   4.379
  109PPPE  H15Y47693   6.682   6.695   4.337
  109PPPE  C31647694   6.742   6.629   4.532
  109PPPE  H16X47695   6.654   6.665   4.589
  109PPPE  H16Y47696   6.782   6.538   4.583
  109PPPE  H16Z47697   6.821   6.706   4.539
  110PPPE     N47698   0.780   1.815   2.803
  110PPPE   HN147699   0.744   1.727   2.845
  110PPPE   HN247700   0.849   1.857   2.870
  110PPPE   HN347701   0.704   1.884   2.786
  110PPPE   C1247702   0.855   1.784   2.677
  110PPPE  H12A47703   0.893   1.880   2.637
  110PPPE  H12B47704   0.786   1.738   2.603
  110PPPE   C1147705   0.970   1.689   2.711
  110PPPE  H11A47706   0.932   1.585   2.723
  110PPPE  H11B47707   1.013   1.717   2.809
  110PPPE     P47708   1.184   1.802   2.612
  110PPPE   O1347709   1.301   1.751   2.539
  110PPPE   O1447710   1.120   1.925   2.561
  110PPPE   O1147711   1.213   1.821   2.766
  110PPPE   O1247712   1.070   1.690   2.610
  110PPPE    C147713   1.308   1.745   2.843
  110PPPE    HA47714   1.369   1.814   2.905
  110PPPE    HB47715   1.379   1.689   2.778
  110PPPE    C247716   1.239   1.644   2.940
  110PPPE    HS47717   1.180   1.576   2.874
  110PPPE   O2147718   1.156   1.716   3.033
  110PPPE   C2147719   1.042   1.659   3.066
  110PPPE   O2247720   0.979   1.578   3.000
  110PPPE   C2247721   0.994   1.725   3.194
  110PPPE   H2R47722   0.987   1.835   3.175
  110PPPE   H2S47723   1.071   1.708   3.273
  110PPPE    C347724   1.339   1.555   3.019
  110PPPE    HX47725   1.292   1.454   3.030
  110PPPE    HY47726   1.429   1.541   2.954
  110PPPE   O3147727   1.384   1.608   3.148
  110PPPE   C3147728   1.318   1.561   3.254
  110PPPE   O3247729   1.219   1.491   3.249
  110PPPE   C3247730   1.385   1.607   3.384
  110PPPE   H2X47731   1.360   1.715   3.400
  110PPPE   H2Y47732   1.495   1.597   3.373
  110PPPE   C2347733   0.859   1.670   3.241
  110PPPE   H3R47734   0.869   1.563   3.271
  110PPPE   H3S47735   0.784   1.674   3.160
  110PPPE   C2447736   0.807   1.752   3.359
  110PPPE   H4R47737   0.701   1.725   3.379
  110PPPE   H4S47738   0.806   1.860   3.332
  110PPPE   C2547739   0.891   1.738   3.488
  110PPPE   H5R47740   0.840   1.795   3.568
  110PPPE   H5S47741   0.990   1.786   3.472
  110PPPE   C2647742   0.919   1.595   3.539
  110PPPE   H6R47743   0.992   1.546   3.471
  110PPPE   H6S47744   0.827   1.533   3.539
  110PPPE   C2747745   0.978   1.601   3.681
  110PPPE   H7R47746   0.902   1.640   3.753
  110PPPE   H7S47747   1.058   1.678   3.679
  110PPPE   C2847748   1.041   1.471   3.735
  110PPPE   H8R47749   1.120   1.501   3.807
  110PPPE   H8S47750   1.094   1.418   3.653
  110PPPE   C2947751   0.945   1.376   3.804
  110PPPE   H9147752   0.893   1.305   3.737
  110PPPE  C21047753   0.919   1.373   3.936
  110PPPE  H10147754   0.844   1.302   3.974
  110PPPE  C21147755   0.978   1.464   4.040
  110PPPE  H11R47756   0.953   1.569   4.016
  110PPPE  H11S47757   1.089   1.458   4.042
  110PPPE  C21247758   0.926   1.437   4.182
  110PPPE  H12R47759   0.823   1.395   4.183
  110PPPE  H12S47760   0.920   1.535   4.234
  110PPPE  C21347761   1.016   1.346   4.267
  110PPPE  H13R47762   1.120   1.385   4.262
  110PPPE  H13S47763   1.017   1.242   4.228
  110PPPE  C21447764   0.973   1.346   4.415
  110PPPE  H14R47765   0.881   1.286   4.429
  110PPPE  H14S47766   0.949   1.451   4.443
  110PPPE  C21547767   1.081   1.299   4.511
  110PPPE  H15R47768   1.174   1.357   4.492
  110PPPE  H15S47769   1.104   1.192   4.492
  110PPPE  C21647770   1.042   1.317   4.658
  110PPPE  H16R47771   1.126   1.288   4.726
  110PPPE  H16S47772   1.017   1.423   4.679
  110PPPE  H16T47773   0.954   1.254   4.684
  110PPPE   C3347774   1.338   1.524   3.507
  110PPPE   H3X47775   1.355   1.417   3.485
  110PPPE   H3Y47776   1.229   1.538   3.523
  110PPPE   C3447777   1.412   1.555   3.639
  110PPPE   H4X47778   1.522   1.559   3.622
  110PPPE   H4Y47779   1.393   1.470   3.707
  110PPPE   C3547780   1.366   1.683   3.710
  110PPPE   H5X47781   1.255   1.681   3.720
  110PPPE   H5Y47782   1.392   1.771   3.648
  110PPPE   C3647783   1.424   1.703   3.851
  110PPPE   H6X47784   1.396   1.805   3.886
  110PPPE   H6Y47785   1.535   1.699   3.847
  110PPPE   C3747786   1.373   1.601   3.955
  110PPPE   H7X47787   1.408   1.500   3.925
  110PPPE   H7Y47788   1.262   1.599   3.954
  110PPPE   C3847789   1.422   1.627   4.098
  110PPPE   H8X47790   1.533   1.634   4.097
  110PPPE   H8Y47791   1.396   1.540   4.162
  110PPPE   C3947792   1.366   1.753   4.167
  110PPPE   H9X47793   1.390   1.843   4.105
  110PPPE   H9Y47794   1.417   1.766   4.264
  110PPPE  C31047795   1.215   1.749   4.193
  110PPPE  H10X47796   1.192   1.660   4.255
  110PPPE  H10Y47797   1.160   1.737   4.097
  110PPPE  C31147798   1.164   1.875   4.264
  110PPPE  H11X47799   1.193   1.963   4.203
  110PPPE  H11Y47800   1.214   1.886   4.362
  110PPPE  C31247801   1.012   1.878   4.283
  110PPPE  H12X47802   0.962   1.854   4.188
  110PPPE  H12Y47803   0.981   1.980   4.313
  110PPPE  C31347804   0.962   1.780   4.391
  110PPPE  H13X47805   1.002   1.813   4.490
  110PPPE  H13Y47806   1.001   1.678   4.372
  110PPPE  C31447807   0.809   1.777   4.399
  110PPPE  H14X47808   0.768   1.753   4.299
  110PPPE  H14Y47809   0.774   1.878   4.427
  110PPPE  C31547810   0.752   1.676   4.502
  110PPPE  H15X47811   0.784   1.574   4.473
  110PPPE  H15Y47812   0.642   1.677   4.495
  110PPPE  C31647813   0.793   1.705   4.646
  110PPPE  H16X47814   0.740   1.637   4.716
  110PPPE  H16Y47815   0.902   1.691   4.660
  110PPPE  H16Z47816   0.768   1.810   4.674
  111PPPE     N47817   7.881   2.581   2.385
  111PPPE   HN147818   7.821   2.512   2.434
  111PPPE   HN247819   7.859   2.583   2.284
  111PPPE   HN347820   7.982   2.555   2.394
  111PPPE   C1247821   7.856   2.717   2.442
  111PPPE  H12A47822   7.757   2.717   2.492
  111PPPE  H12B47823   7.854   2.790   2.358
  111PPPE   C1147824   7.966   2.754   2.539
  111PPPE  H11A47825   8.062   2.763   2.485
  111PPPE  H11B47826   7.977   2.677   2.618
  111PPPE     P47827   8.025   2.942   2.704
  111PPPE   O1347828   8.161   2.901   2.663
  111PPPE   O1447829   7.995   3.087   2.705
  111PPPE   O1147830   7.975   2.870   2.837
  111PPPE   O1247831   7.928   2.879   2.596
  111PPPE    C147832   7.846   2.808   2.845
  111PPPE    HA47833   7.850   2.706   2.801
  111PPPE    HB47834   7.770   2.867   2.789
  111PPPE    C247835   7.796   2.793   2.991
  111PPPE    HS47836   7.822   2.888   3.043
  111PPPE   O2147837   7.864   2.682   3.054
  111PPPE   C2147838   7.838   2.668   3.182
  111PPPE   O2247839   7.770   2.743   3.250
  111PPPE   C2247840   7.899   2.538   3.233
  111PPPE   H2R47841   7.876   2.457   3.160
  111PPPE   H2S47842   7.851   2.513   3.329
  111PPPE    C347843   7.640   2.777   2.999
  111PPPE    HX47844   7.609   2.832   3.091
  111PPPE    HY47845   7.594   2.831   2.912
  111PPPE   O3147846   7.594   2.639   3.002
  111PPPE   C3147847   7.469   2.630   3.050
  111PPPE   O3247848   7.395   2.724   3.068
  111PPPE   C3247849   7.432   2.484   3.076
  111PPPE   H2X47850   7.506   2.417   3.028
  111PPPE   H2Y47851   7.332   2.468   3.031
  111PPPE   C2347852   8.051   2.552   3.252
  111PPPE   H3R47853   8.101   2.564   3.153
  111PPPE   H3S47854   8.091   2.460   3.299
  111PPPE   C2447855   8.090   2.670   3.341
  111PPPE   H4R47856   8.065   2.767   3.292
  111PPPE   H4S47857   8.201   2.667   3.353
  111PPPE   C2547858   8.027   2.666   3.480
  111PPPE   H5R47859   8.055   2.570   3.530
  111PPPE   H5S47860   7.916   2.670   3.476
  111PPPE   C2647861   8.075   2.783   3.568
  111PPPE   H6R47862   8.024   2.877   3.539
  111PPPE   H6S47863   8.183   2.797   3.547
  111PPPE   C2747864   8.062   2.755   3.719
  111PPPE   H7R47865   8.152   2.802   3.766
  111PPPE   H7S47866   8.068   2.646   3.737
  111PPPE   C2847867   7.939   2.814   3.788
  111PPPE   H8R47868   7.919   2.755   3.879
  111PPPE   H8S47869   7.850   2.805   3.722
  111PPPE   C2947870   7.965   2.959   3.822
  111PPPE   H9147871   7.946   3.030   3.741
  111PPPE  C21047872   8.009   3.007   3.940
  111PPPE  H10147873   8.023   3.116   3.947
  111PPPE  C21147874   8.044   2.934   4.068
  111PPPE  H11R47875   8.155   2.932   4.082
  111PPPE  H11S47876   8.010   2.828   4.068
  111PPPE  C21247877   7.982   3.008   4.188
  111PPPE  H12R47878   7.872   2.995   4.186
  111PPPE  H12S47879   8.003   3.117   4.179
  111PPPE  C21347880   8.036   2.967   4.326
  111PPPE  H13R47881   8.147   2.972   4.325
  111PPPE  H13S47882   8.005   2.863   4.349
  111PPPE  C21447883   7.982   3.062   4.434
  111PPPE  H14R47884   7.871   3.056   4.433
  111PPPE  H14S47885   8.010   3.166   4.410
  111PPPE  C21547886   8.034   3.032   4.575
  111PPPE  H15R47887   8.142   3.057   4.579
  111PPPE  H15S47888   8.026   2.923   4.596
  111PPPE  C21647889   7.960   3.109   4.686
  111PPPE  H16R47890   8.014   3.100   4.782
  111PPPE  H16S47891   7.953   3.217   4.662
  111PPPE  H16T47892   7.857   3.070   4.701
  111PPPE   C3347893   7.425   2.453   3.228
  111PPPE   H3X47894   7.374   2.356   3.243
  111PPPE   H3Y47895   7.365   2.530   3.281
  111PPPE   C3447896   7.565   2.444   3.292
  111PPPE   H4X47897   7.618   2.540   3.273
  111PPPE   H4Y47898   7.621   2.364   3.240
  111PPPE   C3547899   7.567   2.417   3.443
  111PPPE   H5X47900   7.653   2.352   3.466
  111PPPE   H5Y47901   7.474   2.364   3.473
  111PPPE   C3647902   7.584   2.546   3.525
  111PPPE   H6X47903   7.494   2.609   3.506
  111PPPE   H6Y47904   7.672   2.603   3.491
  111PPPE   C3747905   7.595   2.518   3.675
  111PPPE   H7X47906   7.540   2.426   3.702
  111PPPE   H7Y47907   7.547   2.603   3.729
  111PPPE   C3847908   7.738   2.504   3.728
  111PPPE   H8X47909   7.791   2.600   3.714
  111PPPE   H8Y47910   7.792   2.427   3.670
  111PPPE   C3947911   7.742   2.466   3.878
  111PPPE   H9X47912   7.847   2.473   3.914
  111PPPE   H9Y47913   7.710   2.360   3.889
  111PPPE  C31047914   7.652   2.550   3.969
  111PPPE  H10X47915   7.545   2.530   3.944
  111PPPE  H10Y47916   7.671   2.658   3.952
  111PPPE  C31147917   7.673   2.518   4.117
  111PPPE  H11X47918   7.775   2.552   4.146
  111PPPE  H11Y47919   7.669   2.408   4.134
  111PPPE  C31247920   7.570   2.586   4.208
  111PPPE  H12X47921   7.470   2.540   4.194
  111PPPE  H12Y47922   7.562   2.693   4.179
  111PPPE  C31347923   7.609   2.580   4.358
  111PPPE  H13X47924   7.544   2.650   4.413
  111PPPE  H13Y47925   7.714   2.616   4.367
  111PPPE  C31447926   7.597   2.441   4.420
  111PPPE  H14X47927   7.650   2.366   4.358
  111PPPE  H14Y47928   7.489   2.414   4.426
  111PPPE  C31547929   7.659   2.436   4.561
  111PPPE  H15X47930   7.651   2.537   4.605
  111PPPE  H15Y47931   7.767   2.412   4.550
  111PPPE  C31647932   7.593   2.337   4.656
  111PPPE  H16X47933   7.589   2.236   4.609
  111PPPE  H16Y47934   7.650   2.330   4.752
  111PPPE  H16Z47935   7.490   2.369   4.679
  112PPPE     N47936   4.457   7.799   2.458
  112PPPE   HN147937   4.457   7.695   2.471
  112PPPE   HN247938   4.401   7.822   2.373
  112PPPE   HN347939   4.555   7.826   2.439
  112PPPE   C1247940   4.415   7.872   2.582
  112PPPE  H12A47941   4.319   7.829   2.619
  112PPPE  H12B47942   4.401   7.979   2.556
  112PPPE   C1147943   4.527   7.858   2.686
  112PPPE  H11A47944   4.534   7.752   2.720
  112PPPE  H11B47945   4.500   7.916   2.777
  112PPPE     P47946   4.712   8.040   2.659
  112PPPE   O1347947   4.844   8.049   2.591
  112PPPE   O1447948   4.609   8.140   2.621
  112PPPE   O1147949   4.732   8.033   2.814
  112PPPE   O1247950   4.652   7.897   2.627
  112PPPE    C147951   4.659   8.111   2.910
  112PPPE    HA47952   4.595   8.045   2.973
  112PPPE    HB47953   4.594   8.187   2.863
  112PPPE    C247954   4.758   8.185   3.004
  112PPPE    HS47955   4.841   8.219   2.938
  112PPPE   O2147956   4.805   8.094   3.106
  112PPPE   C2147957   4.922   8.130   3.160
  112PPPE   O2247958   4.996   8.214   3.111
  112PPPE   C2247959   4.951   8.047   3.285
  112PPPE   H2R47960   5.047   8.083   3.327
  112PPPE   H2S47961   4.966   7.942   3.250
  112PPPE    C347962   4.696   8.312   3.069
  112PPPE    HX47963   4.779   8.379   3.101
  112PPPE    HY47964   4.643   8.368   2.990
  112PPPE   O3147965   4.602   8.282   3.175
  112PPPE   C3147966   4.649   8.300   3.299
  112PPPE   O3247967   4.761   8.340   3.325
  112PPPE   C3247968   4.543   8.274   3.407
  112PPPE   H2X47969   4.488   8.369   3.422
  112PPPE   H2Y47970   4.597   8.253   3.502
  112PPPE   C2347971   4.839   8.054   3.392
  112PPPE   H3R47972   4.739   8.062   3.344
  112PPPE   H3S47973   4.855   8.144   3.455
  112PPPE   C2447974   4.830   7.930   3.483
  112PPPE   H4R47975   4.932   7.898   3.513
  112PPPE   H4S47976   4.784   7.848   3.424
  112PPPE   C2547977   4.742   7.948   3.605
  112PPPE   H5R47978   4.649   8.001   3.575
  112PPPE   H5S47979   4.793   8.010   3.681
  112PPPE   C2647980   4.700   7.813   3.667
  112PPPE   H6R47981   4.790   7.751   3.689
  112PPPE   H6S47982   4.640   7.758   3.591
  112PPPE   C2747983   4.616   7.828   3.794
  112PPPE   H7R47984   4.545   7.743   3.802
  112PPPE   H7S47985   4.555   7.920   3.782
  112PPPE   C2847986   4.703   7.834   3.921
  112PPPE   H8R47987   4.799   7.881   3.892
  112PPPE   H8S47988   4.727   7.732   3.957
  112PPPE   C2947989   4.640   7.920   4.028
  112PPPE   H9147990   4.597   8.012   3.987
  112PPPE  C21047991   4.636   7.903   4.161
  112PPPE  H10147992   4.585   7.979   4.223
  112PPPE  C21147993   4.694   7.791   4.243
  112PPPE  H11R47994   4.742   7.715   4.179
  112PPPE  H11S47995   4.611   7.742   4.299
  112PPPE  C21247996   4.800   7.835   4.347
  112PPPE  H12R47997   4.874   7.897   4.293
  112PPPE  H12S47998   4.853   7.745   4.384
  112PPPE  C21347999   4.751   7.915   4.469
  112PPPE  H13R48000   4.686   8.001   4.439
  112PPPE  H13S48001   4.842   7.957   4.517
  112PPPE  C21448002   4.681   7.831   4.578
  112PPPE  H14R48003   4.726   7.730   4.577
  112PPPE  H14S48004   4.573   7.821   4.556
  112PPPE  C21548005   4.701   7.885   4.720
  112PPPE  H15R48006   4.809   7.901   4.740
  112PPPE  H15S48007   4.667   7.806   4.792
  112PPPE  C21648008   4.624   8.013   4.750
  112PPPE  H16R48009   4.634   8.041   4.858
  112PPPE  H16S48010   4.660   8.097   4.688
  112PPPE  H16T48011   4.516   7.997   4.730
  112PPPE   C3348012   4.441   8.161   3.378
  112PPPE   H3X48013   4.484   8.064   3.410
  112PPPE   H3Y48014   4.418   8.154   3.269
  112PPPE   C3448015   4.307   8.184   3.450
  112PPPE   H4X48016   4.245   8.092   3.443
  112PPPE   H4Y48017   4.251   8.265   3.398
  112PPPE   C3548018   4.318   8.225   3.599
  112PPPE   H5X48019   4.215   8.235   3.641
  112PPPE   H5Y48020   4.365   8.325   3.606
  112PPPE   C3648021   4.395   8.125   3.686
  112PPPE   H6X48022   4.501   8.120   3.653
  112PPPE   H6Y48023   4.350   8.025   3.674
  112PPPE   C3748024   4.394   8.163   3.835
  112PPPE   H7X48025   4.426   8.075   3.895
  112PPPE   H7Y48026   4.289   8.185   3.863
  112PPPE   C3848027   4.483   8.283   3.870
  112PPPE   H8X48028   4.455   8.367   3.802
  112PPPE   H8Y48029   4.589   8.259   3.849
  112PPPE   C3948030   4.466   8.331   4.014
  112PPPE   H9X48031   4.357   8.334   4.039
  112PPPE   H9Y48032   4.504   8.435   4.023
  112PPPE  C31048033   4.539   8.245   4.120
  112PPPE  H10X48034   4.502   8.141   4.113
  112PPPE  H10Y48035   4.508   8.282   4.220
  112PPPE  C31148036   4.693   8.254   4.110
  112PPPE  H11X48037   4.716   8.361   4.092
  112PPPE  H11Y48038   4.731   8.198   4.021
  112PPPE  C31248039   4.768   8.210   4.237
  112PPPE  H12X48040   4.790   8.101   4.234
  112PPPE  H12Y48041   4.702   8.227   4.325
  112PPPE  C31348042   4.901   8.285   4.262
  112PPPE  H13X48043   4.911   8.367   4.188
  112PPPE  H13Y48044   4.987   8.217   4.247
  112PPPE  C31448045   4.911   8.348   4.403
  112PPPE  H14X48046   4.821   8.410   4.422
  112PPPE  H14Y48047   4.999   8.416   4.406
  112PPPE  C31548048   4.926   8.244   4.514
  112PPPE  H15X48049   5.021   8.189   4.498
  112PPPE  H15Y48050   4.842   8.171   4.505
  112PPPE  C31648051   4.924   8.303   4.655
  112PPPE  H16X48052   4.998   8.384   4.665
  112PPPE  H16Y48053   4.823   8.344   4.679
  112PPPE  H16Z48054   4.948   8.224   4.729
  113PPPE     N48055   2.902   7.537   2.742
  113PPPE   HN148056   2.833   7.471   2.702
  113PPPE   HN248057   2.967   7.566   2.666
  113PPPE   HN348058   2.952   7.492   2.821
  113PPPE   C1248059   2.820   7.655   2.787
  113PPPE  H12A48060   2.889   7.733   2.828
  113PPPE  H12B48061   2.753   7.620   2.868
  113PPPE   C1148062   2.737   7.709   2.670
  113PPPE  H11A48063   2.803   7.756   2.595
  113PPPE  H11B48064   2.669   7.788   2.708
  113PPPE     P48065   2.540   7.632   2.518
  113PPPE   O1348066   2.560   7.763   2.451
  113PPPE   O1448067   2.527   7.517   2.426
  113PPPE   O1148068   2.414   7.640   2.612
  113PPPE   O1248069   2.664   7.601   2.612
  113PPPE    C148070   2.396   7.562   2.730
  113PPPE    HA48071   2.478   7.489   2.749
  113PPPE    HB48072   2.303   7.503   2.718
  113PPPE    C248073   2.379   7.652   2.856
  113PPPE    HS48074   2.310   7.734   2.826
  113PPPE   O2148075   2.508   7.708   2.888
  113PPPE   C2148076   2.512   7.787   2.995
  113PPPE   O2248077   2.420   7.812   3.069
  113PPPE   C2248078   2.647   7.855   3.004
  113PPPE   H2R48079   2.616   7.956   3.038
  113PPPE   H2S48080   2.694   7.867   2.903
  113PPPE    C348081   2.310   7.576   2.974
  113PPPE    HX48082   2.255   7.651   3.036
  113PPPE    HY48083   2.233   7.507   2.936
  113PPPE   O3148084   2.411   7.505   3.049
  113PPPE   C3148085   2.407   7.522   3.181
  113PPPE   O3248086   2.308   7.544   3.247
  113PPPE   C3248087   2.553   7.528   3.228
  113PPPE   H2X48088   2.578   7.636   3.227
  113PPPE   H2Y48089   2.618   7.474   3.155
  113PPPE   C2348090   2.749   7.814   3.112
  113PPPE   H3R48091   2.799   7.717   3.089
  113PPPE   H3S48092   2.694   7.804   3.208
  113PPPE   C2448093   2.851   7.928   3.127
  113PPPE   H4R48094   2.796   8.024   3.138
  113PPPE   H4S48095   2.913   7.937   3.035
  113PPPE   C2548096   2.943   7.919   3.250
  113PPPE   H5R48097   3.001   8.014   3.259
  113PPPE   H5S48098   3.016   7.837   3.234
  113PPPE   C2648099   2.869   7.894   3.382
  113PPPE   H6R48100   2.944   7.892   3.464
  113PPPE   H6S48101   2.822   7.793   3.375
  113PPPE   C2748102   2.756   7.991   3.424
  113PPPE   H7R48103   2.675   7.988   3.347
  113PPPE   H7S48104   2.795   8.095   3.425
  113PPPE   C2848105   2.697   7.949   3.561
  113PPPE   H8R48106   2.754   7.861   3.594
  113PPPE   H8S48107   2.592   7.915   3.545
  113PPPE   C2948108   2.706   8.054   3.668
  113PPPE   H9148109   2.782   8.131   3.649
  113PPPE  C21048110   2.635   8.061   3.782
  113PPPE  H10148111   2.657   8.142   3.853
  113PPPE  C21148112   2.527   7.969   3.832
  113PPPE  H11R48113   2.567   7.905   3.913
  113PPPE  H11S48114   2.491   7.901   3.750
  113PPPE  C21248115   2.406   8.045   3.889
  113PPPE  H12R48116   2.315   7.981   3.880
  113PPPE  H12S48117   2.389   8.134   3.826
  113PPPE  C21348118   2.419   8.089   4.036
  113PPPE  H13R48119   2.345   8.169   4.056
  113PPPE  H13S48120   2.520   8.133   4.056
  113PPPE  C21448121   2.392   7.976   4.137
  113PPPE  H14R48122   2.483   7.913   4.145
  113PPPE  H14S48123   2.309   7.912   4.101
  113PPPE  C21548124   2.356   8.024   4.280
  113PPPE  H15R48125   2.260   8.079   4.275
  113PPPE  H15S48126   2.432   8.096   4.314
  113PPPE  C21648127   2.347   7.911   4.382
  113PPPE  H16R48128   2.268   7.838   4.355
  113PPPE  H16S48129   2.444   7.857   4.389
  113PPPE  H16T48130   2.325   7.951   4.483
  113PPPE   C3348131   2.577   7.476   3.370
  113PPPE   H3X48132   2.491   7.500   3.436
  113PPPE   H3Y48133   2.664   7.530   3.412
  113PPPE   C3448134   2.610   7.326   3.370
  113PPPE   H4X48135   2.710   7.313   3.325
  113PPPE   H4Y48136   2.537   7.272   3.306
  113PPPE   C3548137   2.610   7.261   3.509
  113PPPE   H5X48138   2.667   7.165   3.505
  113PPPE   H5Y48139   2.506   7.236   3.539
  113PPPE   C3648140   2.675   7.349   3.616
  113PPPE   H6X48141   2.618   7.444   3.627
  113PPPE   H6Y48142   2.776   7.377   3.579
  113PPPE   C3748143   2.687   7.286   3.755
  113PPPE   H7X48144   2.636   7.188   3.757
  113PPPE   H7Y48145   2.629   7.351   3.825
  113PPPE   C3848146   2.832   7.274   3.807
  113PPPE   H8X48147   2.905   7.314   3.733
  113PPPE   H8Y48148   2.856   7.167   3.821
  113PPPE   C3948149   2.853   7.346   3.941
  113PPPE   H9X48150   2.755   7.351   3.992
  113PPPE   H9Y48151   2.892   7.448   3.922
  113PPPE  C31048152   2.948   7.281   4.042
  113PPPE  H10X48153   3.048   7.267   3.995
  113PPPE  H10Y48154   2.904   7.182   4.065
  113PPPE  C31148155   2.963   7.361   4.172
  113PPPE  H11X48156   3.007   7.461   4.149
  113PPPE  H11Y48157   3.032   7.307   4.240
  113PPPE  C31248158   2.831   7.385   4.247
  113PPPE  H12X48159   2.783   7.288   4.269
  113PPPE  H12Y48160   2.762   7.441   4.179
  113PPPE  C31348161   2.844   7.466   4.377
  113PPPE  H13X48162   2.935   7.529   4.374
  113PPPE  H13Y48163   2.855   7.396   4.462
  113PPPE  C31448164   2.722   7.558   4.398
  113PPPE  H14X48165   2.636   7.517   4.341
  113PPPE  H14Y48166   2.746   7.658   4.358
  113PPPE  C31548167   2.674   7.574   4.542
  113PPPE  H15X48168   2.602   7.659   4.545
  113PPPE  H15Y48169   2.760   7.601   4.608
  113PPPE  C31648170   2.603   7.451   4.597
  113PPPE  H16X48171   2.526   7.415   4.525
  113PPPE  H16Y48172   2.676   7.368   4.612
  113PPPE  H16Z48173   2.555   7.473   4.694
  114PPPE     N48174   0.135   3.555   2.446
  114PPPE   HN148175   0.069   3.555   2.365
  114PPPE   HN248176   0.135   3.650   2.487
  114PPPE   HN348177   0.232   3.532   2.416
  114PPPE   C1248178   0.079   3.463   2.551
  114PPPE  H12A48179   0.142   3.475   2.642
  114PPPE  H12B48180   0.089   3.358   2.514
  114PPPE   C1148181  -0.069   3.497   2.580
  114PPPE  H11A48182  -0.101   3.449   2.675
  114PPPE  H11B48183  -0.131   3.449   2.501
  114PPPE     P48184  -0.025   3.741   2.676
  114PPPE   O1348185   0.085   3.795   2.592
  114PPPE   O1448186  -0.126   3.836   2.725
  114PPPE   O1148187   0.038   3.650   2.788
  114PPPE   O1248188  -0.098   3.637   2.580
  114PPPE    C148189  -0.033   3.598   2.901
  114PPPE    HA48190  -0.110   3.525   2.870
  114PPPE    HB48191  -0.085   3.679   2.957
  114PPPE    C248192   0.064   3.523   2.998
  114PPPE    HS48193   0.003   3.471   3.075
  114PPPE   O2148194   0.156   3.614   3.059
  114PPPE   C2148195   0.102   3.693   3.151
  114PPPE   O2248196  -0.013   3.687   3.190
  114PPPE   C2248197   0.204   3.797   3.194
  114PPPE   H2R48198   0.151   3.875   3.253
  114PPPE   H2S48199   0.244   3.844   3.102
  114PPPE    C348200   0.146   3.413   2.924
  114PPPE    HX48201   0.074   3.349   2.868
  114PPPE    HY48202   0.210   3.464   2.849
  114PPPE   O3148203   0.220   3.329   3.016
  114PPPE   C3148204   0.353   3.340   3.014
  114PPPE   O3248205   0.417   3.414   2.943
  114PPPE   C3248206   0.414   3.240   3.111
  114PPPE   H2X48207   0.516   3.216   3.072
  114PPPE   H2Y48208   0.354   3.147   3.110
  114PPPE   C2348209   0.320   3.737   3.276
  114PPPE   H3R48210   0.405   3.808   3.269
  114PPPE   H3S48211   0.355   3.640   3.233
  114PPPE   C2448212   0.285   3.720   3.424
  114PPPE   H4R48213   0.221   3.631   3.438
  114PPPE   H4S48214   0.228   3.808   3.459
  114PPPE   C2548215   0.411   3.709   3.512
  114PPPE   H5R48216   0.471   3.802   3.502
  114PPPE   H5S48217   0.473   3.624   3.477
  114PPPE   C2648218   0.376   3.690   3.660
  114PPPE   H6R48219   0.309   3.601   3.668
  114PPPE   H6S48220   0.319   3.777   3.698
  114PPPE   C2748221   0.500   3.665   3.748
  114PPPE   H7R48222   0.557   3.760   3.761
  114PPPE   H7S48223   0.566   3.593   3.696
  114PPPE   C2848224   0.466   3.605   3.886
  114PPPE   H8R48225   0.563   3.575   3.932
  114PPPE   H8S48226   0.409   3.511   3.870
  114PPPE   C2948227   0.388   3.696   3.978
  114PPPE   H9148228   0.312   3.758   3.929
  114PPPE  C21048229   0.402   3.706   4.111
  114PPPE  H10148230   0.337   3.776   4.167
  114PPPE  C21148231   0.499   3.629   4.197
  114PPPE  H11R48232   0.551   3.694   4.271
  114PPPE  H11S48233   0.582   3.588   4.136
  114PPPE  C21248234   0.438   3.513   4.276
  114PPPE  H12R48235   0.526   3.456   4.313
  114PPPE  H12S48236   0.381   3.448   4.207
  114PPPE  C21348237   0.348   3.544   4.396
  114PPPE  H13R48238   0.301   3.450   4.432
  114PPPE  H13S48239   0.266   3.610   4.359
  114PPPE  C21448240   0.415   3.613   4.516
  114PPPE  H14R48241   0.335   3.642   4.587
  114PPPE  H14S48242   0.463   3.705   4.478
  114PPPE  C21548243   0.519   3.536   4.598
  114PPPE  H15R48244   0.580   3.611   4.653
  114PPPE  H15S48245   0.588   3.480   4.533
  114PPPE  C21648246   0.457   3.445   4.705
  114PPPE  H16R48247   0.392   3.504   4.773
  114PPPE  H16S48248   0.395   3.365   4.660
  114PPPE  H16T48249   0.536   3.397   4.766
  114PPPE   C3348250   0.427   3.295   3.255
  114PPPE   H3X48251   0.474   3.396   3.256
  114PPPE   H3Y48252   0.494   3.227   3.312
  114PPPE   C3448253   0.293   3.299   3.330
  114PPPE   H4X48254   0.244   3.200   3.322
  114PPPE   H4Y48255   0.225   3.374   3.285
  114PPPE   C3548256   0.312   3.332   3.479
  114PPPE   H5X48257   0.351   3.435   3.491
  114PPPE   H5Y48258   0.390   3.263   3.520
  114PPPE   C3648259   0.184   3.315   3.562
  114PPPE   H6X48260   0.139   3.216   3.538
  114PPPE   H6Y48261   0.110   3.392   3.535
  114PPPE   C3748262   0.213   3.321   3.712
  114PPPE   H7X48263   0.238   3.425   3.741
  114PPPE   H7Y48264   0.302   3.259   3.736
  114PPPE   C3848265   0.097   3.275   3.800
  114PPPE   H8X48266   0.068   3.171   3.775
  114PPPE   H8Y48267   0.009   3.340   3.781
  114PPPE   C3948268   0.135   3.283   3.950
  114PPPE   H9X48269   0.228   3.342   3.959
  114PPPE   H9Y48270   0.155   3.182   3.990
  114PPPE  C31048271   0.027   3.352   4.035
  114PPPE  H10X48272  -0.064   3.289   4.036
  114PPPE  H10Y48273  -0.000   3.450   3.990
  114PPPE  C31148274   0.075   3.374   4.177
  114PPPE  H11X48275   0.156   3.450   4.179
  114PPPE  H11Y48276   0.118   3.279   4.216
  114PPPE  C31248277  -0.038   3.419   4.270
  114PPPE  H12X48278  -0.117   3.341   4.269
  114PPPE  H12Y48279  -0.083   3.514   4.233
  114PPPE  C31348280   0.014   3.437   4.412
  114PPPE  H13X48281   0.080   3.525   4.418
  114PPPE  H13Y48282   0.074   3.347   4.438
  114PPPE  C31448283  -0.097   3.453   4.516
  114PPPE  H14X48284  -0.163   3.364   4.512
  114PPPE  H14Y48285  -0.160   3.541   4.490
  114PPPE  C31548286  -0.043   3.470   4.658
  114PPPE  H15X48287  -0.129   3.461   4.727
  114PPPE  H15Y48288  -0.002   3.573   4.669
  114PPPE  C31648289   0.066   3.370   4.700
  114PPPE  H16X48290   0.162   3.393   4.649
  114PPPE  H16Y48291   0.083   3.372   4.809
  114PPPE  H16Z48292   0.036   3.266   4.671
  115PPPE     N48293   5.770   7.815   2.570
  115PPPE   HN148294   5.668   7.830   2.555
  115PPPE   HN248295   5.782   7.753   2.652
  115PPPE   HN348296   5.818   7.906   2.585
  115PPPE   C1248297   5.835   7.740   2.457
  115PPPE  H12A48298   5.827   7.801   2.365
  115PPPE  H12B48299   5.777   7.646   2.444
  115PPPE   C1148300   5.983   7.706   2.490
  115PPPE  H11A48301   6.044   7.797   2.471
  115PPPE  H11B48302   6.019   7.627   2.421
  115PPPE     P48303   5.933   7.538   2.685
  115PPPE   O1348304   5.789   7.571   2.688
  115PPPE   O1448305   5.970   7.423   2.599
  115PPPE   O1148306   5.987   7.526   2.831
  115PPPE   O1248307   6.004   7.667   2.627
  115PPPE    C148308   6.121   7.510   2.875
  115PPPE    HA48309   6.163   7.608   2.910
  115PPPE    HB48310   6.187   7.470   2.795
  115PPPE    C248311   6.124   7.412   2.997
  115PPPE    HS48312   6.075   7.320   2.960
  115PPPE   O2148313   6.051   7.471   3.106
  115PPPE   C2148314   6.000   7.384   3.193
  115PPPE   O2248315   6.009   7.263   3.184
  115PPPE   C2248316   5.922   7.458   3.304
  115PPPE   H2R48317   5.897   7.382   3.380
  115PPPE   H2S48318   5.827   7.494   3.257
  115PPPE    C348319   6.269   7.373   3.039
  115PPPE    HX48320   6.264   7.280   3.099
  115PPPE    HY48321   6.326   7.347   2.947
  115PPPE   O3148322   6.334   7.484   3.105
  115PPPE   C3148323   6.328   7.477   3.238
  115PPPE   O3248324   6.305   7.377   3.304
  115PPPE   C3248325   6.347   7.616   3.299
  115PPPE   H2X48326   6.253   7.672   3.282
  115PPPE   H2Y48327   6.429   7.668   3.245
  115PPPE   C2348328   5.996   7.577   3.370
  115PPPE   H3R48329   6.022   7.652   3.292
  115PPPE   H3S48330   6.090   7.541   3.417
  115PPPE   C2448331   5.911   7.646   3.478
  115PPPE   H4R48332   5.893   7.575   3.561
  115PPPE   H4S48333   5.812   7.671   3.434
  115PPPE   C2548334   5.973   7.775   3.535
  115PPPE   H5R48335   5.992   7.845   3.450
  115PPPE   H5S48336   6.069   7.753   3.584
  115PPPE   C2648337   5.879   7.845   3.634
  115PPPE   H6R48338   5.876   7.787   3.729
  115PPPE   H6S48339   5.776   7.843   3.591
  115PPPE   C2748340   5.912   7.992   3.664
  115PPPE   H7R48341   5.827   8.034   3.722
  115PPPE   H7S48342   5.918   8.048   3.568
  115PPPE   C2848343   6.041   8.014   3.747
  115PPPE   H8R48344   6.128   7.979   3.688
  115PPPE   H8S48345   6.036   7.949   3.837
  115PPPE   C2948346   6.058   8.160   3.785
  115PPPE   H9148347   6.087   8.227   3.701
  115PPPE  C21048348   6.040   8.212   3.907
  115PPPE  H10148349   6.057   8.319   3.924
  115PPPE  C21148350   6.000   8.131   4.028
  115PPPE  H11R48351   6.083   8.063   4.056
  115PPPE  H11S48352   5.912   8.067   4.005
  115PPPE  C21248353   5.966   8.215   4.153
  115PPPE  H12R48354   5.872   8.272   4.135
  115PPPE  H12S48355   6.047   8.286   4.176
  115PPPE  C21348356   5.947   8.122   4.274
  115PPPE  H13R48357   6.047   8.090   4.311
  115PPPE  H13S48358   5.893   8.031   4.238
  115PPPE  C21448359   5.865   8.178   4.391
  115PPPE  H14R48360   5.765   8.209   4.353
  115PPPE  H14S48361   5.915   8.268   4.433
  115PPPE  C21548362   5.847   8.072   4.500
  115PPPE  H15R48363   5.943   8.060   4.556
  115PPPE  H15S48364   5.825   7.974   4.452
  115PPPE  C21648365   5.734   8.103   4.598
  115PPPE  H16R48366   5.730   8.026   4.679
  115PPPE  H16S48367   5.750   8.202   4.646
  115PPPE  H16T48368   5.636   8.105   4.546
  115PPPE   C3348369   6.376   7.603   3.450
  115PPPE   H3X48370   6.471   7.548   3.465
  115PPPE   H3Y48371   6.296   7.543   3.499
  115PPPE   C3448372   6.385   7.738   3.521
  115PPPE   H4X48373   6.286   7.788   3.523
  115PPPE   H4Y48374   6.455   7.804   3.465
  115PPPE   C3548375   6.439   7.722   3.664
  115PPPE   H5X48376   6.462   7.822   3.707
  115PPPE   H5Y48377   6.537   7.670   3.656
  115PPPE   C3648378   6.349   7.646   3.762
  115PPPE   H6X48379   6.314   7.550   3.717
  115PPPE   H6Y48380   6.259   7.708   3.783
  115PPPE   C3748381   6.420   7.614   3.894
  115PPPE   H7X48382   6.475   7.704   3.929
  115PPPE   H7Y48383   6.496   7.534   3.877
  115PPPE   C3848384   6.325   7.571   4.009
  115PPPE   H8X48385   6.243   7.646   4.016
  115PPPE   H8Y48386   6.381   7.573   4.103
  115PPPE   C3948387   6.267   7.431   3.990
  115PPPE   H9X48388   6.350   7.357   3.990
  115PPPE   H9Y48389   6.216   7.424   3.891
  115PPPE  C31048390   6.166   7.393   4.098
  115PPPE  H10X48391   6.078   7.462   4.092
  115PPPE  H10Y48392   6.212   7.408   4.198
  115PPPE  C31148393   6.117   7.248   4.087
  115PPPE  H11X48394   6.203   7.180   4.108
  115PPPE  H11Y48395   6.086   7.230   3.981
  115PPPE  C31248396   6.000   7.211   4.179
  115PPPE  H12X48397   5.974   7.104   4.160
  115PPPE  H12Y48398   5.910   7.271   4.153
  115PPPE  C31348399   6.031   7.227   4.328
  115PPPE  H13X48400   6.141   7.221   4.342
  115PPPE  H13Y48401   5.986   7.143   4.386
  115PPPE  C31448402   5.979   7.360   4.385
  115PPPE  H14X48403   5.955   7.428   4.301
  115PPPE  H14Y48404   6.060   7.407   4.445
  115PPPE  C31548405   5.855   7.346   4.476
  115PPPE  H15X48406   5.889   7.307   4.573
  115PPPE  H15Y48407   5.786   7.270   4.432
  115PPPE  C31648408   5.779   7.477   4.495
  115PPPE  H16X48409   5.738   7.483   4.599
  115PPPE  H16Y48410   5.844   7.566   4.483
  115PPPE  H16Z48411   5.695   7.486   4.424
  116PPPE     N48412   5.098   0.019   2.600
  116PPPE   HN148413   5.133  -0.012   2.507
  116PPPE   HN248414   4.994   0.009   2.603
  116PPPE   HN348415   5.127   0.118   2.614
  116PPPE   C1248416   5.163  -0.064   2.707
  116PPPE  H12A48417   5.106  -0.158   2.717
  116PPPE  H12B48418   5.157  -0.007   2.802
  116PPPE   C1148419   5.311  -0.097   2.673
  116PPPE  H11A48420   5.312  -0.186   2.607
  116PPPE  H11B48421   5.363  -0.127   2.767
  116PPPE     P48422   5.414   0.147   2.672
  116PPPE   O1348423   5.528   0.206   2.599
  116PPPE   O1448424   5.286   0.222   2.670
  116PPPE   O1148425   5.456   0.108   2.819
  116PPPE   O1248426   5.382   0.007   2.605
  116PPPE    C148427   5.583   0.044   2.838
  116PPPE    HA48428   5.664   0.100   2.787
  116PPPE    HB48429   5.580  -0.060   2.797
  116PPPE    C248430   5.627   0.033   2.988
  116PPPE    HS48431   5.731  -0.005   2.984
  116PPPE   O2148432   5.542  -0.062   3.056
  116PPPE   C2148433   5.592  -0.098   3.174
  116PPPE   O2248434   5.705  -0.074   3.212
  116PPPE   C2248435   5.488  -0.179   3.252
  116PPPE   H2R48436   5.474  -0.276   3.200
  116PPPE   H2S48437   5.393  -0.122   3.252
  116PPPE    C348438   5.632   0.172   3.059
  116PPPE    HX48439   5.708   0.167   3.141
  116PPPE    HY48440   5.669   0.246   2.985
  116PPPE   O3148441   5.507   0.209   3.120
  116PPPE   C3148442   5.449   0.321   3.080
  116PPPE   O3248443   5.482   0.391   2.987
  116PPPE   C3248444   5.341   0.358   3.182
  116PPPE   H2X48445   5.284   0.445   3.143
  116PPPE   H2Y48446   5.394   0.389   3.274
  116PPPE   C2348447   5.534  -0.203   3.398
  116PPPE   H3R48448   5.550  -0.104   3.447
  116PPPE   H3S48449   5.632  -0.256   3.399
  116PPPE   C2448450   5.433  -0.283   3.480
  116PPPE   H4R48451   5.421  -0.384   3.436
  116PPPE   H4S48452   5.334  -0.232   3.476
  116PPPE   C2548453   5.473  -0.300   3.628
  116PPPE   H5R48454   5.567  -0.358   3.636
  116PPPE   H5S48455   5.393  -0.360   3.679
  116PPPE   C2648456   5.488  -0.167   3.703
  116PPPE   H6R48457   5.399  -0.104   3.679
  116PPPE   H6S48458   5.578  -0.111   3.667
  116PPPE   C2748459   5.495  -0.183   3.855
  116PPPE   H7R48460   5.595  -0.222   3.885
  116PPPE   H7S48461   5.421  -0.260   3.884
  116PPPE   C2848462   5.460  -0.054   3.933
  116PPPE   H8R48463   5.442  -0.083   4.039
  116PPPE   H8S48464   5.364  -0.016   3.893
  116PPPE   C2948465   5.566   0.053   3.929
  116PPPE   H9148466   5.669   0.015   3.926
  116PPPE  C21048467   5.545   0.186   3.931
  116PPPE  H10148468   5.633   0.252   3.929
  116PPPE  C21148469   5.413   0.260   3.938
  116PPPE  H11R48470   5.359   0.245   3.841
  116PPPE  H11S48471   5.434   0.368   3.944
  116PPPE  C21248472   5.316   0.226   4.052
  116PPPE  H12R48473   5.271   0.126   4.037
  116PPPE  H12S48474   5.232   0.300   4.050
  116PPPE  C21348475   5.381   0.230   4.191
  116PPPE  H13R48476   5.439   0.324   4.200
  116PPPE  H13S48477   5.451   0.145   4.202
  116PPPE  C21448478   5.281   0.228   4.308
  116PPPE  H14R48479   5.223   0.133   4.308
  116PPPE  H14S48480   5.209   0.311   4.297
  116PPPE  C21548481   5.354   0.243   4.443
  116PPPE  H15R48482   5.408   0.340   4.441
  116PPPE  H15S48483   5.430   0.163   4.452
  116PPPE  C21648484   5.263   0.241   4.565
  116PPPE  H16R48485   5.214   0.142   4.576
  116PPPE  H16S48486   5.322   0.261   4.658
  116PPPE  H16T48487   5.185   0.319   4.557
  116PPPE   C3348488   5.245   0.241   3.214
  116PPPE   H3X48489   5.301   0.147   3.229
  116PPPE   H3Y48490   5.178   0.226   3.125
  116PPPE   C3448491   5.160   0.264   3.339
  116PPPE   H4X48492   5.090   0.179   3.349
  116PPPE   H4Y48493   5.097   0.355   3.323
  116PPPE   C3548494   5.243   0.279   3.467
  116PPPE   H5X48495   5.276   0.385   3.476
  116PPPE   H5Y48496   5.335   0.217   3.458
  116PPPE   C3648497   5.169   0.237   3.594
  116PPPE   H6X48498   5.069   0.285   3.597
  116PPPE   H6Y48499   5.225   0.276   3.682
  116PPPE   C3748500   5.156   0.085   3.609
  116PPPE   H7X48501   5.256   0.040   3.597
  116PPPE   H7Y48502   5.091   0.046   3.528
  116PPPE   C3848503   5.098   0.041   3.745
  116PPPE   H8X48504   4.995   0.081   3.755
  116PPPE   H8Y48505   5.160   0.082   3.826
  116PPPE   C3948506   5.093  -0.112   3.755
  116PPPE   H9X48507   5.194  -0.155   3.738
  116PPPE   H9Y48508   5.027  -0.150   3.675
  116PPPE  C31048509   5.039  -0.164   3.891
  116PPPE  H10X48510   5.011  -0.271   3.878
  116PPPE  H10Y48511   4.948  -0.106   3.917
  116PPPE  C31148512   5.142  -0.155   4.003
  116PPPE  H11X48513   5.175  -0.049   4.013
  116PPPE  H11Y48514   5.230  -0.217   3.979
  116PPPE  C31248515   5.085  -0.198   4.138
  116PPPE  H12X48516   5.051  -0.304   4.134
  116PPPE  H12Y48517   4.997  -0.135   4.160
  116PPPE  C31348518   5.187  -0.182   4.252
  116PPPE  H13X48519   5.225  -0.078   4.253
  116PPPE  H13Y48520   5.274  -0.250   4.235
  116PPPE  C31448521   5.125  -0.212   4.389
  116PPPE  H14X48522   5.091  -0.318   4.392
  116PPPE  H14Y48523   5.035  -0.148   4.401
  116PPPE  C31548524   5.217  -0.186   4.509
  116PPPE  H15X48525   5.253  -0.081   4.505
  116PPPE  H15Y48526   5.306  -0.253   4.500
  116PPPE  C31648527   5.147  -0.212   4.642
  116PPPE  H16X48528   5.217  -0.198   4.727
  116PPPE  H16Y48529   5.062  -0.142   4.655
  116PPPE  H16Z48530   5.107  -0.315   4.645
  117PPPE     N48531  -0.017   4.718   2.733
  117PPPE   HN148532  -0.061   4.744   2.824
  117PPPE   HN248533  -0.072   4.751   2.652
  117PPPE   HN348534  -0.008   4.615   2.729
  117PPPE   C1248535   0.126   4.764   2.724
  117PPPE  H12A48536   0.136   4.862   2.777
  117PPPE  H12B48537   0.149   4.778   2.616
  117PPPE   C1148538   0.216   4.655   2.784
  117PPPE  H11A48539   0.214   4.665   2.895
  117PPPE  H11B48540   0.322   4.670   2.754
  117PPPE     P48541   0.192   4.461   2.608
  117PPPE   O1348542   0.111   4.539   2.511
  117PPPE   O1448543   0.336   4.453   2.575
  117PPPE   O1148544   0.127   4.318   2.619
  117PPPE   O1248545   0.169   4.524   2.751
  117PPPE    C148546  -0.016   4.304   2.611
  117PPPE    HA48547  -0.039   4.230   2.531
  117PPPE    HB48548  -0.070   4.397   2.583
  117PPPE    C248549  -0.083   4.251   2.741
  117PPPE    HS48550  -0.184   4.220   2.708
  117PPPE   O2148551  -0.090   4.360   2.837
  117PPPE   C2148552  -0.185   4.343   2.927
  117PPPE   O2248553  -0.276   4.260   2.919
  117PPPE   C2248554  -0.176   4.450   3.036
  117PPPE   H2R48555  -0.230   4.407   3.124
  117PPPE   H2S48556  -0.233   4.538   3.002
  117PPPE    C348557  -0.013   4.124   2.801
  117PPPE    HX48558  -0.087   4.066   2.860
  117PPPE    HY48559   0.014   4.058   2.716
  117PPPE   O3148560   0.108   4.154   2.875
  117PPPE   C3148561   0.091   4.161   3.007
  117PPPE   O3248562  -0.015   4.142   3.065
  117PPPE   C3248563   0.220   4.206   3.075
  117PPPE   H2X48564   0.242   4.309   3.040
  117PPPE   H2Y48565   0.303   4.138   3.044
  117PPPE   C2348566  -0.037   4.494   3.087
  117PPPE   H3R48567   0.027   4.534   3.006
  117PPPE   H3S48568   0.014   4.406   3.131
  117PPPE   C2448569  -0.056   4.598   3.200
  117PPPE   H4R48570  -0.138   4.561   3.264
  117PPPE   H4S48571  -0.089   4.695   3.157
  117PPPE   C2548572   0.067   4.619   3.288
  117PPPE   H5R48573   0.146   4.671   3.230
  117PPPE   H5S48574   0.108   4.520   3.320
  117PPPE   C2648575   0.037   4.700   3.417
  117PPPE   H6R48576  -0.018   4.793   3.391
  117PPPE   H6S48577   0.133   4.730   3.462
  117PPPE   C2748578  -0.044   4.620   3.521
  117PPPE   H7R48579   0.011   4.528   3.547
  117PPPE   H7S48580  -0.141   4.589   3.476
  117PPPE   C2848581  -0.076   4.700   3.649
  117PPPE   H8R48582  -0.146   4.639   3.709
  117PPPE   H8S48583  -0.130   4.793   3.620
  117PPPE   C2948584   0.045   4.732   3.733
  117PPPE   H9148585   0.139   4.684   3.702
  117PPPE  C21048586   0.045   4.811   3.844
  117PPPE  H10148587   0.138   4.824   3.899
  117PPPE  C21148588  -0.075   4.882   3.901
  117PPPE  H11R48589  -0.153   4.898   3.825
  117PPPE  H11S48590  -0.047   4.982   3.939
  117PPPE  C21248591  -0.140   4.802   4.016
  117PPPE  H12R48592  -0.157   4.697   3.981
  117PPPE  H12S48593  -0.240   4.845   4.038
  117PPPE  C21348594  -0.060   4.798   4.148
  117PPPE  H13R48595   0.049   4.804   4.127
  117PPPE  H13S48596  -0.081   4.701   4.196
  117PPPE  C21448597  -0.101   4.908   4.247
  117PPPE  H14R48598  -0.211   4.907   4.259
  117PPPE  H14S48599  -0.072   5.008   4.207
  117PPPE  C21548600  -0.037   4.887   4.385
  117PPPE  H15R48601   0.073   4.899   4.377
  117PPPE  H15S48602  -0.057   4.782   4.417
  117PPPE  C21648603  -0.090   4.982   4.492
  117PPPE  H16R48604  -0.069   5.087   4.466
  117PPPE  H16S48605  -0.200   4.970   4.504
  117PPPE  H16T48606  -0.043   4.960   4.590
  117PPPE   C3348607   0.206   4.205   3.229
  117PPPE   H3X48608   0.221   4.102   3.268
  117PPPE   H3Y48609   0.104   4.237   3.260
  117PPPE   C3448610   0.303   4.300   3.300
  117PPPE   H4X48611   0.286   4.405   3.266
  117PPPE   H4Y48612   0.408   4.273   3.274
  117PPPE   C3548613   0.286   4.292   3.453
  117PPPE   H5X48614   0.310   4.188   3.485
  117PPPE   H5Y48615   0.180   4.312   3.479
  117PPPE   C3648616   0.376   4.390   3.530
  117PPPE   H6X48617   0.341   4.494   3.512
  117PPPE   H6Y48618   0.479   4.382   3.490
  117PPPE   C3748619   0.379   4.361   3.681
  117PPPE   H7X48620   0.450   4.432   3.729
  117PPPE   H7Y48621   0.418   4.259   3.697
  117PPPE   C3848622   0.243   4.372   3.750
  117PPPE   H8X48623   0.176   4.291   3.714
  117PPPE   H8Y48624   0.196   4.469   3.726
  117PPPE   C3948625   0.255   4.361   3.903
  117PPPE   H9X48626   0.318   4.445   3.940
  117PPPE   H9Y48627   0.307   4.266   3.929
  117PPPE  C31048628   0.118   4.363   3.974
  117PPPE  H10X48629   0.065   4.268   3.951
  117PPPE  H10Y48630   0.057   4.447   3.932
  117PPPE  C31148631   0.128   4.381   4.127
  117PPPE  H11X48632   0.194   4.304   4.171
  117PPPE  H11Y48633   0.026   4.365   4.168
  117PPPE  C31248634   0.174   4.522   4.168
  117PPPE  H12X48635   0.123   4.595   4.102
  117PPPE  H12Y48636   0.284   4.533   4.151
  117PPPE  C31348637   0.140   4.557   4.314
  117PPPE  H13X48638   0.034   4.530   4.332
  117PPPE  H13Y48639   0.149   4.667   4.328
  117PPPE  C31448640   0.230   4.488   4.418
  117PPPE  H14X48641   0.310   4.557   4.452
  117PPPE  H14Y48642   0.280   4.401   4.370
  117PPPE  C31548643   0.153   4.434   4.539
  117PPPE  H15X48644   0.224   4.379   4.605
  117PPPE  H15Y48645   0.080   4.360   4.503
  117PPPE  C31648646   0.080   4.540   4.622
  117PPPE  H16X48647   0.026   4.492   4.707
  117PPPE  H16Y48648   0.153   4.613   4.665
  117PPPE  H16Z48649   0.006   4.595   4.561
  118PPPE     N48650   7.495   6.114   2.570
  118PPPE   HN148651   7.567   6.183   2.599
  118PPPE   HN248652   7.410   6.167   2.539
  118PPPE   HN348653   7.469   6.062   2.657
  118PPPE   C1248654   7.548   6.022   2.465
  118PPPE  H12A48655   7.597   6.084   2.386
  118PPPE  H12B48656   7.462   5.966   2.421
  118PPPE   C1148657   7.650   5.927   2.527
  118PPPE  H11A48658   7.681   5.855   2.449
  118PPPE  H11B48659   7.603   5.871   2.610
  118PPPE     P48660   7.881   5.925   2.640
  118PPPE   O1348661   7.895   5.798   2.565
  118PPPE   O1448662   7.998   6.015   2.639
  118PPPE   O1148663   7.828   5.899   2.787
  118PPPE   O1248664   7.761   6.004   2.574
  118PPPE    C148665   7.772   6.004   2.868
  118PPPE    HA48666   7.714   5.960   2.951
  118PPPE    HB48667   7.702   6.067   2.810
  118PPPE    C248668   7.881   6.097   2.931
  118PPPE    HS48669   7.963   6.106   2.856
  118PPPE   O2148670   7.930   6.038   3.054
  118PPPE   C2148671   8.044   6.095   3.095
  118PPPE   O2248672   8.112   6.171   3.030
  118PPPE   C2248673   8.069   6.050   3.240
  118PPPE   H2R48674   8.094   5.942   3.237
  118PPPE   H2S48675   7.976   6.063   3.299
  118PPPE    C348676   7.826   6.241   2.957
  118PPPE    HX48677   7.914   6.309   2.969
  118PPPE    HY48678   7.774   6.274   2.865
  118PPPE   O3148679   7.733   6.245   3.066
  118PPPE   C3148680   7.779   6.303   3.177
  118PPPE   O3248681   7.881   6.369   3.184
  118PPPE   C3248682   7.691   6.268   3.296
  118PPPE   H2X48683   7.593   6.320   3.287
  118PPPE   H2Y48684   7.743   6.306   3.387
  118PPPE   C2348685   8.183   6.127   3.308
  118PPPE   H3R48686   8.149   6.229   3.339
  118PPPE   H3S48687   8.269   6.139   3.238
  118PPPE   C2448688   8.237   6.052   3.431
  118PPPE   H4R48689   8.324   6.108   3.470
  118PPPE   H4S48690   8.274   5.953   3.398
  118PPPE   C2548691   8.137   6.030   3.546
  118PPPE   H5R48692   8.175   5.947   3.609
  118PPPE   H5S48693   8.037   6.001   3.509
  118PPPE   C2648694   8.126   6.154   3.636
  118PPPE   H6R48695   8.095   6.241   3.575
  118PPPE   H6S48696   8.227   6.176   3.677
  118PPPE   C2748697   8.029   6.142   3.755
  118PPPE   H7R48698   7.927   6.130   3.712
  118PPPE   H7S48699   8.030   6.236   3.812
  118PPPE   C2848700   8.055   6.024   3.851
  118PPPE   H8R48701   8.044   5.928   3.797
  118PPPE   H8S48702   7.975   6.026   3.929
  118PPPE   C2948703   8.190   6.031   3.917
  118PPPE   H9148704   8.267   5.968   3.872
  118PPPE  C21048705   8.222   6.103   4.026
  118PPPE  H10148706   8.324   6.094   4.065
  118PPPE  C21148707   8.131   6.193   4.108
  118PPPE  H11R48708   8.025   6.184   4.076
  118PPPE  H11S48709   8.161   6.299   4.095
  118PPPE  C21248710   8.142   6.156   4.256
  118PPPE  H12R48711   8.245   6.174   4.293
  118PPPE  H12S48712   8.121   6.048   4.268
  118PPPE  C21348713   8.045   6.233   4.347
  118PPPE  H13R48714   7.941   6.227   4.307
  118PPPE  H13S48715   8.074   6.340   4.349
  118PPPE  C21448716   8.046   6.177   4.490
  118PPPE  H14R48717   8.152   6.168   4.523
  118PPPE  H14S48718   8.004   6.074   4.491
  118PPPE  C21548719   7.970   6.262   4.594
  118PPPE  H15R48720   7.987   6.370   4.575
  118PPPE  H15S48721   8.013   6.239   4.693
  118PPPE  C21648722   7.821   6.231   4.601
  118PPPE  H16R48723   7.804   6.124   4.628
  118PPPE  H16S48724   7.773   6.294   4.679
  118PPPE  H16T48725   7.771   6.250   4.502
  118PPPE   C3348726   7.675   6.116   3.302
  118PPPE   H3X48727   7.771   6.065   3.283
  118PPPE   H3Y48728   7.605   6.083   3.222
  118PPPE   C3448729   7.623   6.064   3.436
  118PPPE   H4X48730   7.619   5.954   3.424
  118PPPE   H4Y48731   7.520   6.102   3.453
  118PPPE   C3548732   7.711   6.091   3.561
  118PPPE   H5X48733   7.809   6.133   3.530
  118PPPE   H5Y48734   7.731   5.992   3.608
  118PPPE   C3648735   7.642   6.179   3.665
  118PPPE   H6X48736   7.532   6.164   3.660
  118PPPE   H6Y48737   7.662   6.286   3.644
  118PPPE   C3748738   7.683   6.146   3.811
  118PPPE   H7X48739   7.740   6.231   3.853
  118PPPE   H7Y48740   7.750   6.057   3.811
  118PPPE   C3848741   7.563   6.114   3.901
  118PPPE   H8X48742   7.512   6.023   3.865
  118PPPE   H8Y48743   7.491   6.198   3.894
  118PPPE   C3948744   7.601   6.096   4.049
  118PPPE   H9X48745   7.506   6.081   4.106
  118PPPE   H9Y48746   7.649   6.188   4.087
  118PPPE  C31048747   7.691   5.975   4.079
  118PPPE  H10X48748   7.783   5.978   4.018
  118PPPE  H10Y48749   7.636   5.882   4.051
  118PPPE  C31148750   7.731   5.966   4.228
  118PPPE  H11X48751   7.644   5.993   4.292
  118PPPE  H11Y48752   7.812   6.040   4.249
  118PPPE  C31248753   7.778   5.825   4.266
  118PPPE  H12X48754   7.857   5.794   4.195
  118PPPE  H12Y48755   7.691   5.756   4.254
  118PPPE  C31348756   7.831   5.811   4.410
  118PPPE  H13X48757   7.797   5.714   4.452
  118PPPE  H13Y48758   7.791   5.892   4.473
  118PPPE  C31448759   7.984   5.810   4.414
  118PPPE  H14X48760   8.021   5.903   4.365
  118PPPE  H14Y48761   8.024   5.724   4.356
  118PPPE  C31548762   8.039   5.805   4.557
  118PPPE  H15X48763   8.012   5.707   4.602
  118PPPE  H15Y48764   7.990   5.884   4.617
  118PPPE  C31648765   8.190   5.823   4.564
  118PPPE  H16X48766   8.241   5.745   4.504
  118PPPE  H16Y48767   8.220   5.923   4.525
  118PPPE  H16Z48768   8.225   5.815   4.669
  119PPPE     N48769   6.346   0.348   2.457
  119PPPE   HN148770   6.373   0.414   2.380
  119PPPE   HN248771   6.334   0.408   2.541
  119PPPE   HN348772   6.421   0.279   2.474
  119PPPE   C1248773   6.213   0.284   2.431
  119PPPE  H12A48774   6.223   0.175   2.453
  119PPPE  H12B48775   6.186   0.299   2.325
  119PPPE   C1148776   6.106   0.344   2.524
  119PPPE  H11A48777   6.011   0.289   2.511
  119PPPE  H11B48778   6.085   0.449   2.494
  119PPPE     P48779   6.197   0.460   2.740
  119PPPE   O1348780   6.235   0.421   2.877
  119PPPE   O1448781   6.300   0.521   2.653
  119PPPE   O1148782   6.063   0.546   2.739
  119PPPE   O1248783   6.148   0.332   2.660
  119PPPE    C148784   5.946   0.491   2.800
  119PPPE    HA48785   5.962   0.394   2.852
  119PPPE    HB48786   5.870   0.472   2.721
  119PPPE    C248787   5.884   0.587   2.905
  119PPPE    HS48788   5.866   0.686   2.856
  119PPPE   O2148789   5.970   0.600   3.019
  119PPPE   C2148790   6.062   0.694   3.011
  119PPPE   O2248791   6.080   0.770   2.917
  119PPPE   C2248792   6.124   0.713   3.149
  119PPPE   H2R48793   6.041   0.747   3.214
  119PPPE   H2S48794   6.201   0.793   3.144
  119PPPE    C348795   5.748   0.533   2.954
  119PPPE    HX48796   5.681   0.519   2.866
  119PPPE    HY48797   5.767   0.432   2.995
  119PPPE   O3148798   5.683   0.624   3.046
  119PPPE   C3148799   5.673   0.577   3.172
  119PPPE   O3248800   5.729   0.479   3.215
  119PPPE   C3248801   5.568   0.660   3.247
  119PPPE   H2X48802   5.473   0.648   3.190
  119PPPE   H2Y48803   5.597   0.767   3.245
  119PPPE   C2348804   6.183   0.585   3.214
  119PPPE   H3R48805   6.289   0.574   3.184
  119PPPE   H3S48806   6.128   0.495   3.181
  119PPPE   C2448807   6.169   0.593   3.367
  119PPPE   H4R48808   6.061   0.593   3.393
  119PPPE   H4S48809   6.212   0.690   3.403
  119PPPE   C2548810   6.238   0.478   3.441
  119PPPE   H5R48811   6.348   0.490   3.431
  119PPPE   H5S48812   6.210   0.382   3.393
  119PPPE   C2648813   6.202   0.472   3.590
  119PPPE   H6R48814   6.266   0.394   3.637
  119PPPE   H6S48815   6.097   0.440   3.602
  119PPPE   C2748816   6.220   0.606   3.663
  119PPPE   H7R48817   6.144   0.678   3.627
  119PPPE   H7S48818   6.319   0.649   3.637
  119PPPE   C2848819   6.206   0.599   3.816
  119PPPE   H8R48820   6.098   0.581   3.837
  119PPPE   H8S48821   6.231   0.699   3.858
  119PPPE   C2948822   6.289   0.496   3.891
  119PPPE   H9148823   6.383   0.465   3.841
  119PPPE  C21048824   6.256   0.445   4.010
  119PPPE  H10148825   6.321   0.371   4.058
  119PPPE  C21148826   6.132   0.484   4.087
  119PPPE  H11R48827   6.053   0.407   4.075
  119PPPE  H11S48828   6.089   0.579   4.050
  119PPPE  C21248829   6.154   0.504   4.240
  119PPPE  H12R48830   6.075   0.573   4.274
  119PPPE  H12S48831   6.252   0.553   4.259
  119PPPE  C21348832   6.142   0.373   4.319
  119PPPE  H13R48833   6.221   0.301   4.287
  119PPPE  H13S48834   6.043   0.328   4.296
  119PPPE  C21448835   6.150   0.392   4.472
  119PPPE  H14R48836   6.252   0.422   4.502
  119PPPE  H14S48837   6.127   0.295   4.520
  119PPPE  C21548838   6.050   0.497   4.523
  119PPPE  H15R48839   5.954   0.481   4.470
  119PPPE  H15S48840   6.087   0.599   4.497
  119PPPE  C21648841   6.023   0.493   4.674
  119PPPE  H16R48842   5.976   0.396   4.701
  119PPPE  H16S48843   6.118   0.505   4.731
  119PPPE  H16T48844   5.954   0.574   4.704
  119PPPE   C3348845   5.545   0.611   3.391
  119PPPE   H3X48846   5.554   0.501   3.403
  119PPPE   H3Y48847   5.439   0.636   3.417
  119PPPE   C3448848   5.635   0.681   3.495
  119PPPE   H4X48849   5.640   0.789   3.469
  119PPPE   H4Y48850   5.739   0.642   3.488
  119PPPE   C3548851   5.580   0.669   3.637
  119PPPE   H5X48852   5.469   0.660   3.634
  119PPPE   H5Y48853   5.601   0.763   3.693
  119PPPE   C3648854   5.635   0.550   3.717
  119PPPE   H6X48855   5.625   0.457   3.656
  119PPPE   H6Y48856   5.573   0.536   3.808
  119PPPE   C3748857   5.781   0.565   3.762
  119PPPE   H7X48858   5.847   0.560   3.672
  119PPPE   H7Y48859   5.808   0.478   3.826
  119PPPE   C3848860   5.814   0.696   3.837
  119PPPE   H8X48861   5.805   0.779   3.763
  119PPPE   H8Y48862   5.920   0.693   3.870
  119PPPE   C3948863   5.728   0.733   3.958
  119PPPE   H9X48864   5.624   0.694   3.950
  119PPPE   H9Y48865   5.720   0.844   3.962
  119PPPE  C31048866   5.790   0.692   4.094
  119PPPE  H10X48867   5.735   0.742   4.175
  119PPPE  H10Y48868   5.895   0.730   4.097
  119PPPE  C31148869   5.791   0.541   4.120
  119PPPE  H11X48870   5.859   0.520   4.205
  119PPPE  H11Y48871   5.834   0.488   4.031
  119PPPE  C31248872   5.653   0.483   4.153
  119PPPE  H12X48873   5.653   0.373   4.134
  119PPPE  H12Y48874   5.577   0.528   4.084
  119PPPE  C31348875   5.612   0.507   4.299
  119PPPE  H13X48876   5.502   0.498   4.308
  119PPPE  H13Y48877   5.639   0.612   4.325
  119PPPE  C31448878   5.679   0.407   4.394
  119PPPE  H14X48879   5.788   0.402   4.370
  119PPPE  H14Y48880   5.638   0.306   4.375
  119PPPE  C31548881   5.665   0.440   4.543
  119PPPE  H15X48882   5.730   0.369   4.601
  119PPPE  H15Y48883   5.561   0.420   4.576
  119PPPE  C31648884   5.703   0.583   4.582
  119PPPE  H16X48885   5.627   0.656   4.545
  119PPPE  H16Y48886   5.709   0.593   4.693
  119PPPE  H16Z48887   5.801   0.612   4.537
  120PPPE     N48888   7.574   2.009   2.495
  120PPPE   HN148889   7.540   2.018   2.397
  120PPPE   HN248890   7.565   1.909   2.520
  120PPPE   HN348891   7.515   2.066   2.559
  120PPPE   C1248892   7.720   2.044   2.506
  120PPPE  H12A48893   7.736   2.148   2.471
  120PPPE  H12B48894   7.775   1.975   2.438
  120PPPE   C1148895   7.770   2.025   2.650
  120PPPE  H11A48896   7.710   1.949   2.705
  120PPPE  H11B48897   7.759   2.120   2.706
  120PPPE     P48898   7.957   1.843   2.667
  120PPPE   O1348899   7.889   1.759   2.565
  120PPPE   O1448900   8.106   1.846   2.658
  120PPPE   O1148901   7.906   1.808   2.812
  120PPPE   O1248902   7.909   1.991   2.646
  120PPPE    C148903   8.000   1.809   2.920
  120PPPE    HA48904   8.052   1.907   2.927
  120PPPE    HB48905   8.076   1.730   2.903
  120PPPE    C248906   7.940   1.781   3.063
  120PPPE    HS48907   7.871   1.694   3.054
  120PPPE   O2148908   7.870   1.898   3.115
  120PPPE   C2148909   7.784   1.869   3.214
  120PPPE   O2248910   7.760   1.757   3.254
  120PPPE   C2248911   7.710   1.993   3.264
  120PPPE   H2R48912   7.647   1.960   3.349
  120PPPE   H2S48913   7.643   2.027   3.182
  120PPPE    C348914   8.061   1.739   3.153
  120PPPE    HX48915   8.095   1.637   3.122
  120PPPE    HY48916   8.145   1.807   3.127
  120PPPE   O3148917   8.042   1.751   3.296
  120PPPE   C3148918   8.013   1.638   3.359
  120PPPE   O3248919   7.988   1.531   3.306
  120PPPE   C3248920   8.035   1.658   3.509
  120PPPE   H2X48921   8.077   1.759   3.528
  120PPPE   H2Y48922   8.111   1.582   3.538
  120PPPE   C2348923   7.798   2.111   3.311
  120PPPE   H3R48924   7.733   2.198   3.335
  120PPPE   H3S48925   7.862   2.142   3.224
  120PPPE   C2448926   7.889   2.084   3.431
  120PPPE   H4R48927   7.970   2.160   3.426
  120PPPE   H4S48928   7.937   1.984   3.424
  120PPPE   C2548929   7.828   2.102   3.571
  120PPPE   H5R48930   7.760   2.018   3.595
  120PPPE   H5S48931   7.770   2.197   3.577
  120PPPE   C2648932   7.942   2.109   3.674
  120PPPE   H6R48933   8.009   2.194   3.648
  120PPPE   H6S48934   7.999   2.014   3.667
  120PPPE   C2748935   7.905   2.127   3.821
  120PPPE   H7R48936   7.822   2.057   3.845
  120PPPE   H7S48937   7.870   2.230   3.841
  120PPPE   C2848938   8.022   2.091   3.915
  120PPPE   H8R48939   8.097   2.173   3.914
  120PPPE   H8S48940   8.073   2.001   3.877
  120PPPE   C2948941   7.972   2.068   4.056
  120PPPE   H9148942   7.939   2.160   4.108
  120PPPE  C21048943   7.962   1.951   4.120
  120PPPE  H10148944   7.929   1.953   4.226
  120PPPE  C21148945   7.997   1.814   4.069
  120PPPE  H11R48946   8.062   1.819   3.978
  120PPPE  H11S48947   7.904   1.762   4.040
  120PPPE  C21248948   8.067   1.723   4.171
  120PPPE  H12R48949   8.168   1.765   4.191
  120PPPE  H12S48950   8.080   1.623   4.123
  120PPPE  C21348951   7.994   1.702   4.306
  120PPPE  H13R48952   8.000   1.797   4.362
  120PPPE  H13S48953   8.049   1.626   4.365
  120PPPE  C21448954   7.847   1.659   4.294
  120PPPE  H14R48955   7.790   1.734   4.234
  120PPPE  H14S48956   7.805   1.662   4.398
  120PPPE  C21548957   7.823   1.518   4.237
  120PPPE  H15R48958   7.921   1.474   4.209
  120PPPE  H15S48959   7.763   1.526   4.143
  120PPPE  C21648960   7.751   1.423   4.333
  120PPPE  H16R48961   7.763   1.317   4.302
  120PPPE  H16S48962   7.792   1.434   4.436
  120PPPE  H16T48963   7.642   1.443   4.339
  120PPPE   C3348964   7.909   1.635   3.595
  120PPPE   H3X48965   7.862   1.538   3.568
  120PPPE   H3Y48966   7.836   1.716   3.576
  120PPPE   C3448967   7.945   1.631   3.745
  120PPPE   H4X48968   7.981   1.731   3.776
  120PPPE   H4Y48969   8.028   1.560   3.760
  120PPPE   C3548970   7.828   1.588   3.834
  120PPPE   H5X48971   7.861   1.587   3.940
  120PPPE   H5Y48972   7.801   1.484   3.808
  120PPPE   C3648973   7.701   1.674   3.819
  120PPPE   H6X48974   7.622   1.633   3.886
  120PPPE   H6Y48975   7.665   1.664   3.715
  120PPPE   C3748976   7.714   1.825   3.847
  120PPPE   H7X48977   7.798   1.865   3.787
  120PPPE   H7Y48978   7.736   1.841   3.955
  120PPPE   C3848979   7.584   1.898   3.812
  120PPPE   H8X48980   7.505   1.841   3.865
  120PPPE   H8Y48981   7.565   1.888   3.703
  120PPPE   C3948982   7.567   2.047   3.853
  120PPPE   H9X48983   7.464   2.078   3.827
  120PPPE   H9Y48984   7.634   2.112   3.792
  120PPPE  C31048985   7.585   2.076   4.002
  120PPPE  H10X48986   7.680   2.131   4.021
  120PPPE  H10Y48987   7.594   1.979   4.056
  120PPPE  C31148988   7.468   2.154   4.065
  120PPPE  H11X48989   7.374   2.105   4.032
  120PPPE  H11Y48990   7.465   2.259   4.028
  120PPPE  C31248991   7.474   2.152   4.219
  120PPPE  H12X48992   7.535   2.238   4.254
  120PPPE  H12Y48993   7.531   2.060   4.243
  120PPPE  C31348994   7.341   2.143   4.296
  120PPPE  H13X48995   7.260   2.120   4.224
  120PPPE  H13Y48996   7.322   2.242   4.344
  120PPPE  C31448997   7.335   2.033   4.405
  120PPPE  H14X48998   7.438   2.004   4.436
  120PPPE  H14Y48999   7.289   1.943   4.358
  120PPPE  C31549000   7.255   2.062   4.531
  120PPPE  H15X49001   7.185   1.977   4.546
  120PPPE  H15Y49002   7.193   2.153   4.520
  120PPPE  C31649003   7.340   2.073   4.657
  120PPPE  H16X49004   7.384   2.175   4.667
  120PPPE  H16Y49005   7.278   2.055   4.748
  120PPPE  H16Z49006   7.423   1.999   4.657
  121PPPE     N49007   0.320   2.173   2.470
  121PPPE   HN149008   0.380   2.258   2.472
  121PPPE   HN249009   0.364   2.106   2.404
  121PPPE   HN349010   0.225   2.202   2.438
  121PPPE   C1249011   0.316   2.124   2.612
  121PPPE  H12A49012   0.240   2.043   2.621
  121PPPE  H12B49013   0.284   2.210   2.674
  121PPPE   C1149014   0.453   2.072   2.664
  121PPPE  H11A49015   0.466   1.967   2.631
  121PPPE  H11B49016   0.451   2.071   2.776
  121PPPE     P49017   0.578   2.303   2.647
  121PPPE   O1349018   0.720   2.340   2.655
  121PPPE   O1449019   0.497   2.364   2.539
  121PPPE   O1149020   0.503   2.317   2.785
  121PPPE   O1249021   0.566   2.147   2.618
  121PPPE    C149022   0.408   2.423   2.802
  121PPPE    HA49023   0.330   2.421   2.722
  121PPPE    HB49024   0.457   2.522   2.791
  121PPPE    C249025   0.332   2.427   2.940
  121PPPE    HS49026   0.356   2.526   2.984
  121PPPE   O2149027   0.379   2.321   3.028
  121PPPE   C2149028   0.356   2.356   3.157
  121PPPE   O2249029   0.277   2.442   3.193
  121PPPE   C2249030   0.444   2.275   3.253
  121PPPE   H2R49031   0.540   2.255   3.202
  121PPPE   H2S49032   0.393   2.179   3.276
  121PPPE    C349033   0.178   2.420   2.914
  121PPPE    HX49034   0.122   2.415   3.010
  121PPPE    HY49035   0.150   2.518   2.870
  121PPPE   O3149036   0.142   2.316   2.821
  121PPPE   C3149037   0.044   2.232   2.854
  121PPPE   O3249038  -0.054   2.213   2.783
  121PPPE   C3249039   0.085   2.140   2.969
  121PPPE   H2X49040   0.182   2.171   3.013
  121PPPE   H2Y49041   0.099   2.040   2.924
  121PPPE   C2349042   0.471   2.354   3.384
  121PPPE   H3R49043   0.377   2.370   3.443
  121PPPE   H3S49044   0.508   2.455   3.358
  121PPPE   C2449045   0.576   2.289   3.476
  121PPPE   H4R49046   0.661   2.257   3.412
  121PPPE   H4S49047   0.534   2.199   3.525
  121PPPE   C2549048   0.631   2.387   3.580
  121PPPE   H5R49049   0.670   2.476   3.525
  121PPPE   H5S49050   0.717   2.342   3.634
  121PPPE   C2649051   0.530   2.436   3.686
  121PPPE   H6R49052   0.439   2.477   3.638
  121PPPE   H6S49053   0.578   2.519   3.743
  121PPPE   C2749054   0.491   2.326   3.786
  121PPPE   H7R49055   0.582   2.281   3.832
  121PPPE   H7S49056   0.439   2.245   3.730
  121PPPE   C2849057   0.396   2.374   3.898
  121PPPE   H8R49058   0.348   2.285   3.944
  121PPPE   H8S49059   0.314   2.432   3.851
  121PPPE   C2949060   0.466   2.458   4.002
  121PPPE   H9149061   0.508   2.552   3.964
  121PPPE  C21049062   0.488   2.427   4.129
  121PPPE  H10149063   0.538   2.501   4.194
  121PPPE  C21149064   0.450   2.299   4.198
  121PPPE  H11R49065   0.533   2.272   4.268
  121PPPE  H11S49066   0.447   2.216   4.124
  121PPPE  C21249067   0.318   2.297   4.280
  121PPPE  H12R49068   0.302   2.396   4.326
  121PPPE  H12S49069   0.331   2.224   4.362
  121PPPE  C21349070   0.197   2.253   4.195
  121PPPE  H13R49071   0.232   2.170   4.130
  121PPPE  H13S49072   0.167   2.334   4.125
  121PPPE  C21449073   0.074   2.199   4.271
  121PPPE  H14R49074   0.099   2.102   4.320
  121PPPE  H14S49075  -0.002   2.176   4.193
  121PPPE  C21549076   0.005   2.291   4.372
  121PPPE  H15R49077  -0.029   2.384   4.321
  121PPPE  H15S49078   0.079   2.319   4.451
  121PPPE  C21649079  -0.117   2.235   4.443
  121PPPE  H16R49080  -0.199   2.218   4.370
  121PPPE  H16S49081  -0.091   2.139   4.495
  121PPPE  H16T49082  -0.153   2.306   4.520
  121PPPE   C3349083  -0.023   2.127   3.079
  121PPPE   H3X49084  -0.028   2.022   3.115
  121PPPE   H3Y49085  -0.124   2.150   3.039
  121PPPE   C3449086   0.006   2.213   3.202
  121PPPE   H4X49087  -0.091   2.247   3.245
  121PPPE   H4Y49088   0.063   2.305   3.175
  121PPPE   C3549089   0.081   2.138   3.313
  121PPPE   H5X49090   0.179   2.100   3.278
  121PPPE   H5Y49091   0.020   2.050   3.344
  121PPPE   C3649092   0.101   2.228   3.436
  121PPPE   H6X49093   0.012   2.293   3.444
  121PPPE   H6Y49094   0.188   2.295   3.422
  121PPPE   C3749095   0.110   2.152   3.569
  121PPPE   H7X49096   0.029   2.075   3.571
  121PPPE   H7Y49097   0.091   2.225   3.650
  121PPPE   C3849098   0.240   2.080   3.602
  121PPPE   H8X49099   0.326   2.147   3.582
  121PPPE   H8Y49100   0.251   1.989   3.539
  121PPPE   C3949101   0.242   2.041   3.752
  121PPPE   H9X49102   0.152   1.980   3.776
  121PPPE   H9Y49103   0.234   2.134   3.811
  121PPPE  C31049104   0.367   1.965   3.795
  121PPPE  H10X49105   0.455   2.008   3.742
  121PPPE  H10Y49106   0.358   1.858   3.766
  121PPPE  C31149107   0.397   1.974   3.946
  121PPPE  H11X49108   0.415   2.080   3.973
  121PPPE  H11Y49109   0.491   1.919   3.966
  121PPPE  C31249110   0.287   1.917   4.037
  121PPPE  H12X49111   0.246   1.827   3.986
  121PPPE  H12Y49112   0.201   1.987   4.049
  121PPPE  C31349113   0.339   1.868   4.174
  121PPPE  H13X49114   0.426   1.802   4.151
  121PPPE  H13Y49115   0.259   1.807   4.221
  121PPPE  C31449116   0.392   1.966   4.280
  121PPPE  H14X49117   0.308   2.015   4.332
  121PPPE  H14Y49118   0.453   2.043   4.226
  121PPPE  C31549119   0.487   1.899   4.381
  121PPPE  H15X49120   0.584   1.953   4.378
  121PPPE  H15Y49121   0.509   1.795   4.346
  121PPPE  C31649122   0.441   1.892   4.528
  121PPPE  H16X49123   0.331   1.883   4.535
  121PPPE  H16Y49124   0.487   1.805   4.579
  121PPPE  H16Z49125   0.471   1.983   4.584
  122PPPE     N49126   6.688   0.861   2.711
  122PPPE   HN149127   6.682   0.900   2.615
  122PPPE   HN249128   6.661   0.934   2.780
  122PPPE   HN349129   6.787   0.831   2.728
  122PPPE   C1249130   6.606   0.735   2.723
  122PPPE  H12A49131   6.498   0.762   2.716
  122PPPE  H12B49132   6.624   0.695   2.825
  122PPPE   C1149133   6.643   0.626   2.619
  122PPPE  H11A49134   6.572   0.637   2.534
  122PPPE  H11B49135   6.622   0.526   2.663
  122PPPE     P49136   6.905   0.604   2.655
  122PPPE   O1349137   7.013   0.565   2.563
  122PPPE   O1449138   6.920   0.725   2.739
  122PPPE   O1149139   6.861   0.479   2.741
  122PPPE   O1249140   6.776   0.633   2.568
  122PPPE    C149141   6.903   0.459   2.877
  122PPPE    HA49142   6.997   0.513   2.903
  122PPPE    HB49143   6.925   0.351   2.892
  122PPPE    C249144   6.790   0.499   2.976
  122PPPE    HS49145   6.699   0.508   2.912
  122PPPE   O2149146   6.826   0.625   3.035
  122PPPE   C2149147   6.722   0.695   3.077
  122PPPE   O2249148   6.605   0.663   3.063
  122PPPE   C2249149   6.768   0.832   3.127
  122PPPE   H2R49150   6.722   0.906   3.056
  122PPPE   H2S49151   6.878   0.840   3.117
  122PPPE    C349152   6.755   0.390   3.082
  122PPPE    HX49153   6.653   0.415   3.118
  122PPPE    HY49154   6.745   0.294   3.026
  122PPPE   O3149155   6.854   0.373   3.186
  122PPPE   C3149156   6.803   0.372   3.311
  122PPPE   O3249157   6.688   0.395   3.339
  122PPPE   C3249158   6.913   0.332   3.411
  122PPPE   H2X49159   6.976   0.421   3.431
  122PPPE   H2Y49160   6.975   0.256   3.359
  122PPPE   C2349161   6.718   0.862   3.268
  122PPPE   H3R49162   6.610   0.839   3.280
  122PPPE   H3S49163   6.730   0.971   3.287
  122PPPE   C2449164   6.797   0.789   3.378
  122PPPE   H4R49165   6.775   0.680   3.377
  122PPPE   H4S49166   6.763   0.830   3.476
  122PPPE   C2549167   6.948   0.812   3.368
  122PPPE   H5R49168   6.964   0.916   3.334
  122PPPE   H5S49169   6.993   0.744   3.292
  122PPPE   C2649170   7.021   0.796   3.502
  122PPPE   H6R49171   6.968   0.854   3.582
  122PPPE   H6S49172   7.122   0.839   3.490
  122PPPE   C2749173   7.043   0.652   3.547
  122PPPE   H7R49174   7.093   0.598   3.464
  122PPPE   H7S49175   6.944   0.604   3.565
  122PPPE   C2849176   7.133   0.640   3.671
  122PPPE   H8R49177   7.223   0.704   3.655
  122PPPE   H8S49178   7.171   0.536   3.676
  122PPPE   C2949179   7.069   0.676   3.802
  122PPPE   H9149180   7.019   0.774   3.804
  122PPPE  C21049181   7.070   0.602   3.914
  122PPPE  H10149182   7.023   0.643   4.005
  122PPPE  C21149183   7.136   0.467   3.933
  122PPPE  H11R49184   7.243   0.480   3.958
  122PPPE  H11S49185   7.131   0.407   3.840
  122PPPE  C21249186   7.069   0.385   4.045
  122PPPE  H12R49187   7.105   0.280   4.036
  122PPPE  H12S49188   6.959   0.383   4.032
  122PPPE  C21349189   7.105   0.432   4.188
  122PPPE  H13R49190   7.073   0.537   4.202
  122PPPE  H13S49191   7.215   0.428   4.200
  122PPPE  C21449192   7.040   0.345   4.296
  122PPPE  H14R49193   7.060   0.238   4.273
  122PPPE  H14S49194   6.930   0.359   4.295
  122PPPE  C21549195   7.094   0.375   4.436
  122PPPE  H15R49196   7.080   0.482   4.459
  122PPPE  H15S49197   7.204   0.355   4.438
  122PPPE  C21649198   7.028   0.291   4.546
  122PPPE  H16R49199   6.920   0.314   4.554
  122PPPE  H16S49200   7.040   0.182   4.524
  122PPPE  H16T49201   7.075   0.311   4.645
  122PPPE   C3349202   6.868   0.269   3.546
  122PPPE   H3X49203   6.951   0.203   3.582
  122PPPE   H3Y49204   6.779   0.203   3.532
  122PPPE   C3449205   6.840   0.367   3.662
  122PPPE   H4X49206   6.931   0.425   3.684
  122PPPE   H4Y49207   6.816   0.309   3.754
  122PPPE   C3549208   6.722   0.461   3.634
  122PPPE   H5X49209   6.629   0.402   3.620
  122PPPE   H5Y49210   6.742   0.516   3.539
  122PPPE   C3649211   6.699   0.569   3.741
  122PPPE   H6X49212   6.796   0.621   3.759
  122PPPE   H6Y49213   6.665   0.523   3.835
  122PPPE   C3749214   6.596   0.671   3.689
  122PPPE   H7X49215   6.513   0.610   3.649
  122PPPE   H7Y49216   6.639   0.725   3.602
  122PPPE   C3849217   6.539   0.773   3.788
  122PPPE   H8X49218   6.487   0.721   3.872
  122PPPE   H8Y49219   6.460   0.829   3.734
  122PPPE   C3949220   6.638   0.879   3.844
  122PPPE   H9X49221   6.577   0.960   3.889
  122PPPE   H9Y49222   6.694   0.924   3.759
  122PPPE  C31049223   6.737   0.831   3.950
  122PPPE  H10X49224   6.794   0.918   3.990
  122PPPE  H10Y49225   6.812   0.763   3.903
  122PPPE  C31149226   6.673   0.756   4.068
  122PPPE  H11X49227   6.606   0.676   4.031
  122PPPE  H11Y49228   6.611   0.828   4.127
  122PPPE  C31249229   6.776   0.688   4.157
  122PPPE  H12X49230   6.843   0.764   4.203
  122PPPE  H12Y49231   6.839   0.621   4.094
  122PPPE  C31349232   6.713   0.599   4.266
  122PPPE  H13X49233   6.795   0.551   4.325
  122PPPE  H13Y49234   6.656   0.518   4.217
  122PPPE  C31449235   6.620   0.674   4.362
  122PPPE  H14X49236   6.585   0.603   4.440
  122PPPE  H14Y49237   6.529   0.709   4.307
  122PPPE  C31549238   6.684   0.795   4.432
  122PPPE  H15X49239   6.609   0.834   4.504
  122PPPE  H15Y49240   6.703   0.875   4.358
  122PPPE  C31649241   6.814   0.763   4.505
  122PPPE  H16X49242   6.846   0.850   4.568
  122PPPE  H16Y49243   6.802   0.675   4.572
  122PPPE  H16Z49244   6.895   0.741   4.433
  123PPPE     N49245   0.665   6.734   2.410
  123PPPE   HN149246   0.587   6.730   2.479
  123PPPE   HN249247   0.722   6.819   2.432
  123PPPE   HN349248   0.626   6.742   2.314
  123PPPE   C1249249   0.735   6.603   2.434
  123PPPE  H12A49250   0.825   6.624   2.497
  123PPPE  H12B49251   0.768   6.564   2.336
  123PPPE   C1149252   0.639   6.506   2.506
  123PPPE  H11A49253   0.699   6.446   2.579
  123PPPE  H11B49254   0.598   6.434   2.432
  123PPPE     P49255   0.476   6.541   2.714
  123PPPE   O1349256   0.356   6.626   2.727
  123PPPE   O1449257   0.457   6.395   2.716
  123PPPE   O1149258   0.593   6.592   2.809
  123PPPE   O1249259   0.531   6.576   2.568
  123PPPE    C149260   0.679   6.697   2.762
  123PPPE    HA49261   0.621   6.778   2.713
  123PPPE    HB49262   0.751   6.656   2.688
  123PPPE    C249263   0.771   6.767   2.867
  123PPPE    HS49264   0.847   6.826   2.812
  123PPPE   O2149265   0.837   6.674   2.955
  123PPPE   C2149266   0.910   6.576   2.910
  123PPPE   O2249267   0.927   6.544   2.794
  123PPPE   C2249268   0.983   6.514   3.031
  123PPPE   H2R49269   1.061   6.587   3.061
  123PPPE   H2S49270   1.033   6.421   2.997
  123PPPE    C349271   0.690   6.867   2.954
  123PPPE    HX49272   0.751   6.958   2.971
  123PPPE    HY49273   0.600   6.897   2.896
  123PPPE   O3149274   0.659   6.808   3.082
  123PPPE   C3149275   0.541   6.834   3.132
  123PPPE   O3249276   0.467   6.925   3.096
  123PPPE   C3249277   0.511   6.726   3.234
  123PPPE   H2X49278   0.429   6.762   3.299
  123PPPE   H2Y49279   0.601   6.710   3.299
  123PPPE   C2349280   0.894   6.485   3.155
  123PPPE   H3R49281   0.823   6.403   3.131
  123PPPE   H3S49282   0.834   6.575   3.181
  123PPPE   C2449283   0.978   6.448   3.278
  123PPPE   H4R49284   1.042   6.534   3.306
  123PPPE   H4S49285   1.046   6.364   3.250
  123PPPE   C2549286   0.897   6.406   3.401
  123PPPE   H5R49287   0.962   6.347   3.469
  123PPPE   H5S49288   0.811   6.342   3.372
  123PPPE   C2649289   0.847   6.526   3.483
  123PPPE   H6R49290   0.782   6.589   3.418
  123PPPE   H6S49291   0.934   6.588   3.512
  123PPPE   C2749292   0.769   6.489   3.610
  123PPPE   H7R49293   0.830   6.422   3.675
  123PPPE   H7S49294   0.677   6.434   3.580
  123PPPE   C2849295   0.734   6.617   3.688
  123PPPE   H8R49296   0.705   6.687   3.605
  123PPPE   H8S49297   0.827   6.655   3.733
  123PPPE   C2949298   0.619   6.623   3.785
  123PPPE   H9149299   0.522   6.637   3.734
  123PPPE  C21049300   0.619   6.624   3.918
  123PPPE  H10149301   0.521   6.636   3.969
  123PPPE  C21149302   0.731   6.619   4.018
  123PPPE  H11R49303   0.829   6.649   3.976
  123PPPE  H11S49304   0.741   6.515   4.057
  123PPPE  C21249305   0.695   6.711   4.137
  123PPPE  H12R49306   0.586   6.711   4.160
  123PPPE  H12S49307   0.720   6.815   4.106
  123PPPE  C21349308   0.767   6.676   4.267
  123PPPE  H13R49309   0.865   6.631   4.241
  123PPPE  H13S49310   0.709   6.600   4.323
  123PPPE  C21449311   0.797   6.797   4.358
  123PPPE  H14R49312   0.830   6.878   4.289
  123PPPE  H14S49313   0.883   6.773   4.424
  123PPPE  C21549314   0.683   6.850   4.444
  123PPPE  H15R49315   0.585   6.834   4.394
  123PPPE  H15S49316   0.696   6.960   4.455
  123PPPE  C21649317   0.679   6.792   4.587
  123PPPE  H16R49318   0.776   6.809   4.637
  123PPPE  H16S49319   0.601   6.841   4.648
  123PPPE  H16T49320   0.660   6.683   4.582
  123PPPE   C3349321   0.473   6.592   3.165
  123PPPE   H3X49322   0.565   6.537   3.137
  123PPPE   H3Y49323   0.418   6.613   3.070
  123PPPE   C3449324   0.382   6.505   3.252
  123PPPE   H4X49325   0.351   6.414   3.196
  123PPPE   H4Y49326   0.290   6.564   3.274
  123PPPE   C3549327   0.445   6.463   3.385
  123PPPE   H5X49328   0.491   6.552   3.434
  123PPPE   H5Y49329   0.527   6.390   3.367
  123PPPE   C3649330   0.342   6.404   3.483
  123PPPE   H6X49331   0.305   6.307   3.443
  123PPPE   H6Y49332   0.256   6.474   3.487
  123PPPE   C3749333   0.397   6.389   3.625
  123PPPE   H7X49334   0.411   6.491   3.667
  123PPPE   H7Y49335   0.495   6.338   3.622
  123PPPE   C3849336   0.306   6.310   3.720
  123PPPE   H8X49337   0.294   6.208   3.677
  123PPPE   H8Y49338   0.205   6.355   3.724
  123PPPE   C3949339   0.364   6.294   3.861
  123PPPE   H9X49340   0.473   6.272   3.853
  123PPPE   H9Y49341   0.315   6.209   3.912
  123PPPE  C31049342   0.344   6.414   3.955
  123PPPE  H10X49343   0.236   6.428   3.976
  123PPPE  H10Y49344   0.380   6.505   3.903
  123PPPE  C31149345   0.416   6.396   4.089
  123PPPE  H11X49346   0.443   6.496   4.129
  123PPPE  H11Y49347   0.510   6.339   4.076
  123PPPE  C31249348   0.325   6.327   4.193
  123PPPE  H12X49349   0.310   6.221   4.161
  123PPPE  H12Y49350   0.226   6.377   4.193
  123PPPE  C31349351   0.377   6.327   4.337
  123PPPE  H13X49352   0.300   6.277   4.400
  123PPPE  H13Y49353   0.388   6.430   4.375
  123PPPE  C31449354   0.510   6.255   4.358
  123PPPE  H14X49355   0.587   6.302   4.293
  123PPPE  H14Y49356   0.496   6.150   4.323
  123PPPE  C31549357   0.558   6.257   4.503
  123PPPE  H15X49358   0.536   6.357   4.547
  123PPPE  H15Y49359   0.668   6.244   4.502
  123PPPE  C31649360   0.504   6.146   4.594
  123PPPE  H16X49361   0.397   6.123   4.571
  123PPPE  H16Y49362   0.562   6.053   4.580
  123PPPE  H16Z49363   0.513   6.177   4.700
  124PPPE     N49364   7.591   0.965   2.877
  124PPPE   HN149365   7.602   1.061   2.917
  124PPPE   HN249366   7.522   0.970   2.799
  124PPPE   HN349367   7.562   0.896   2.947
  124PPPE   C1249368   7.718   0.927   2.806
  124PPPE  H12A49369   7.772   0.852   2.868
  124PPPE  H12B49370   7.780   1.018   2.796
  124PPPE   C1149371   7.682   0.871   2.667
  124PPPE  H11A49372   7.639   0.769   2.679
  124PPPE  H11B49373   7.776   0.858   2.608
  124PPPE     P49374   7.631   1.081   2.518
  124PPPE   O1349375   7.753   1.051   2.441
  124PPPE   O1449376   7.514   1.130   2.440
  124PPPE   O1149377   7.659   1.180   2.638
  124PPPE   O1249378   7.586   0.953   2.600
  124PPPE    C149379   7.545   1.236   2.706
  124PPPE    HA49380   7.473   1.157   2.737
  124PPPE    HB49381   7.490   1.305   2.638
  124PPPE    C249382   7.584   1.319   2.832
  124PPPE    HS49383   7.630   1.411   2.792
  124PPPE   O2149384   7.675   1.246   2.919
  124PPPE   C2149385   7.738   1.332   3.003
  124PPPE   O2249386   7.733   1.453   2.993
  124PPPE   C2249387   7.813   1.258   3.113
  124PPPE   H2R49388   7.855   1.336   3.181
  124PPPE   H2S49389   7.898   1.204   3.066
  124PPPE    C349390   7.456   1.356   2.912
  124PPPE    HX49391   7.485   1.432   2.990
  124PPPE    HY49392   7.383   1.406   2.845
  124PPPE   O3149393   7.403   1.240   2.981
  124PPPE   C3149394   7.284   1.195   2.944
  124PPPE   O3249395   7.219   1.237   2.849
  124PPPE   C3249396   7.242   1.076   3.031
  124PPPE   H2X49397   7.231   0.989   2.962
  124PPPE   H2Y49398   7.141   1.098   3.072
  124PPPE   C2349399   7.726   1.161   3.196
  124PPPE   H3R49400   7.682   1.085   3.128
  124PPPE   H3S49401   7.643   1.215   3.247
  124PPPE   C2449402   7.808   1.086   3.304
  124PPPE   H4R49403   7.907   1.060   3.259
  124PPPE   H4S49404   7.758   0.990   3.329
  124PPPE   C2549405   7.830   1.165   3.433
  124PPPE   H5R49406   7.825   1.275   3.415
  124PPPE   H5S49407   7.933   1.143   3.469
  124PPPE   C2649408   7.736   1.124   3.547
  124PPPE   H6R49409   7.743   1.013   3.559
  124PPPE   H6S49410   7.631   1.149   3.523
  124PPPE   C2749411   7.775   1.187   3.682
  124PPPE   H7R49412   7.738   1.292   3.684
  124PPPE   H7S49413   7.886   1.191   3.690
  124PPPE   C2849414   7.720   1.107   3.801
  124PPPE   H8R49415   7.770   1.007   3.802
  124PPPE   H8S49416   7.612   1.089   3.785
  124PPPE   C2949417   7.740   1.175   3.934
  124PPPE   H9149418   7.807   1.262   3.934
  124PPPE  C21049419   7.682   1.136   4.049
  124PPPE  H10149420   7.702   1.192   4.141
  124PPPE  C21149421   7.589   1.018   4.064
  124PPPE  H11R49422   7.618   0.935   3.997
  124PPPE  H11S49423   7.486   1.048   4.038
  124PPPE  C21249424   7.586   0.961   4.208
  124PPPE  H12R49425   7.690   0.946   4.245
  124PPPE  H12S49426   7.537   0.862   4.207
  124PPPE  C21349427   7.508   1.051   4.304
  124PPPE  H13R49428   7.403   1.056   4.270
  124PPPE  H13S49429   7.551   1.154   4.300
  124PPPE  C21449430   7.508   1.002   4.450
  124PPPE  H14R49431   7.613   0.980   4.479
  124PPPE  H14S49432   7.453   0.905   4.455
  124PPPE  C21549433   7.448   1.101   4.550
  124PPPE  H15R49434   7.458   1.058   4.653
  124PPPE  H15S49435   7.339   1.112   4.530
  124PPPE  C21649436   7.510   1.242   4.549
  124PPPE  H16R49437   7.621   1.236   4.543
  124PPPE  H16S49438   7.473   1.300   4.462
  124PPPE  H16T49439   7.483   1.296   4.642
  124PPPE   C3349440   7.340   1.037   3.145
  124PPPE   H3X49441   7.446   1.042   3.111
  124PPPE   H3Y49442   7.320   0.931   3.174
  124PPPE   C3449443   7.324   1.120   3.273
  124PPPE   H4X49444   7.328   1.229   3.250
  124PPPE   H4Y49445   7.410   1.098   3.341
  124PPPE   C3549446   7.194   1.087   3.348
  124PPPE   H5X49447   7.190   0.977   3.360
  124PPPE   H5Y49448   7.108   1.118   3.286
  124PPPE   C3649449   7.177   1.153   3.486
  124PPPE   H6X49450   7.075   1.130   3.524
  124PPPE   H6Y49451   7.180   1.264   3.473
  124PPPE   C3749452   7.279   1.116   3.595
  124PPPE   H7X49453   7.266   1.193   3.675
  124PPPE   H7Y49454   7.383   1.124   3.559
  124PPPE   C3849455   7.254   0.980   3.660
  124PPPE   H8X49456   7.296   0.902   3.594
  124PPPE   H8Y49457   7.144   0.964   3.669
  124PPPE   C3949458   7.313   0.961   3.801
  124PPPE   H9X49459   7.417   1.000   3.806
  124PPPE   H9Y49460   7.319   0.851   3.820
  124PPPE  C31049461   7.229   1.022   3.914
  124PPPE  H10X49462   7.129   1.053   3.875
  124PPPE  H10Y49463   7.280   1.113   3.950
  124PPPE  C31149464   7.209   0.926   4.032
  124PPPE  H11X49465   7.308   0.887   4.064
  124PPPE  H11Y49466   7.147   0.839   3.999
  124PPPE  C31249467   7.139   0.990   4.153
  124PPPE  H12X49468   7.035   1.019   4.127
  124PPPE  H12Y49469   7.195   1.082   4.179
  124PPPE  C31349470   7.139   0.899   4.278
  124PPPE  H13X49471   7.243   0.865   4.295
  124PPPE  H13Y49472   7.076   0.810   4.260
  124PPPE  C31449473   7.092   0.977   4.400
  124PPPE  H14X49474   6.981   0.991   4.398
  124PPPE  H14Y49475   7.139   1.077   4.396
  124PPPE  C31549476   7.134   0.917   4.535
  124PPPE  H15X49477   7.244   0.898   4.531
  124PPPE  H15Y49478   7.085   0.818   4.551
  124PPPE  C31649479   7.103   1.011   4.650
  124PPPE  H16X49480   6.994   1.012   4.674
  124PPPE  H16Y49481   7.159   0.979   4.741
  124PPPE  H16Z49482   7.134   1.115   4.627
  125PPPE     N49483   1.010   0.692   2.526
  125PPPE   HN149484   1.070   0.702   2.442
  125PPPE   HN249485   0.978   0.594   2.537
  125PPPE   HN349486   0.924   0.751   2.517
  125PPPE   C1249487   1.082   0.740   2.650
  125PPPE  H12A49488   1.154   0.819   2.619
  125PPPE  H12B49489   1.137   0.654   2.694
  125PPPE   C1149490   0.981   0.799   2.748
  125PPPE  H11A49491   1.034   0.830   2.841
  125PPPE  H11B49492   0.910   0.720   2.781
  125PPPE     P49493   0.763   0.909   2.658
  125PPPE   O1349494   0.714   1.043   2.615
  125PPPE   O1449495   0.753   0.800   2.558
  125PPPE   O1149496   0.698   0.869   2.797
  125PPPE   O1249497   0.917   0.916   2.693
  125PPPE    C149498   0.740   0.939   2.917
  125PPPE    HA49499   0.712   1.046   2.908
  125PPPE    HB49500   0.850   0.935   2.931
  125PPPE    C249501   0.678   0.883   3.049
  125PPPE    HS49502   0.699   0.958   3.128
  125PPPE   O2149503   0.735   0.755   3.080
  125PPPE   C2149504   0.847   0.760   3.150
  125PPPE   O2249505   0.907   0.862   3.181
  125PPPE   C2249506   0.892   0.618   3.186
  125PPPE   H2R49507   0.972   0.625   3.263
  125PPPE   H2S49508   0.937   0.575   3.094
  125PPPE    C349509   0.524   0.869   3.044
  125PPPE    HX49510   0.485   0.939   2.967
  125PPPE    HY49511   0.496   0.767   3.009
  125PPPE   O3149512   0.466   0.905   3.172
  125PPPE   C3149513   0.447   0.805   3.257
  125PPPE   O3249514   0.464   0.687   3.233
  125PPPE   C3249515   0.392   0.857   3.391
  125PPPE   H2X49516   0.319   0.780   3.424
  125PPPE   H2Y49517   0.338   0.953   3.374
  125PPPE   C2349518   0.778   0.525   3.234
  125PPPE   H3R49519   0.813   0.420   3.227
  125PPPE   H3S49520   0.689   0.534   3.168
  125PPPE   C2449521   0.736   0.551   3.380
  125PPPE   H4R49522   0.709   0.658   3.392
  125PPPE   H4S49523   0.823   0.531   3.447
  125PPPE   C2549524   0.616   0.464   3.424
  125PPPE   H5R49525   0.639   0.357   3.408
  125PPPE   H5S49526   0.530   0.490   3.359
  125PPPE   C2649527   0.576   0.486   3.571
  125PPPE   H6R49528   0.471   0.454   3.587
  125PPPE   H6S49529   0.580   0.595   3.592
  125PPPE   C2749530   0.666   0.408   3.668
  125PPPE   H7R49531   0.772   0.418   3.636
  125PPPE   H7S49532   0.639   0.300   3.660
  125PPPE   C2849533   0.657   0.450   3.816
  125PPPE   H8R49534   0.721   0.382   3.875
  125PPPE   H8S49535   0.553   0.437   3.853
  125PPPE   C2949536   0.702   0.592   3.830
  125PPPE   H9149537   0.624   0.667   3.808
  125PPPE  C21049538   0.824   0.636   3.866
  125PPPE  H10149539   0.842   0.745   3.862
  125PPPE  C21149540   0.948   0.558   3.901
  125PPPE  H11R49541   1.037   0.616   3.870
  125PPPE  H11S49542   0.951   0.462   3.847
  125PPPE  C21249543   0.962   0.528   4.052
  125PPPE  H12R49544   1.064   0.489   4.069
  125PPPE  H12S49545   0.888   0.449   4.079
  125PPPE  C21349546   0.940   0.646   4.148
  125PPPE  H13R49547   0.836   0.682   4.132
  125PPPE  H13S49548   1.009   0.729   4.124
  125PPPE  C21449549   0.952   0.607   4.296
  125PPPE  H14R49550   0.898   0.513   4.316
  125PPPE  H14S49551   0.905   0.687   4.358
  125PPPE  C21549552   1.097   0.596   4.345
  125PPPE  H15R49553   1.148   0.692   4.325
  125PPPE  H15S49554   1.149   0.517   4.288
  125PPPE  C21649555   1.107   0.567   4.495
  125PPPE  H16R49556   1.060   0.470   4.521
  125PPPE  H16S49557   1.214   0.563   4.526
  125PPPE  H16T49558   1.057   0.647   4.554
  125PPPE   C3349559   0.496   0.874   3.505
  125PPPE   H3X49560   0.576   0.797   3.498
  125PPPE   H3Y49561   0.444   0.858   3.602
  125PPPE   C3449562   0.559   1.015   3.510
  125PPPE   H4X49563   0.477   1.090   3.503
  125PPPE   H4Y49564   0.624   1.028   3.421
  125PPPE   C3549565   0.640   1.044   3.637
  125PPPE   H5X49566   0.573   1.042   3.726
  125PPPE   H5Y49567   0.682   1.146   3.629
  125PPPE   C3649568   0.755   0.945   3.661
  125PPPE   H6X49569   0.804   0.922   3.563
  125PPPE   H6Y49570   0.714   0.850   3.700
  125PPPE   C3749571   0.865   0.996   3.756
  125PPPE   H7X49572   0.919   1.079   3.704
  125PPPE   H7Y49573   0.939   0.915   3.773
  125PPPE   C3849574   0.819   1.050   3.893
  125PPPE   H8X49575   0.738   1.125   3.879
  125PPPE   H8Y49576   0.906   1.101   3.939
  125PPPE   C3949577   0.774   0.944   3.995
  125PPPE   H9X49578   0.861   0.877   4.014
  125PPPE   H9Y49579   0.691   0.884   3.952
  125PPPE  C31049580   0.731   1.004   4.128
  125PPPE  H10X49581   0.642   1.068   4.109
  125PPPE  H10Y49582   0.812   1.071   4.165
  125PPPE  C31149583   0.701   0.900   4.237
  125PPPE  H11X49584   0.668   0.955   4.327
  125PPPE  H11Y49585   0.794   0.847   4.266
  125PPPE  C31249586   0.592   0.797   4.200
  125PPPE  H12X49587   0.632   0.716   4.135
  125PPPE  H12Y49588   0.513   0.848   4.141
  125PPPE  C31349589   0.524   0.736   4.325
  125PPPE  H13X49590   0.425   0.696   4.295
  125PPPE  H13Y49591   0.507   0.815   4.400
  125PPPE  C31449592   0.604   0.620   4.385
  125PPPE  H14X49593   0.704   0.658   4.414
  125PPPE  H14Y49594   0.618   0.541   4.308
  125PPPE  C31549595   0.540   0.556   4.510
  125PPPE  H15X49596   0.606   0.473   4.543
  125PPPE  H15Y49597   0.442   0.512   4.483
  125PPPE  C31649598   0.522   0.653   4.628
  125PPPE  H16X49599   0.487   0.598   4.719
  125PPPE  H16Y49600   0.619   0.702   4.653
  125PPPE  H16Z49601   0.448   0.731   4.604
  126PPPE     N49602   0.590   7.254   2.815
  126PPPE   HN149603   0.673   7.253   2.878
  126PPPE   HN249604   0.504   7.269   2.872
  126PPPE   HN349605   0.585   7.161   2.769
  126PPPE   C1249606   0.608   7.357   2.706
  126PPPE  H12A49607   0.697   7.419   2.731
  126PPPE  H12B49608   0.518   7.423   2.706
  126PPPE   C1149609   0.624   7.293   2.565
  126PPPE  H11A49610   0.630   7.377   2.493
  126PPPE  H11B49611   0.532   7.237   2.538
  126PPPE     P49612   0.740   7.058   2.586
  126PPPE   O1349613   0.618   7.034   2.666
  126PPPE   O1449614   0.759   6.977   2.463
  126PPPE   O1149615   0.864   7.040   2.680
  126PPPE   O1249616   0.743   7.213   2.551
  126PPPE    C149617   0.927   7.157   2.731
  126PPPE    HA49618   0.852   7.230   2.770
  126PPPE    HB49619   0.986   7.208   2.651
  126PPPE    C249620   1.024   7.131   2.851
  126PPPE    HS49621   1.115   7.084   2.806
  126PPPE   O2149622   0.964   7.047   2.951
  126PPPE   C2149623   1.055   6.984   3.028
  126PPPE   O2249624   1.175   6.982   3.002
  126PPPE   C2249625   0.992   6.912   3.148
  126PPPE   H2R49626   1.078   6.874   3.207
  126PPPE   H2S49627   0.935   6.824   3.110
  126PPPE    C349628   1.060   7.269   2.910
  126PPPE    HX49629   1.131   7.250   2.995
  126PPPE    HY49630   1.112   7.330   2.833
  126PPPE   O3149631   0.939   7.336   2.954
  126PPPE   C3149632   0.961   7.422   3.054
  126PPPE   O3249633   1.069   7.456   3.095
  126PPPE   C3249634   0.827   7.470   3.106
  126PPPE   H2X49635   0.762   7.493   3.019
  126PPPE   H2Y49636   0.842   7.565   3.163
  126PPPE   C2349637   0.903   6.998   3.240
  126PPPE   H3R49638   0.807   7.024   3.188
  126PPPE   H3S49639   0.954   7.093   3.263
  126PPPE   C2449640   0.873   6.926   3.372
  126PPPE   H4R49641   0.969   6.886   3.411
  126PPPE   H4S49642   0.805   6.840   3.354
  126PPPE   C2549643   0.813   7.021   3.477
  126PPPE   H5R49644   0.710   7.046   3.447
  126PPPE   H5S49645   0.874   7.114   3.479
  126PPPE   C2649646   0.815   6.966   3.620
  126PPPE   H6R49647   0.779   6.862   3.620
  126PPPE   H6S49648   0.746   7.026   3.683
  126PPPE   C2749649   0.954   6.975   3.682
  126PPPE   H7R49650   0.975   7.083   3.696
  126PPPE   H7S49651   1.029   6.933   3.611
  126PPPE   C2849652   0.974   6.903   3.818
  126PPPE   H8R49653   1.081   6.912   3.845
  126PPPE   H8S49654   0.955   6.794   3.804
  126PPPE   C2949655   0.885   6.959   3.924
  126PPPE   H9149656   0.783   6.985   3.891
  126PPPE  C21049657   0.916   6.980   4.052
  126PPPE  H10149658   0.841   7.027   4.117
  126PPPE  C21149659   1.047   6.953   4.120
  126PPPE  H11R49660   1.130   6.945   4.047
  126PPPE  H11S49661   1.043   6.856   4.176
  126PPPE  C21249662   1.079   7.068   4.217
  126PPPE  H12R49663   1.026   7.159   4.183
  126PPPE  H12S49664   1.188   7.087   4.212
  126PPPE  C21349665   1.043   7.049   4.365
  126PPPE  H13R49666   0.935   7.027   4.374
  126PPPE  H13S49667   1.060   7.145   4.418
  126PPPE  C21449668   1.129   6.942   4.436
  126PPPE  H14R49669   1.232   6.981   4.444
  126PPPE  H14S49670   1.135   6.851   4.372
  126PPPE  C21549671   1.079   6.900   4.575
  126PPPE  H15R49672   1.169   6.892   4.641
  126PPPE  H15S49673   1.037   6.797   4.568
  126PPPE  C21649674   0.977   6.990   4.643
  126PPPE  H16R49675   1.019   7.090   4.667
  126PPPE  H16S49676   0.886   7.004   4.582
  126PPPE  H16T49677   0.944   6.943   4.740
  126PPPE   C3349678   0.765   7.364   3.200
  126PPPE   H3X49679   0.774   7.263   3.153
  126PPPE   H3Y49680   0.656   7.383   3.214
  126PPPE   C3449681   0.830   7.361   3.337
  126PPPE   H4X49682   0.941   7.353   3.329
  126PPPE   H4Y49683   0.794   7.270   3.388
  126PPPE   C3549684   0.793   7.478   3.431
  126PPPE   H5X49685   0.683   7.485   3.438
  126PPPE   H5Y49686   0.830   7.575   3.389
  126PPPE   C3649687   0.851   7.457   3.571
  126PPPE   H6X49688   0.962   7.458   3.565
  126PPPE   H6Y49689   0.819   7.358   3.609
  126PPPE   C3749690   0.806   7.565   3.670
  126PPPE   H7X49691   0.695   7.566   3.674
  126PPPE   H7Y49692   0.840   7.664   3.634
  126PPPE   C3849693   0.858   7.545   3.813
  126PPPE   H8X49694   0.851   7.641   3.868
  126PPPE   H8Y49695   0.966   7.518   3.807
  126PPPE   C3949696   0.780   7.439   3.894
  126PPPE   H9X49697   0.781   7.342   3.840
  126PPPE   H9Y49698   0.674   7.472   3.900
  126PPPE  C31049699   0.837   7.418   4.036
  126PPPE  H10X49700   0.908   7.500   4.058
  126PPPE  H10Y49701   0.893   7.322   4.038
  126PPPE  C31149702   0.733   7.419   4.149
  126PPPE  H11X49703   0.634   7.389   4.109
  126PPPE  H11Y49704   0.723   7.524   4.186
  126PPPE  C31249705   0.765   7.330   4.271
  126PPPE  H12X49706   0.856   7.269   4.254
  126PPPE  H12Y49707   0.680   7.259   4.283
  126PPPE  C31349708   0.778   7.407   4.403
  126PPPE  H13X49709   0.706   7.492   4.405
  126PPPE  H13Y49710   0.880   7.450   4.410
  126PPPE  C31449711   0.751   7.320   4.528
  126PPPE  H14X49712   0.781   7.378   4.618
  126PPPE  H14Y49713   0.813   7.228   4.524
  126PPPE  C31549714   0.602   7.283   4.544
  126PPPE  H15X49715   0.571   7.218   4.459
  126PPPE  H15Y49716   0.541   7.375   4.540
  126PPPE  C31649717   0.571   7.209   4.675
  126PPPE  H16X49718   0.632   7.116   4.683
  126PPPE  H16Y49719   0.594   7.274   4.762
  126PPPE  H16Z49720   0.464   7.181   4.681
  127PPPE     N49721   7.320   7.232   2.395
  127PPPE   HN149722   7.396   7.188   2.340
  127PPPE   HN249723   7.245   7.267   2.332
  127PPPE   HN349724   7.361   7.313   2.445
  127PPPE   C1249725   7.268   7.141   2.504
  127PPPE  H12A49726   7.358   7.102   2.557
  127PPPE  H12B49727   7.215   7.055   2.457
  127PPPE   C1149728   7.177   7.213   2.608
  127PPPE  H11A49729   7.172   7.150   2.700
  127PPPE  H11B49730   7.073   7.217   2.567
  127PPPE     P49731   7.368   7.368   2.690
  127PPPE   O1349732   7.419   7.240   2.739
  127PPPE   O1449733   7.431   7.419   2.565
  127PPPE   O1149734   7.366   7.477   2.802
  127PPPE   O1249735   7.217   7.346   2.642
  127PPPE    C149736   7.280   7.591   2.805
  127PPPE    HA49737   7.224   7.604   2.710
  127PPPE    HB49738   7.343   7.682   2.820
  127PPPE    C249739   7.179   7.586   2.924
  127PPPE    HS49740   7.114   7.675   2.910
  127PPPE   O2149741   7.248   7.588   3.049
  127PPPE   C2149742   7.248   7.702   3.117
  127PPPE   O2249743   7.191   7.805   3.082
  127PPPE   C2249744   7.340   7.686   3.240
  127PPPE   H2R49745   7.440   7.720   3.205
  127PPPE   H2S49746   7.347   7.578   3.264
  127PPPE    C349747   7.086   7.460   2.918
  127PPPE    HX49748   7.001   7.481   2.986
  127PPPE    HY49749   7.046   7.450   2.815
  127PPPE   O3149750   7.159   7.341   2.953
  127PPPE   C3149751   7.114   7.273   3.057
  127PPPE   O3249752   7.000   7.279   3.102
  127PPPE   C3249753   7.224   7.183   3.111
  127PPPE   H2X49754   7.318   7.201   3.054
  127PPPE   H2Y49755   7.193   7.077   3.096
  127PPPE   C2349756   7.304   7.770   3.365
  127PPPE   H3R49757   7.290   7.877   3.337
  127PPPE   H3S49758   7.392   7.766   3.432
  127PPPE   C2449759   7.184   7.720   3.446
  127PPPE   H4R49760   7.090   7.741   3.392
  127PPPE   H4S49761   7.182   7.778   3.542
  127PPPE   C2549762   7.189   7.570   3.483
  127PPPE   H5R49763   7.292   7.531   3.471
  127PPPE   H5S49764   7.124   7.515   3.411
  127PPPE   C2649765   7.144   7.540   3.627
  127PPPE   H6R49766   7.058   7.606   3.651
  127PPPE   H6S49767   7.227   7.564   3.696
  127PPPE   C2749768   7.100   7.394   3.644
  127PPPE   H7R49769   7.177   7.327   3.602
  127PPPE   H7S49770   7.008   7.380   3.583
  127PPPE   C2849771   7.075   7.354   3.792
  127PPPE   H8R49772   7.077   7.445   3.855
  127PPPE   H8S49773   7.161   7.291   3.826
  127PPPE   C2949774   6.946   7.279   3.811
  127PPPE   H9149775   6.917   7.216   3.726
  127PPPE  C21049776   6.864   7.280   3.918
  127PPPE  H10149777   6.774   7.217   3.918
  127PPPE  C21149778   6.886   7.357   4.046
  127PPPE  H11R49779   6.791   7.363   4.104
  127PPPE  H11S49780   6.920   7.461   4.026
  127PPPE  C21249781   6.992   7.284   4.129
  127PPPE  H12R49782   7.090   7.292   4.077
  127PPPE  H12S49783   6.967   7.176   4.136
  127PPPE  C21349784   7.008   7.337   4.271
  127PPPE  H13R49785   6.916   7.317   4.330
  127PPPE  H13S49786   7.022   7.447   4.268
  127PPPE  C21449787   7.130   7.273   4.339
  127PPPE  H14R49788   7.197   7.354   4.374
  127PPPE  H14S49789   7.187   7.212   4.266
  127PPPE  C21549790   7.104   7.191   4.464
  127PPPE  H15R49791   7.201   7.145   4.493
  127PPPE  H15S49792   7.036   7.106   4.444
  127PPPE  C21649793   7.054   7.275   4.582
  127PPPE  H16R49794   6.952   7.315   4.561
  127PPPE  H16S49795   7.048   7.212   4.674
  127PPPE  H16T49796   7.122   7.360   4.602
  127PPPE   C3349797   7.250   7.208   3.262
  127PPPE   H3X49798   7.156   7.194   3.319
  127PPPE   H3Y49799   7.283   7.313   3.278
  127PPPE   C3449800   7.356   7.111   3.318
  127PPPE   H4X49801   7.452   7.127   3.262
  127PPPE   H4Y49802   7.322   7.008   3.297
  127PPPE   C3549803   7.380   7.126   3.467
  127PPPE   H5X49804   7.440   7.039   3.504
  127PPPE   H5Y49805   7.282   7.122   3.520
  127PPPE   C3649806   7.453   7.255   3.505
  127PPPE   H6X49807   7.396   7.341   3.465
  127PPPE   H6Y49808   7.554   7.257   3.460
  127PPPE   C3749809   7.465   7.271   3.657
  127PPPE   H7X49810   7.536   7.197   3.698
  127PPPE   H7Y49811   7.365   7.250   3.702
  127PPPE   C3849812   7.505   7.414   3.700
  127PPPE   H8X49813   7.448   7.486   3.637
  127PPPE   H8Y49814   7.613   7.430   3.681
  127PPPE   C3949815   7.472   7.443   3.846
  127PPPE   H9X49816   7.365   7.419   3.863
  127PPPE   H9Y49817   7.485   7.551   3.866
  127PPPE  C31049818   7.557   7.363   3.945
  127PPPE  H10X49819   7.660   7.406   3.950
  127PPPE  H10Y49820   7.567   7.258   3.910
  127PPPE  C31149821   7.496   7.358   4.085
  127PPPE  H11X49822   7.557   7.293   4.151
  127PPPE  H11Y49823   7.395   7.311   4.077
  127PPPE  C31249824   7.480   7.495   4.153
  127PPPE  H12X49825   7.438   7.568   4.080
  127PPPE  H12Y49826   7.579   7.532   4.188
  127PPPE  C31349827   7.383   7.484   4.268
  127PPPE  H13X49828   7.414   7.400   4.334
  127PPPE  H13Y49829   7.284   7.459   4.224
  127PPPE  C31449830   7.365   7.609   4.355
  127PPPE  H14X49831   7.324   7.692   4.294
  127PPPE  H14Y49832   7.464   7.640   4.396
  127PPPE  C31549833   7.270   7.580   4.472
  127PPPE  H15X49834   7.307   7.491   4.528
  127PPPE  H15Y49835   7.169   7.555   4.431
  127PPPE  C31649836   7.254   7.695   4.570
  127PPPE  H16X49837   7.189   7.663   4.655
  127PPPE  H16Y49838   7.352   7.728   4.610
  127PPPE  H16Z49839   7.204   7.781   4.520
  128PPPE     N49840   7.015   8.036   2.789
  128PPPE   HN149841   6.992   7.935   2.782
  128PPPE   HN249842   7.118   8.050   2.793
  128PPPE   HN349843   6.973   8.070   2.878
  128PPPE   C1249844   6.941   8.102   2.677
  128PPPE  H12A49845   7.001   8.188   2.639
  128PPPE  H12B49846   6.846   8.142   2.719
  128PPPE   C1149847   6.909   8.000   2.566
  128PPPE  H11A49848   7.002   7.978   2.509
  128PPPE  H11B49849   6.837   8.043   2.494
  128PPPE     P49850   6.713   7.869   2.681
  128PPPE   O1349851   6.649   8.000   2.659
  128PPPE   O1449852   6.647   7.749   2.626
  128PPPE   O1149853   6.750   7.853   2.834
  128PPPE   O1249854   6.860   7.877   2.620
  128PPPE    C149855   6.832   7.743   2.877
  128PPPE    HA49856   6.930   7.747   2.825
  128PPPE    HB49857   6.784   7.646   2.851
  128PPPE    C249858   6.862   7.738   3.031
  128PPPE    HS49859   6.964   7.693   3.039
  128PPPE   O2149860   6.765   7.651   3.092
  128PPPE   C2149861   6.812   7.591   3.202
  128PPPE   O2249862   6.927   7.600   3.242
  128PPPE   C2249863   6.700   7.511   3.266
  128PPPE   H2R49864   6.669   7.432   3.194
  128PPPE   H2S49865   6.615   7.580   3.282
  128PPPE    C349866   6.872   7.875   3.106
  128PPPE    HX49867   6.895   7.853   3.214
  128PPPE    HY49868   6.961   7.928   3.068
  128PPPE   O3149869   6.750   7.951   3.101
  128PPPE   C3149870   6.755   8.066   3.036
  128PPPE   O3249871   6.855   8.116   2.986
  128PPPE   C3249872   6.617   8.129   3.030
  128PPPE   H2X49873   6.540   8.049   3.026
  128PPPE   H2Y49874   6.612   8.185   2.933
  128PPPE   C2349875   6.739   7.447   3.401
  128PPPE   H3R49876   6.827   7.381   3.391
  128PPPE   H3S49877   6.654   7.383   3.433
  128PPPE   C2449878   6.764   7.551   3.511
  128PPPE   H4R49879   6.703   7.642   3.493
  128PPPE   H4S49880   6.871   7.581   3.509
  128PPPE   C2549881   6.729   7.496   3.650
  128PPPE   H5R49882   6.767   7.392   3.655
  128PPPE   H5S49883   6.619   7.487   3.661
  128PPPE   C2649884   6.789   7.574   3.768
  128PPPE   H6R49885   6.896   7.547   3.774
  128PPPE   H6S49886   6.742   7.539   3.863
  128PPPE   C2749887   6.785   7.728   3.766
  128PPPE   H7R49888   6.684   7.763   3.795
  128PPPE   H7S49889   6.808   7.767   3.664
  128PPPE   C2849890   6.890   7.784   3.865
  128PPPE   H8R49891   6.991   7.759   3.826
  128PPPE   H8S49892   6.879   7.726   3.959
  128PPPE   C2949893   6.880   7.932   3.888
  128PPPE   H9149894   6.892   7.994   3.799
  128PPPE  C21049895   6.855   7.994   4.005
  128PPPE  H10149896   6.850   8.104   4.009
  128PPPE  C21149897   6.834   7.928   4.139
  128PPPE  H11R49898   6.852   7.818   4.136
  128PPPE  H11S49899   6.728   7.941   4.170
  128PPPE  C21249900   6.921   7.987   4.252
  128PPPE  H12R49901   6.906   8.097   4.256
  128PPPE  H12S49902   7.029   7.969   4.230
  128PPPE  C21349903   6.887   7.929   4.391
  128PPPE  H13R49904   6.778   7.943   4.410
  128PPPE  H13S49905   6.942   7.988   4.466
  128PPPE  C21449906   6.923   7.781   4.406
  128PPPE  H14R49907   7.033   7.770   4.395
  128PPPE  H14S49908   6.875   7.721   4.326
  128PPPE  C21549909   6.879   7.720   4.542
  128PPPE  H15R49910   6.928   7.621   4.552
  128PPPE  H15S49911   6.770   7.703   4.539
  128PPPE  C21649912   6.912   7.806   4.663
  128PPPE  H16R49913   7.019   7.836   4.664
  128PPPE  H16S49914   6.849   7.898   4.667
  128PPPE  H16T49915   6.891   7.748   4.756
  128PPPE   C3349916   6.593   8.225   3.148
  128PPPE   H3X49917   6.513   8.296   3.120
  128PPPE   H3Y49918   6.685   8.285   3.168
  128PPPE   C3449919   6.551   8.154   3.276
  128PPPE   H4X49920   6.630   8.083   3.308
  128PPPE   H4Y49921   6.458   8.096   3.259
  128PPPE   C3549922   6.527   8.258   3.386
  128PPPE   H5X49923   6.451   8.331   3.351
  128PPPE   H5Y49924   6.621   8.315   3.403
  128PPPE   C3649925   6.483   8.202   3.521
  128PPPE   H6X49926   6.387   8.149   3.509
  128PPPE   H6Y49927   6.465   8.288   3.589
  128PPPE   C3749928   6.586   8.109   3.587
  128PPPE   H7X49929   6.689   8.149   3.575
  128PPPE   H7Y49930   6.582   8.010   3.538
  128PPPE   C3849931   6.560   8.091   3.738
  128PPPE   H8X49932   6.596   8.180   3.794
  128PPPE   H8Y49933   6.619   8.004   3.773
  128PPPE   C3949934   6.411   8.070   3.769
  128PPPE   H9X49935   6.367   8.008   3.688
  128PPPE   H9Y49936   6.357   8.167   3.770
  128PPPE  C31049937   6.388   7.996   3.901
  128PPPE  H10X49938   6.464   7.916   3.913
  128PPPE  H10Y49939   6.288   7.947   3.896
  128PPPE  C31149940   6.389   8.087   4.024
  128PPPE  H11X49941   6.317   8.169   4.007
  128PPPE  H11Y49942   6.489   8.131   4.039
  128PPPE  C31249943   6.346   8.010   4.149
  128PPPE  H12X49944   6.259   7.945   4.124
  128PPPE  H12Y49945   6.312   8.081   4.227
  128PPPE  C31349946   6.456   7.922   4.208
  128PPPE  H13X49947   6.535   7.988   4.249
  128PPPE  H13Y49948   6.502   7.857   4.130
  128PPPE  C31449949   6.402   7.834   4.320
  128PPPE  H14X49950   6.340   7.752   4.278
  128PPPE  H14Y49951   6.335   7.896   4.384
  128PPPE  C31549952   6.508   7.775   4.412
  128PPPE  H15X49953   6.584   7.853   4.436
  128PPPE  H15Y49954   6.561   7.691   4.361
  128PPPE  C31649955   6.448   7.726   4.543
  128PPPE  H16X49956   6.389   7.808   4.592
  128PPPE  H16Y49957   6.378   7.641   4.526
  128PPPE  H16Z49958   6.527   7.694   4.615
  129PPPE     N49959   8.018   6.452   2.754
  129PPPE   HN149960   8.076   6.490   2.676
  129PPPE   HN249961   8.070   6.472   2.842
  129PPPE   HN349962   8.009   6.349   2.744
  129PPPE   C1249963   7.886   6.525   2.748
  129PPPE  H12A49964   7.839   6.522   2.848
  129PPPE  H12B49965   7.822   6.472   2.674
  129PPPE   C1149966   7.909   6.669   2.700
  129PPPE  H11A49967   7.949   6.726   2.786
  129PPPE  H11B49968   7.813   6.718   2.675
  129PPPE     P49969   8.089   6.794   2.557
  129PPPE   O1349970   8.212   6.740   2.494
  129PPPE   O1449971   8.010   6.887   2.474
  129PPPE   O1149972   8.114   6.853   2.700
  129PPPE   O1249973   7.996   6.668   2.585
  129PPPE    C149974   8.234   6.857   2.776
  129PPPE    HA49975   8.248   6.961   2.812
  129PPPE    HB49976   8.324   6.832   2.715
  129PPPE    C249977   8.237   6.765   2.905
  129PPPE    HS49978   8.292   6.674   2.873
  129PPPE   O2149979   8.104   6.735   2.953
  129PPPE   C2149980   8.103   6.621   3.023
  129PPPE   O2249981   8.147   6.516   2.978
  129PPPE   C2249982   8.033   6.638   3.155
  129PPPE   H2R49983   7.930   6.596   3.148
  129PPPE   H2S49984   8.023   6.747   3.176
  129PPPE    C349985   8.315   6.830   3.024
  129PPPE    HX49986   8.371   6.746   3.071
  129PPPE    HY49987   8.391   6.900   2.983
  129PPPE   O3149988   8.227   6.899   3.117
  129PPPE   C3149989   8.255   6.881   3.247
  129PPPE   O3249990   8.348   6.815   3.290
  129PPPE   C3249991   8.155   6.950   3.342
  129PPPE   H2X49992   8.201   7.048   3.368
  129PPPE   H2Y49993   8.154   6.890   3.436
  129PPPE   C2349994   8.112   6.568   3.268
  129PPPE   H3R49995   8.215   6.610   3.273
  129PPPE   H3S49996   8.123   6.460   3.247
  129PPPE   C2449997   8.048   6.583   3.407
  129PPPE   H4R49998   7.957   6.520   3.411
  129PPPE   H4S49999   8.019   6.688   3.426
  129PPPE   C2550000   8.146   6.538   3.517
  129PPPE   H5R50001   8.232   6.608   3.521
  129PPPE   H5S50002   8.185   6.438   3.490
  129PPPE   C2650003   8.084   6.527   3.657
  129PPPE   H6R50004   8.118   6.433   3.705
  129PPPE   H6S50005   7.973   6.518   3.645
  129PPPE   C2750006   8.117   6.644   3.750
  129PPPE   H7R50007   8.042   6.643   3.832
  129PPPE   H7S50008   8.107   6.742   3.698
  129PPPE   C2850009   8.249   6.631   3.828
  129PPPE   H8R50010   8.287   6.527   3.814
  129PPPE   H8S50011   8.227   6.639   3.936
  129PPPE   C2950012   8.355   6.731   3.790
  129PPPE   H9150013   8.427   6.697   3.714
  129PPPE  C21050014   8.366   6.853   3.844
  129PPPE  H10150015   8.448   6.919   3.809
  129PPPE  C21150016   8.276   6.913   3.948
  129PPPE  H11R50017   8.175   6.865   3.946
  129PPPE  H11S50018   8.258   7.020   3.924
  129PPPE  C21250019   8.328   6.905   4.094
  129PPPE  H12R50020   8.427   6.854   4.098
  129PPPE  H12S50021   8.259   6.842   4.155
  129PPPE  C21350022   8.340   7.043   4.160
  129PPPE  H13R50023   8.242   7.095   4.155
  129PPPE  H13S50024   8.413   7.101   4.101
  129PPPE  C21450025   8.387   7.047   4.306
  129PPPE  H14R50026   8.431   7.147   4.327
  129PPPE  H14S50027   8.468   6.973   4.323
  129PPPE  C21550028   8.277   7.024   4.410
  129PPPE  H15R50029   8.241   6.920   4.398
  129PPPE  H15S50030   8.192   7.092   4.388
  129PPPE  C21650031   8.325   7.044   4.554
  129PPPE  H16R50032   8.426   6.999   4.568
  129PPPE  H16S50033   8.330   7.152   4.578
  129PPPE  H16T50034   8.256   6.995   4.625
  129PPPE   C3350035   8.010   6.977   3.295
  129PPPE   H3X50036   7.948   6.888   3.318
  129PPPE   H3Y50037   8.007   6.993   3.186
  129PPPE   C3450038   7.945   7.100   3.362
  129PPPE   H4X50039   7.835   7.095   3.348
  129PPPE   H4Y50040   7.980   7.192   3.311
  129PPPE   C3550041   7.975   7.119   3.513
  129PPPE   H5X50042   7.922   7.210   3.549
  129PPPE   H5Y50043   8.083   7.137   3.528
  129PPPE   C3650044   7.932   7.000   3.601
  129PPPE   H6X50045   7.973   6.907   3.557
  129PPPE   H6Y50046   7.821   6.990   3.599
  129PPPE   C3750047   7.983   7.008   3.745
  129PPPE   H7X50048   8.089   7.040   3.748
  129PPPE   H7Y50049   7.979   6.905   3.786
  129PPPE   C3850050   7.898   7.096   3.839
  129PPPE   H8X50051   7.796   7.106   3.799
  129PPPE   H8Y50052   7.942   7.198   3.846
  129PPPE   C3950053   7.889   7.032   3.979
  129PPPE   H9X50054   7.991   7.019   4.023
  129PPPE   H9Y50055   7.846   6.930   3.965
  129PPPE  C31050056   7.801   7.108   4.079
  129PPPE  H10X50057   7.759   7.198   4.030
  129PPPE  H10Y50058   7.863   7.142   4.164
  129PPPE  C31150059   7.684   7.023   4.134
  129PPPE  H11X50060   7.618   6.994   4.050
  129PPPE  H11Y50061   7.625   7.085   4.204
  129PPPE  C31250062   7.729   6.896   4.209
  129PPPE  H12X50063   7.793   6.927   4.294
  129PPPE  H12Y50064   7.792   6.834   4.142
  129PPPE  C31350065   7.612   6.810   4.255
  129PPPE  H13X50066   7.578   6.745   4.171
  129PPPE  H13Y50067   7.529   6.879   4.280
  129PPPE  C31450068   7.633   6.722   4.381
  129PPPE  H14X50069   7.535   6.679   4.410
  129PPPE  H14Y50070   7.660   6.789   4.466
  129PPPE  C31550071   7.729   6.602   4.375
  129PPPE  H15X50072   7.767   6.584   4.478
  129PPPE  H15Y50073   7.815   6.635   4.313
  129PPPE  C31650074   7.678   6.468   4.323
  129PPPE  H16X50075   7.620   6.479   4.229
  129PPPE  H16Y50076   7.764   6.400   4.304
  129PPPE  H16Z50077   7.615   6.418   4.400
  130PPPE     N50078   0.185   1.722   2.572
  130PPPE   HN150079   0.240   1.753   2.489
  130PPPE   HN250080   0.085   1.710   2.546
  130PPPE   HN350081   0.183   1.792   2.648
  130PPPE   C1250082   0.239   1.591   2.620
  130PPPE  H12A50083   0.176   1.559   2.707
  130PPPE  H12B50084   0.344   1.605   2.654
  130PPPE   C1150085   0.233   1.489   2.506
  130PPPE  H11A50086   0.293   1.525   2.419
  130PPPE  H11B50087   0.129   1.479   2.469
  130PPPE     P50088   0.202   1.267   2.638
  130PPPE   O1350089   0.062   1.281   2.593
  130PPPE   O1450090   0.269   1.136   2.628
  130PPPE   O1150091   0.223   1.335   2.779
  130PPPE   O1250092   0.287   1.365   2.547
  130PPPE    C150093   0.354   1.350   2.837
  130PPPE    HA50094   0.354   1.440   2.903
  130PPPE    HB50095   0.433   1.365   2.760
  130PPPE    C250096   0.392   1.230   2.926
  130PPPE    HS50097   0.391   1.139   2.861
  130PPPE   O2150098   0.302   1.222   3.037
  130PPPE   C2150099   0.237   1.108   3.052
  130PPPE   O2250100   0.229   1.018   2.971
  130PPPE   C2250101   0.176   1.107   3.193
  130PPPE   H2R50102   0.258   1.131   3.263
  130PPPE   H2S50103   0.140   1.004   3.214
  130PPPE    C350104   0.537   1.243   2.983
  130PPPE    HX50105   0.567   1.145   3.024
  130PPPE    HY50106   0.605   1.264   2.898
  130PPPE   O3150107   0.549   1.351   3.079
  130PPPE   C3150108   0.533   1.310   3.207
  130PPPE   O3250109   0.516   1.196   3.242
  130PPPE   C3250110   0.539   1.431   3.299
  130PPPE   H2X50111   0.448   1.492   3.280
  130PPPE   H2Y50112   0.629   1.490   3.273
  130PPPE   C2350113   0.061   1.210   3.208
  130PPPE   H3R50114  -0.029   1.170   3.155
  130PPPE   H3S50115   0.087   1.307   3.162
  130PPPE   C2450116   0.025   1.235   3.355
  130PPPE   H4R50117   0.023   1.138   3.410
  130PPPE   H4S50118  -0.076   1.280   3.360
  130PPPE   C2550119   0.121   1.331   3.426
  130PPPE   H5R50120   0.101   1.434   3.391
  130PPPE   H5S50121   0.226   1.306   3.400
  130PPPE   C2650122   0.108   1.325   3.579
  130PPPE   H6R50123   0.147   1.227   3.613
  130PPPE   H6S50124   0.002   1.331   3.610
  130PPPE   C2750125   0.188   1.437   3.649
  130PPPE   H7R50126   0.127   1.529   3.657
  130PPPE   H7S50127   0.275   1.460   3.584
  130PPPE   C2850128   0.244   1.399   3.787
  130PPPE   H8R50129   0.304   1.486   3.819
  130PPPE   H8S50130   0.314   1.314   3.774
  130PPPE   C2950131   0.141   1.372   3.894
  130PPPE   H9150132   0.078   1.458   3.920
  130PPPE  C21050133   0.124   1.256   3.962
  130PPPE  H10150134   0.048   1.253   4.040
  130PPPE  C21150135   0.202   1.128   3.945
  130PPPE  H11R50136   0.236   1.117   3.840
  130PPPE  H11S50137   0.135   1.041   3.965
  130PPPE  C21250138   0.326   1.114   4.035
  130PPPE  H12R50139   0.400   1.192   4.005
  130PPPE  H12S50140   0.374   1.016   4.016
  130PPPE  C21350141   0.301   1.124   4.188
  130PPPE  H13R50142   0.233   1.043   4.220
  130PPPE  H13S50143   0.252   1.221   4.210
  130PPPE  C21450144   0.433   1.118   4.266
  130PPPE  H14R50145   0.503   1.195   4.228
  130PPPE  H14S50146   0.476   1.019   4.240
  130PPPE  C21550147   0.429   1.122   4.418
  130PPPE  H15R50148   0.533   1.109   4.455
  130PPPE  H15S50149   0.372   1.034   4.455
  130PPPE  C21650150   0.373   1.250   4.480
  130PPPE  H16R50151   0.427   1.340   4.443
  130PPPE  H16S50152   0.265   1.260   4.457
  130PPPE  H16T50153   0.385   1.251   4.590
  130PPPE   C3350154   0.544   1.392   3.448
  130PPPE   H3X50155   0.636   1.334   3.469
  130PPPE   H3Y50156   0.458   1.329   3.477
  130PPPE   C3450157   0.545   1.520   3.532
  130PPPE   H4X50158   0.447   1.572   3.528
  130PPPE   H4Y50159   0.620   1.588   3.487
  130PPPE   C3550160   0.589   1.502   3.679
  130PPPE   H5X50161   0.684   1.445   3.682
  130PPPE   H5Y50162   0.513   1.443   3.733
  130PPPE   C3650163   0.612   1.640   3.742
  130PPPE   H6X50164   0.518   1.700   3.737
  130PPPE   H6Y50165   0.689   1.694   3.684
  130PPPE   C3750166   0.658   1.631   3.887
  130PPPE   H7X50167   0.702   1.727   3.922
  130PPPE   H7Y50168   0.737   1.553   3.895
  130PPPE   C3850169   0.541   1.593   3.976
  130PPPE   H8X50170   0.473   1.526   3.920
  130PPPE   H8Y50171   0.484   1.686   3.998
  130PPPE   C3950172   0.576   1.516   4.103
  130PPPE   H9X50173   0.629   1.582   4.175
  130PPPE   H9Y50174   0.644   1.433   4.076
  130PPPE  C31050175   0.451   1.455   4.168
  130PPPE  H10X50176   0.481   1.403   4.262
  130PPPE  H10Y50177   0.407   1.381   4.099
  130PPPE  C31150178   0.345   1.560   4.200
  130PPPE  H11X50179   0.325   1.617   4.106
  130PPPE  H11Y50180   0.388   1.629   4.275
  130PPPE  C31250181   0.206   1.513   4.243
  130PPPE  H12X50182   0.191   1.407   4.212
  130PPPE  H12Y50183   0.132   1.572   4.186
  130PPPE  C31350184   0.174   1.531   4.391
  130PPPE  H13X50185   0.244   1.471   4.453
  130PPPE  H13Y50186   0.071   1.494   4.410
  130PPPE  C31450187   0.180   1.675   4.443
  130PPPE  H14X50188   0.126   1.744   4.374
  130PPPE  H14Y50189   0.287   1.705   4.443
  130PPPE  C31550190   0.121   1.692   4.583
  130PPPE  H15X50191   0.015   1.662   4.580
  130PPPE  H15Y50192   0.123   1.800   4.610
  130PPPE  C31650193   0.195   1.613   4.691
  130PPPE  H16X50194   0.299   1.649   4.701
  130PPPE  H16Y50195   0.143   1.628   4.788
  130PPPE  H16Z50196   0.196   1.505   4.668
  131PPPE     N50197   1.301   8.009   2.740
  131PPPE   HN150198   1.204   8.032   2.772
  131PPPE   HN250199   1.314   7.906   2.745
  131PPPE   HN350200   1.368   8.054   2.806
  131PPPE   C1250201   1.316   8.066   2.601
  131PPPE  H12A50202   1.302   7.983   2.529
  131PPPE  H12B50203   1.420   8.105   2.591
  131PPPE   C1150204   1.216   8.178   2.571
  131PPPE  H11A50205   1.250   8.232   2.481
  131PPPE  H11B50206   1.213   8.253   2.653
  131PPPE     P50207   0.965   8.137   2.638
  131PPPE   O1350208   0.917   8.277   2.623
  131PPPE   O1450209   0.872   8.026   2.610
  131PPPE   O1150210   1.040   8.114   2.777
  131PPPE   O1250211   1.089   8.119   2.541
  131PPPE    C150212   1.017   7.995   2.853
  131PPPE    HA50213   1.106   7.972   2.917
  131PPPE    HB50214   1.001   7.906   2.788
  131PPPE    C250215   0.898   8.006   2.952
  131PPPE    HS50216   0.816   8.060   2.900
  131PPPE   O2150217   0.944   8.076   3.070
  131PPPE   C2150218   0.843   8.122   3.145
  131PPPE   O2250219   0.728   8.133   3.106
  131PPPE   C2250220   0.890   8.154   3.287
  131PPPE   H2R50221   0.991   8.111   3.304
  131PPPE   H2S50222   0.819   8.103   3.355
  131PPPE    C350223   0.850   7.863   2.990
  131PPPE    HX50224   0.765   7.866   3.062
  131PPPE    HY50225   0.809   7.816   2.898
  131PPPE   O3150226   0.961   7.784   3.035
  131PPPE   C3150227   0.985   7.792   3.167
  131PPPE   O3250228   0.907   7.838   3.249
  131PPPE   C3250229   1.124   7.741   3.195
  131PPPE   H2X50230   1.195   7.827   3.190
  131PPPE   H2Y50231   1.155   7.671   3.115
  131PPPE   C2350232   0.887   8.306   3.316
  131PPPE   H3R50233   0.798   8.350   3.266
  131PPPE   H3S50234   0.978   8.355   3.274
  131PPPE   C2450235   0.874   8.338   3.466
  131PPPE   H4R50236   0.785   8.286   3.506
  131PPPE   H4S50237   0.857   8.448   3.476
  131PPPE   C2550238   0.997   8.304   3.550
  131PPPE   H5R50239   1.084   8.360   3.509
  131PPPE   H5S50240   1.020   8.196   3.543
  131PPPE   C2650241   0.984   8.345   3.698
  131PPPE   H6R50242   0.965   8.454   3.703
  131PPPE   H6S50243   1.081   8.326   3.749
  131PPPE   C2750244   0.873   8.270   3.773
  131PPPE   H7R50245   0.878   8.162   3.750
  131PPPE   H7S50246   0.775   8.306   3.736
  131PPPE   C2850247   0.878   8.293   3.926
  131PPPE   H8R50248   0.778   8.268   3.969
  131PPPE   H8S50249   0.897   8.400   3.946
  131PPPE   C2950250   0.982   8.204   3.988
  131PPPE   H9150251   0.974   8.099   3.955
  131PPPE  C21050252   1.080   8.237   4.073
  131PPPE  H10150253   1.150   8.159   4.108
  131PPPE  C21150254   1.113   8.372   4.129
  131PPPE  H11R50255   1.022   8.436   4.129
  131PPPE  H11S50256   1.191   8.422   4.068
  131PPPE  C21250257   1.163   8.363   4.274
  131PPPE  H12R50258   1.212   8.458   4.301
  131PPPE  H12S50259   1.239   8.283   4.285
  131PPPE  C21350260   1.048   8.339   4.372
  131PPPE  H13R50261   0.990   8.250   4.340
  131PPPE  H13S50262   0.979   8.426   4.370
  131PPPE  C21450263   1.096   8.316   4.516
  131PPPE  H14R50264   1.149   8.406   4.554
  131PPPE  H14S50265   1.169   8.233   4.516
  131PPPE  C21550266   0.981   8.281   4.610
  131PPPE  H15R50267   1.024   8.247   4.707
  131PPPE  H15S50268   0.925   8.195   4.568
  131PPPE  C21650269   0.884   8.397   4.637
  131PPPE  H16R50270   0.804   8.365   4.708
  131PPPE  H16S50271   0.938   8.483   4.682
  131PPPE  H16T50272   0.836   8.431   4.543
  131PPPE   C3350273   1.136   7.670   3.332
  131PPPE   H3X50274   1.214   7.592   3.323
  131PPPE   H3Y50275   1.043   7.615   3.360
  131PPPE   C3450276   1.177   7.767   3.443
  131PPPE   H4X50277   1.093   7.786   3.513
  131PPPE   H4Y50278   1.201   7.865   3.396
  131PPPE   C3550279   1.303   7.722   3.519
  131PPPE   H5X50280   1.361   7.810   3.552
  131PPPE   H5Y50281   1.369   7.666   3.450
  131PPPE   C3650282   1.273   7.636   3.642
  131PPPE   H6X50283   1.342   7.549   3.639
  131PPPE   H6Y50284   1.169   7.596   3.639
  131PPPE   C3750285   1.299   7.710   3.773
  131PPPE   H7X50286   1.393   7.769   3.767
  131PPPE   H7Y50287   1.317   7.632   3.851
  131PPPE   C3850288   1.184   7.800   3.823
  131PPPE   H8X50289   1.091   7.781   3.764
  131PPPE   H8Y50290   1.211   7.907   3.808
  131PPPE   C3950291   1.156   7.771   3.971
  131PPPE   H9X50292   1.251   7.737   4.016
  131PPPE   H9Y50293   1.082   7.689   3.976
  131PPPE  C31050294   1.110   7.888   4.058
  131PPPE  H10X50295   1.005   7.915   4.033
  131PPPE  H10Y50296   1.177   7.974   4.037
  131PPPE  C31150297   1.118   7.853   4.208
  131PPPE  H11X50298   1.220   7.815   4.230
  131PPPE  H11Y50299   1.046   7.771   4.228
  131PPPE  C31250300   1.091   7.969   4.306
  131PPPE  H12X50301   0.991   8.013   4.285
  131PPPE  H12Y50302   1.166   8.048   4.288
  131PPPE  C31350303   1.099   7.929   4.454
  131PPPE  H13X50304   1.089   8.021   4.516
  131PPPE  H13Y50305   1.199   7.887   4.474
  131PPPE  C31450306   0.992   7.830   4.502
  131PPPE  H14X50307   0.999   7.735   4.444
  131PPPE  H14Y50308   0.890   7.871   4.483
  131PPPE  C31550309   1.004   7.797   4.651
  131PPPE  H15X50310   0.970   7.885   4.710
  131PPPE  H15Y50311   1.112   7.781   4.676
  131PPPE  C31650312   0.926   7.672   4.693
  131PPPE  H16X50313   0.934   7.657   4.804
  131PPPE  H16Y50314   0.818   7.682   4.667
  131PPPE  H16Z50315   0.966   7.582   4.642
  132PVCL2   C350316   5.667   2.647   2.430
  132PVCL2 HG3150317   5.703   2.702   2.340
  132PVCL2 HG3250318   5.591   2.575   2.394
  132PVCL2   P350319   5.518   2.702   2.639
  132PVCL2 OP3350320   5.570   2.579   2.702
  132PVCL2 OP3450321   5.378   2.698   2.590
  132PVCL2 OP3150322   5.611   2.743   2.519
  132PVCL2 OP3250323   5.535   2.828   2.734
  132PVCL2  C3150324   5.539   2.961   2.678
  132PVCL2 H31J50325   5.644   2.997   2.678
  132PVCL2 H31K50326   5.504   2.963   2.573
  132PVCL2   C250327   5.790   2.575   2.491
  132PVCL2 HG2250328   5.827   2.633   2.577
  132PVCL2 OG1250329   5.748   2.446   2.537
  132PVCL2 HO1250330   5.679   2.470   2.599
  132PVCL2   C150331   5.906   2.559   2.389
  132PVCL2 HG1150332   5.862   2.523   2.293
  132PVCL2 HG1250333   5.975   2.480   2.425
  132PVCL2   P150334   6.121   2.714   2.409
  132PVCL2 OP1350335   6.203   2.686   2.288
  132PVCL2 OP1450336   6.133   2.851   2.461
  132PVCL2 OP1150337   5.971   2.685   2.368
  132PVCL2 OP1250338   6.160   2.608   2.521
  132PVCL2  C1150339   6.124   2.628   2.658
  132PVCL2 H11J50340   6.041   2.700   2.671
  132PVCL2 H11K50341   6.211   2.670   2.714
  132PVCL2  C1250342   6.081   2.494   2.723
  132PVCL2 H12J50343   6.076   2.419   2.641
  132PVCL2  O1250344   5.952   2.510   2.784
  132PVCL2  CA150345   5.894   2.396   2.818
  132PVCL2  OA150346   5.928   2.286   2.778
  132PVCL2  CA250347   5.783   2.423   2.918
  132PVCL2  H2A50348   5.713   2.336   2.917
  132PVCL2  H2B50349   5.728   2.513   2.884
  132PVCL2  C1350350   6.183   2.444   2.830
  132PVCL2 H13J50351   6.282   2.446   2.781
  132PVCL2 H13K50352   6.160   2.339   2.859
  132PVCL2  O1350353   6.179   2.528   2.947
  132PVCL2  CB150354   6.293   2.545   3.012
  132PVCL2  OB150355   6.400   2.495   2.979
  132PVCL2  CB250356   6.268   2.642   3.127
  132PVCL2  H2D50357   6.365   2.679   3.165
  132PVCL2  H2E50358   6.216   2.587   3.209
  132PVCL2  C3250359   5.447   3.061   2.755
  132PVCL2 H32J50360   5.393   3.122   2.679
  132PVCL2  O3250361   5.522   3.148   2.843
  132PVCL2  CC150362   5.598   3.237   2.781
  132PVCL2  OC150363   5.590   3.265   2.662
  132PVCL2  CC250364   5.693   3.307   2.879
  132PVCL2  H2R50365   5.650   3.407   2.900
  132PVCL2  H2S50366   5.790   3.323   2.828
  132PVCL2  C3350367   5.337   2.987   2.837
  132PVCL2 H33J50368   5.253   3.057   2.858
  132PVCL2 H33K50369   5.296   2.906   2.772
  132PVCL2  O3350370   5.388   2.926   2.957
  132PVCL2  CD150371   5.372   2.992   3.070
  132PVCL2  OD150372   5.314   3.099   3.083
  132PVCL2  CD250373   5.424   2.901   3.182
  132PVCL2  H2X50374   5.533   2.887   3.168
  132PVCL2  H2Y50375   5.382   2.799   3.165
  132PVCL2  CA350376   5.837   2.446   3.061
  132PVCL2  H3A50377   5.911   2.529   3.059
  132PVCL2  H3B50378   5.889   2.356   3.099
  132PVCL2  CA450379   5.724   2.484   3.158
  132PVCL2  H4A50380   5.649   2.402   3.161
  132PVCL2  H4B50381   5.672   2.574   3.118
  132PVCL2  CA550382   5.770   2.514   3.302
  132PVCL2  H5A50383   5.816   2.424   3.347
  132PVCL2  H5B50384   5.680   2.540   3.362
  132PVCL2  CA650385   5.869   2.631   3.311
  132PVCL2  H6A50386   5.834   2.711   3.240
  132PVCL2  H6B50387   5.969   2.597   3.274
  132PVCL2  CA750388   5.883   2.694   3.450
  132PVCL2  H7A50389   5.785   2.736   3.480
  132PVCL2  H7B50390   5.953   2.779   3.443
  132PVCL2  CA850391   5.933   2.600   3.559
  132PVCL2  H8A50392   5.857   2.522   3.582
  132PVCL2  H8B50393   5.946   2.661   3.651
  132PVCL2  CA950394   6.067   2.532   3.526
  132PVCL2  H9A50395   6.129   2.604   3.470
  132PVCL2  H9B50396   6.048   2.444   3.459
  132PVCL2 CA1050397   6.147   2.488   3.650
  132PVCL2 H10A50398   6.178   2.581   3.703
  132PVCL2 H10B50399   6.241   2.440   3.617
  132PVCL2 CA1150400   6.073   2.396   3.745
  132PVCL2 H11A50401   6.056   2.294   3.707
  132PVCL2 CA1250402   6.027   2.428   3.866
  132PVCL2 H12A50403   5.979   2.351   3.929
  132PVCL2 CA1350404   6.040   2.563   3.931
  132PVCL2 H13A50405   6.011   2.641   3.858
  132PVCL2 H13B50406   6.146   2.583   3.958
  132PVCL2 CA1450407   5.953   2.587   4.056
  132PVCL2 H14A50408   5.854   2.537   4.046
  132PVCL2 H14B50409   5.933   2.696   4.061
  132PVCL2 CA1550410   6.021   2.546   4.188
  132PVCL2 H15A50411   6.120   2.596   4.193
  132PVCL2 H15B50412   6.038   2.437   4.189
  132PVCL2 CA1650413   5.942   2.588   4.313
  132PVCL2 H16A50414   6.000   2.557   4.403
  132PVCL2 H16B50415   5.845   2.535   4.316
  132PVCL2 CA1750416   5.917   2.739   4.321
  132PVCL2 H17A50417   5.844   2.769   4.243
  132PVCL2 H17B50418   6.012   2.793   4.300
  132PVCL2 CA1850419   5.864   2.784   4.457
  132PVCL2 H18A50420   5.942   2.771   4.536
  132PVCL2 H18B50421   5.776   2.723   4.486
  132PVCL2 H18C50422   5.834   2.891   4.455
  132PVCL2  CB350423   6.180   2.763   3.083
  132PVCL2  H3D50424   6.086   2.727   3.036
  132PVCL2  H3E50425   6.235   2.822   3.007
  132PVCL2  CB450426   6.139   2.857   3.197
  132PVCL2  H4D50427   6.056   2.810   3.255
  132PVCL2  H4E50428   6.098   2.950   3.153
  132PVCL2  CB550429   6.250   2.894   3.296
  132PVCL2  H5D50430   6.338   2.930   3.240
  132PVCL2  H5E50431   6.280   2.805   3.356
  132PVCL2  CB650432   6.207   3.007   3.389
  132PVCL2  H6D50433   6.118   2.974   3.448
  132PVCL2  H6E50434   6.173   3.092   3.326
  132PVCL2  CB750435   6.318   3.057   3.483
  132PVCL2  H7D50436   6.281   3.148   3.535
  132PVCL2  H7E50437   6.406   3.087   3.424
  132PVCL2  CB850438   6.360   2.955   3.590
  132PVCL2  H8D50439   6.430   3.005   3.661
  132PVCL2  H8E50440   6.414   2.871   3.543
  132PVCL2  CB950441   6.239   2.902   3.668
  132PVCL2  H9D50442   6.178   2.839   3.601
  132PVCL2  H9E50443   6.177   2.989   3.698
  132PVCL2 CB1050444   6.274   2.818   3.792
  132PVCL2 H10D50445   6.344   2.736   3.762
  132PVCL2 H10E50446   6.179   2.771   3.825
  132PVCL2 CB1150447   6.330   2.897   3.910
  132PVCL2 H11D50448   6.268   2.988   3.925
  132PVCL2 H11E50449   6.433   2.930   3.888
  132PVCL2 CB1250450   6.328   2.814   4.040
  132PVCL2 H12D50451   6.227   2.770   4.054
  132PVCL2 H12E50452   6.345   2.883   4.127
  132PVCL2 CB1350453   6.433   2.703   4.040
  132PVCL2 H13D50454   6.533   2.753   4.042
  132PVCL2 H13E50455   6.424   2.645   3.946
  132PVCL2 CB1450456   6.429   2.605   4.158
  132PVCL2 H14D50457   6.508   2.528   4.144
  132PVCL2 H14E50458   6.331   2.553   4.155
  132PVCL2 CB1550459   6.448   2.669   4.296
  132PVCL2 H15D50460   6.414   2.596   4.372
  132PVCL2 H15E50461   6.383   2.759   4.306
  132PVCL2 CB1650462   6.593   2.707   4.330
  132PVCL2 H16D50463   6.598   2.750   4.432
  132PVCL2 H16E50464   6.633   2.782   4.259
  132PVCL2 H16F50465   6.659   2.617   4.326
  132PVCL2  CC350466   5.716   3.231   3.013
  132PVCL2  H3R50467   5.620   3.190   3.050
  132PVCL2  H3S50468   5.751   3.303   3.090
  132PVCL2  CC450469   5.821   3.119   3.002
  132PVCL2  H4R50470   5.919   3.158   3.036
  132PVCL2  H4S50471   5.832   3.090   2.896
  132PVCL2  CC550472   5.786   2.991   3.080
  132PVCL2  H5R50473   5.873   2.922   3.078
  132PVCL2  H5S50474   5.704   2.941   3.025
  132PVCL2  CC650475   5.740   3.011   3.226
  132PVCL2  H6R50476   5.709   2.911   3.266
  132PVCL2  H6S50477   5.651   3.077   3.230
  132PVCL2  CC750478   5.845   3.062   3.325
  132PVCL2  H7R50479   5.887   3.159   3.292
  132PVCL2  H7S50480   5.927   2.988   3.328
  132PVCL2  CC850481   5.786   3.077   3.465
  132PVCL2  H8R50482   5.710   2.998   3.485
  132PVCL2  H8S50483   5.734   3.175   3.472
  132PVCL2  CC950484   5.895   3.067   3.572
  132PVCL2  H9R50485   5.986   3.114   3.528
  132PVCL2  H9S50486   5.920   2.961   3.594
  132PVCL2 CC1050487   5.867   3.145   3.701
  132PVCL2 H10R50488   5.824   3.244   3.676
  132PVCL2 H10S50489   5.968   3.165   3.743
  132PVCL2 CC1150490   5.785   3.076   3.806
  132PVCL2 H11R50491   5.677   3.096   3.804
  132PVCL2 CC1250492   5.835   2.999   3.905
  132PVCL2 H12R50493   5.768   2.965   3.985
  132PVCL2 CC1350494   5.979   2.964   3.931
  132PVCL2 H13R50495   6.048   3.007   3.855
  132PVCL2 H13S50496   5.990   2.853   3.925
  132PVCL2 CC1450497   6.024   3.011   4.070
  132PVCL2 H14R50498   6.109   2.950   4.106
  132PVCL2 H14S50499   5.942   2.996   4.143
  132PVCL2 CC1550500   6.068   3.158   4.069
  132PVCL2 H15R50501   6.000   3.214   4.002
  132PVCL2 H15S50502   6.171   3.169   4.030
  132PVCL2 CC1650503   6.056   3.220   4.208
  132PVCL2 H16R50504   5.952   3.196   4.241
  132PVCL2 H16S50505   6.065   3.331   4.202
  132PVCL2 CC1750506   6.149   3.165   4.315
  132PVCL2 H17R50507   6.203   3.251   4.360
  132PVCL2 H17S50508   6.224   3.098   4.268
  132PVCL2 CC1850509   6.076   3.090   4.427
  132PVCL2 H18R50510   6.148   3.053   4.503
  132PVCL2 H18S50511   6.021   3.003   4.385
  132PVCL2 H18T50512   6.003   3.157   4.478
  132PVCL2  CD350513   5.388   2.941   3.328
  132PVCL2  H3X50514   5.311   3.021   3.328
  132PVCL2  H3Y50515   5.478   2.982   3.379
  132PVCL2  CD450516   5.331   2.823   3.408
  132PVCL2  H4X50517   5.247   2.779   3.351
  132PVCL2  H4Y50518   5.290   2.859   3.505
  132PVCL2  CD550519   5.430   2.708   3.436
  132PVCL2  H5X50520   5.492   2.690   3.345
  132PVCL2  H5Y50521   5.371   2.615   3.452
  132PVCL2  CD650522   5.519   2.729   3.558
  132PVCL2  H6X50523   5.575   2.824   3.546
  132PVCL2  H6Y50524   5.594   2.647   3.561
  132PVCL2  CD750525   5.444   2.728   3.693
  132PVCL2  H7X50526   5.486   2.647   3.755
  132PVCL2  H7Y50527   5.336   2.706   3.677
  132PVCL2  CD850528   5.458   2.861   3.769
  132PVCL2  H8X50529   5.401   2.941   3.719
  132PVCL2  H8Y50530   5.566   2.890   3.766
  132PVCL2  CD950531   5.417   2.851   3.917
  132PVCL2  H9X50532   5.384   2.747   3.938
  132PVCL2  H9Y50533   5.332   2.919   3.938
  132PVCL2 CD1050534   5.534   2.884   4.010
  132PVCL2 H10X50535   5.557   2.993   4.006
  132PVCL2 H10Y50536   5.621   2.827   3.971
  132PVCL2 CD1150537   5.518   2.840   4.156
  132PVCL2 H11X50538   5.619   2.828   4.201
  132PVCL2 H11Y50539   5.469   2.741   4.158
  132PVCL2 CD1250540   5.440   2.939   4.245
  132PVCL2 H12X50541   5.354   2.979   4.188
  132PVCL2 H12Y50542   5.505   3.024   4.274
  132PVCL2 CD1350543   5.385   2.869   4.372
  132PVCL2 H13X50544   5.324   2.784   4.334
  132PVCL2 H13Y50545   5.318   2.939   4.426
  132PVCL2 CD1450546   5.490   2.810   4.466
  132PVCL2 H14X50547   5.571   2.762   4.408
  132PVCL2 H14Y50548   5.442   2.730   4.528
  132PVCL2 CD1550549   5.549   2.912   4.565
  132PVCL2 H15X50550   5.584   3.001   4.509
  132PVCL2 H15Y50551   5.638   2.866   4.613
  132PVCL2 CD1650552   5.453   2.953   4.676
  132PVCL2 H16X50553   5.412   2.864   4.728
  132PVCL2 H16Y50554   5.367   3.011   4.635
  132PVCL2 H16Z50555   5.505   3.016   4.752
  133PVCL2   C350556   3.226   7.033   2.508
  133PVCL2 HG3150557   3.193   6.998   2.608
  133PVCL2 HG3250558   3.140   7.083   2.460
  133PVCL2   P350559   3.168   6.838   2.345
  133PVCL2 OP3350560   3.216   6.699   2.324
  133PVCL2 OP3450561   3.142   6.918   2.223
  133PVCL2 OP3150562   3.273   6.922   2.429
  133PVCL2 OP3250563   3.037   6.840   2.433
  133PVCL2  C3150564   3.028   6.779   2.563
  133PVCL2 H31J50565   3.013   6.670   2.552
  133PVCL2 H31K50566   3.120   6.795   2.623
  133PVCL2   C250567   3.336   7.140   2.530
  133PVCL2 HG2250568   3.390   7.157   2.434
  133PVCL2 OG1250569   3.273   7.261   2.570
  133PVCL2 HO1250570   3.249   7.241   2.661
  133PVCL2   C150571   3.439   7.101   2.639
  133PVCL2 HG1150572   3.381   7.076   2.730
  133PVCL2 HG1250573   3.502   7.190   2.663
  133PVCL2   P150574   3.571   6.887   2.704
  133PVCL2 OP1350575   3.455   6.807   2.746
  133PVCL2 OP1450576   3.690   6.817   2.650
  133PVCL2 OP1150577   3.525   6.995   2.595
  133PVCL2 OP1250578   3.616   6.981   2.824
  133PVCL2  C1150579   3.755   6.997   2.851
  133PVCL2 H11J50580   3.809   7.032   2.760
  133PVCL2 H11K50581   3.798   6.899   2.881
  133PVCL2  C1250582   3.784   7.099   2.966
  133PVCL2 H12J50583   3.893   7.097   2.987
  133PVCL2  O1250584   3.709   7.066   3.085
  133PVCL2  CA150585   3.759   6.962   3.151
  133PVCL2  OA150586   3.868   6.912   3.128
  133PVCL2  CA250587   3.664   6.924   3.266
  133PVCL2  H2A50588   3.564   6.901   3.222
  133PVCL2  H2B50589   3.654   7.012   3.332
  133PVCL2  C1350590   3.753   7.245   2.922
  133PVCL2 H13J50591   3.815   7.265   2.832
  133PVCL2 H13K50592   3.791   7.314   3.002
  133PVCL2  O1350593   3.615   7.268   2.887
  133PVCL2  CB150594   3.540   7.320   2.984
  133PVCL2  OB150595   3.582   7.364   3.090
  133PVCL2  CB250596   3.394   7.323   2.938
  133PVCL2  H2D50597   3.360   7.217   2.934
  133PVCL2  H2E50598   3.391   7.365   2.835
  133PVCL2  C3250599   2.907   6.837   2.643
  133PVCL2 H32J50600   2.815   6.807   2.589
  133PVCL2  O3250601   2.920   6.979   2.657
  133PVCL2  CC150602   2.845   7.050   2.577
  133PVCL2  OC150603   2.777   7.009   2.484
  133PVCL2  CC250604   2.856   7.198   2.615
  133PVCL2  H2R50605   2.891   7.248   2.522
  133PVCL2  H2S50606   2.933   7.210   2.694
  133PVCL2  C3350607   2.896   6.776   2.786
  133PVCL2 H33J50608   2.810   6.823   2.838
  133PVCL2 H33K50609   2.868   6.669   2.772
  133PVCL2  O3350610   3.018   6.781   2.863
  133PVCL2  CD150611   3.030   6.880   2.950
  133PVCL2  OD150612   2.956   6.977   2.960
  133PVCL2  CD250613   3.150   6.853   3.042
  133PVCL2  H2X50614   3.215   6.779   2.991
  133PVCL2  H2Y50615   3.112   6.808   3.137
  133PVCL2  CA350616   3.716   6.802   3.346
  133PVCL2  H3A50617   3.823   6.817   3.372
  133PVCL2  H3B50618   3.707   6.711   3.285
  133PVCL2  CA450619   3.643   6.778   3.479
  133PVCL2  H4A50620   3.650   6.868   3.544
  133PVCL2  H4B50621   3.694   6.695   3.533
  133PVCL2  CA550622   3.495   6.739   3.462
  133PVCL2  H5A50623   3.486   6.654   3.391
  133PVCL2  H5B50624   3.439   6.825   3.419
  133PVCL2  CA650625   3.431   6.698   3.596
  133PVCL2  H6A50626   3.462   6.767   3.677
  133PVCL2  H6B50627   3.471   6.597   3.623
  133PVCL2  CA750628   3.278   6.695   3.589
  133PVCL2  H7A50629   3.250   6.696   3.481
  133PVCL2  H7B50630   3.235   6.786   3.634
  133PVCL2  CA850631   3.217   6.570   3.655
  133PVCL2  H8A50632   3.296   6.517   3.712
  133PVCL2  H8B50633   3.181   6.503   3.573
  133PVCL2  CA950634   3.099   6.594   3.748
  133PVCL2  H9A50635   3.031   6.506   3.748
  133PVCL2  H9B50636   3.040   6.681   3.712
  133PVCL2 CA1050637   3.141   6.619   3.894
  133PVCL2 H10A50638   3.051   6.664   3.941
  133PVCL2 H10B50639   3.221   6.696   3.896
  133PVCL2 CA1150640   3.179   6.499   3.977
  133PVCL2 H11A50641   3.286   6.473   3.976
  133PVCL2 CA1250642   3.094   6.425   4.052
  133PVCL2 H12A50643   3.133   6.342   4.111
  133PVCL2 CA1350644   2.945   6.446   4.068
  133PVCL2 H13A50645   2.892   6.352   4.044
  133PVCL2 H13B50646   2.906   6.521   3.995
  133PVCL2 CA1450647   2.906   6.486   4.212
  133PVCL2 H14A50648   2.987   6.544   4.259
  133PVCL2 H14B50649   2.893   6.393   4.270
  133PVCL2 CA1550650   2.779   6.573   4.219
  133PVCL2 H15A50651   2.746   6.578   4.325
  133PVCL2 H15B50652   2.696   6.528   4.158
  133PVCL2 CA1650653   2.810   6.714   4.169
  133PVCL2 H16A50654   2.828   6.708   4.061
  133PVCL2 H16B50655   2.904   6.744   4.220
  133PVCL2 CA1750656   2.709   6.825   4.198
  133PVCL2 H17A50657   2.757   6.922   4.171
  133PVCL2 H17B50658   2.693   6.827   4.308
  133PVCL2 CA1850659   2.575   6.817   4.125
  133PVCL2 H18A50660   2.589   6.802   4.016
  133PVCL2 H18B50661   2.516   6.910   4.141
  133PVCL2 H18C50662   2.516   6.733   4.167
  133PVCL2  CB350663   3.303   7.404   3.033
  133PVCL2  H3D50664   3.331   7.511   3.030
  133PVCL2  H3E50665   3.319   7.369   3.137
  133PVCL2  CB450666   3.153   7.390   2.998
  133PVCL2  H4D50667   3.124   7.283   3.000
  133PVCL2  H4E50668   3.140   7.427   2.894
  133PVCL2  CB550669   3.061   7.469   3.094
  133PVCL2  H5D50670   2.957   7.469   3.056
  133PVCL2  H5E50671   3.096   7.575   3.094
  133PVCL2  CB650672   3.057   7.418   3.238
  133PVCL2  H6D50673   3.161   7.396   3.273
  133PVCL2  H6E50674   3.001   7.322   3.245
  133PVCL2  CB750675   2.997   7.522   3.334
  133PVCL2  H7D50676   2.888   7.529   3.318
  133PVCL2  H7E50677   3.041   7.620   3.308
  133PVCL2  CB850678   3.024   7.501   3.485
  133PVCL2  H8D50679   3.128   7.468   3.505
  133PVCL2  H8E50680   2.957   7.421   3.524
  133PVCL2  CB950681   3.000   7.635   3.557
  133PVCL2  H9D50682   2.913   7.680   3.506
  133PVCL2  H9E50683   3.087   7.701   3.539
  133PVCL2 CB1050684   2.962   7.638   3.707
  133PVCL2 H10D50685   2.995   7.736   3.747
  133PVCL2 H10E50686   3.016   7.559   3.764
  133PVCL2 CB1150687   2.810   7.630   3.727
  133PVCL2 H11D50688   2.784   7.525   3.752
  133PVCL2 H11E50689   2.757   7.654   3.634
  133PVCL2 CB1250690   2.748   7.718   3.837
  133PVCL2 H12D50691   2.643   7.736   3.806
  133PVCL2 H12E50692   2.799   7.816   3.846
  133PVCL2 CB1350693   2.739   7.647   3.972
  133PVCL2 H13D50694   2.839   7.644   4.021
  133PVCL2 H13E50695   2.705   7.543   3.952
  133PVCL2 CB1450696   2.634   7.698   4.070
  133PVCL2 H14D50697   2.647   7.807   4.089
  133PVCL2 H14E50698   2.655   7.648   4.167
  133PVCL2 CB1550699   2.491   7.659   4.032
  133PVCL2 H15D50700   2.493   7.569   3.967
  133PVCL2 H15E50701   2.443   7.740   3.973
  133PVCL2 CB1650702   2.405   7.625   4.155
  133PVCL2 H16D50703   2.443   7.532   4.202
  133PVCL2 H16E50704   2.298   7.610   4.127
  133PVCL2 H16F50705   2.411   7.706   4.230
  133PVCL2  CC350706   2.720   7.260   2.656
  133PVCL2  H3R50707   2.634   7.205   2.613
  133PVCL2  H3S50708   2.715   7.363   2.614
  133PVCL2  CC450709   2.703   7.270   2.809
  133PVCL2  H4R50710   2.629   7.350   2.833
  133PVCL2  H4S50711   2.799   7.297   2.858
  133PVCL2  CC550712   2.651   7.141   2.873
  133PVCL2  H5R50713   2.710   7.055   2.836
  133PVCL2  H5S50714   2.545   7.125   2.844
  133PVCL2  CC650715   2.664   7.145   3.026
  133PVCL2  H6R50716   2.611   7.233   3.068
  133PVCL2  H6S50717   2.772   7.155   3.050
  133PVCL2  CC750718   2.612   7.017   3.095
  133PVCL2  H7R50719   2.636   6.929   3.032
  133PVCL2  H7S50720   2.502   7.024   3.106
  133PVCL2  CC850721   2.678   6.997   3.233
  133PVCL2  H8R50722   2.665   7.090   3.292
  133PVCL2  H8S50723   2.787   6.983   3.216
  133PVCL2  CC950724   2.623   6.880   3.314
  133PVCL2  H9R50725   2.660   6.785   3.271
  133PVCL2  H9S50726   2.512   6.880   3.306
  133PVCL2 CC1050727   2.659   6.887   3.465
  133PVCL2 H10R50728   2.628   6.791   3.512
  133PVCL2 H10S50729   2.597   6.966   3.512
  133PVCL2 CC1150730   2.806   6.912   3.493
  133PVCL2 H11R50731   2.871   6.917   3.405
  133PVCL2 CC1250732   2.861   6.925   3.615
  133PVCL2 H12R50733   2.970   6.940   3.622
  133PVCL2 CC1350734   2.789   6.917   3.747
  133PVCL2 H13R50735   2.706   6.844   3.740
  133PVCL2 H13S50736   2.739   7.014   3.767
  133PVCL2 CC1450737   2.872   6.879   3.872
  133PVCL2 H14R50738   2.888   6.769   3.866
  133PVCL2 H14S50739   2.806   6.899   3.958
  133PVCL2 CC1550740   3.008   6.946   3.900
  133PVCL2 H15R50741   3.001   7.057   3.900
  133PVCL2 H15S50742   3.078   6.917   3.819
  133PVCL2 CC1650743   3.070   6.901   4.035
  133PVCL2 H16R50744   3.176   6.874   4.018
  133PVCL2 H16S50745   3.021   6.807   4.069
  133PVCL2 CC1750746   3.063   6.998   4.155
  133PVCL2 H17R50747   2.956   7.021   4.175
  133PVCL2 H17S50748   3.115   7.092   4.128
  133PVCL2 CC1850749   3.123   6.943   4.285
  133PVCL2 H18R50750   3.230   6.918   4.270
  133PVCL2 H18S50751   3.069   6.851   4.316
  133PVCL2 H18T50752   3.115   7.018   4.365
  133PVCL2  CD350753   3.234   6.979   3.073
  133PVCL2  H3X50754   3.246   7.036   2.978
  133PVCL2  H3Y50755   3.336   6.948   3.105
  133PVCL2  CD450756   3.175   7.071   3.182
  133PVCL2  H4X50757   3.066   7.085   3.167
  133PVCL2  H4Y50758   3.223   7.170   3.170
  133PVCL2  CD550759   3.204   7.027   3.326
  133PVCL2  H5X50760   3.311   6.999   3.333
  133PVCL2  H5Y50761   3.144   6.937   3.351
  133PVCL2  CD650762   3.175   7.139   3.427
  133PVCL2  H6X50763   3.067   7.166   3.420
  133PVCL2  H6Y50764   3.234   7.229   3.398
  133PVCL2  CD750765   3.208   7.106   3.573
  133PVCL2  H7X50766   3.149   7.017   3.604
  133PVCL2  H7Y50767   3.175   7.191   3.637
  133PVCL2  CD850768   3.356   7.076   3.602
  133PVCL2  H8X50769   3.416   7.168   3.585
  133PVCL2  H8Y50770   3.392   6.999   3.531
  133PVCL2  CD950771   3.381   7.024   3.745
  133PVCL2  H9X50772   3.489   6.999   3.752
  133PVCL2  H9Y50773   3.324   6.930   3.761
  133PVCL2 CD1050774   3.343   7.123   3.854
  133PVCL2 H10X50775   3.234   7.139   3.853
  133PVCL2 H10Y50776   3.391   7.220   3.832
  133PVCL2 CD1150777   3.385   7.077   3.995
  133PVCL2 H11X50778   3.341   6.977   4.016
  133PVCL2 H11Y50779   3.343   7.148   4.069
  133PVCL2 CD1250780   3.536   7.063   4.019
  133PVCL2 H12X50781   3.578   6.981   3.957
  133PVCL2 H12Y50782   3.548   7.031   4.124
  133PVCL2 CD1350783   3.616   7.192   3.997
  133PVCL2 H13X50784   3.548   7.279   4.000
  133PVCL2 H13Y50785   3.663   7.189   3.896
  133PVCL2 CD1450786   3.724   7.211   4.105
  133PVCL2 H14X50787   3.799   7.284   4.069
  133PVCL2 H14Y50788   3.775   7.115   4.124
  133PVCL2 CD1550789   3.662   7.266   4.235
  133PVCL2 H15X50790   3.572   7.206   4.260
  133PVCL2 H15Y50791   3.628   7.370   4.215
  133PVCL2 CD1650792   3.755   7.267   4.356
  133PVCL2 H16X50793   3.755   7.168   4.407
  133PVCL2 H16Y50794   3.722   7.343   4.429
  133PVCL2 H16Z50795   3.859   7.289   4.325
  134PVCL2   C350796   2.612   1.127   2.474
  134PVCL2 HG3150797   2.668   1.151   2.567
  134PVCL2 HG3250798   2.627   1.018   2.457
  134PVCL2   P350799   2.706   1.350   2.376
  134PVCL2 OP3350800   2.623   1.436   2.288
  134PVCL2 OP3450801   2.853   1.356   2.353
  134PVCL2 OP3150802   2.659   1.200   2.359
  134PVCL2 OP3250803   2.673   1.386   2.524
  134PVCL2  C3150804   2.759   1.450   2.618
  134PVCL2 H31J50805   2.822   1.527   2.569
  134PVCL2 H31K50806   2.695   1.502   2.693
  134PVCL2   C250807   2.461   1.150   2.501
  134PVCL2 HG2250808   2.443   1.258   2.519
  134PVCL2 OG1250809   2.392   1.108   2.384
  134PVCL2 HO1250810   2.462   1.124   2.320
  134PVCL2   C150811   2.412   1.073   2.626
  134PVCL2 HG1150812   2.431   0.964   2.612
  134PVCL2 HG1250813   2.303   1.086   2.636
  134PVCL2   P150814   2.411   1.205   2.852
  134PVCL2 OP1350815   2.311   1.118   2.917
  134PVCL2 OP1450816   2.509   1.274   2.938
  134PVCL2 OP1150817   2.485   1.118   2.741
  134PVCL2 OP1250818   2.337   1.311   2.762
  134PVCL2  C1150819   2.381   1.446   2.748
  134PVCL2 H11J50820   2.433   1.457   2.650
  134PVCL2 H11K50821   2.453   1.476   2.826
  134PVCL2  C1250822   2.259   1.544   2.753
  134PVCL2 H12J50823   2.298   1.648   2.748
  134PVCL2  O1250824   2.183   1.525   2.873
  134PVCL2  CA150825   2.246   1.555   2.985
  134PVCL2  OA150826   2.345   1.626   2.995
  134PVCL2  CA250827   2.167   1.494   3.101
  134PVCL2  H2A50828   2.163   1.384   3.082
  134PVCL2  H2B50829   2.064   1.534   3.096
  134PVCL2  C1350830   2.164   1.524   2.632
  134PVCL2 H13J50831   2.222   1.535   2.538
  134PVCL2 H13K50832   2.086   1.603   2.637
  134PVCL2  O1350833   2.104   1.394   2.638
  134PVCL2  CB150834   2.011   1.360   2.555
  134PVCL2  OB150835   1.977   1.419   2.453
  134PVCL2  CB250836   1.948   1.229   2.602
  134PVCL2  H2D50837   2.022   1.148   2.590
  134PVCL2  H2E50838   1.861   1.209   2.535
  134PVCL2  C3250839   2.851   1.353   2.701
  134PVCL2 H32J50840   2.913   1.298   2.628
  134PVCL2  O3250841   2.771   1.262   2.778
  134PVCL2  CC150842   2.839   1.161   2.831
  134PVCL2  OC150843   2.950   1.125   2.792
  134PVCL2  CC250844   2.764   1.098   2.948
  134PVCL2  H2R50845   2.678   1.040   2.910
  134PVCL2  H2S50846   2.724   1.183   3.009
  134PVCL2  C3350847   2.944   1.436   2.796
  134PVCL2 H33J50848   3.011   1.369   2.853
  134PVCL2 H33K50849   3.009   1.498   2.732
  134PVCL2  O3350850   2.866   1.524   2.880
  134PVCL2  CD150851   2.838   1.477   3.003
  134PVCL2  OD150852   2.894   1.383   3.056
  134PVCL2  CD250853   2.728   1.565   3.064
  134PVCL2  H2X50854   2.651   1.578   2.984
  134PVCL2  H2Y50855   2.771   1.664   3.089
  134PVCL2  CA350856   2.227   1.519   3.240
  134PVCL2  H3A50857   2.228   1.628   3.262
  134PVCL2  H3B50858   2.332   1.483   3.243
  134PVCL2  CA450859   2.147   1.445   3.347
  134PVCL2  H4A50860   2.151   1.336   3.327
  134PVCL2  H4B50861   2.040   1.477   3.341
  134PVCL2  CA550862   2.197   1.472   3.490
  134PVCL2  H5A50863   2.185   1.580   3.512
  134PVCL2  H5B50864   2.305   1.448   3.497
  134PVCL2  CA650865   2.120   1.390   3.594
  134PVCL2  H6A50866   2.167   1.289   3.603
  134PVCL2  H6B50867   2.015   1.374   3.559
  134PVCL2  CA750868   2.114   1.459   3.731
  134PVCL2  H7A50869   2.065   1.557   3.719
  134PVCL2  H7B50870   2.218   1.479   3.766
  134PVCL2  CA850871   2.038   1.379   3.839
  134PVCL2  H8A50872   1.933   1.364   3.804
  134PVCL2  H8B50873   2.035   1.439   3.931
  134PVCL2  CA950874   2.100   1.242   3.872
  134PVCL2  H9A50875   2.093   1.176   3.782
  134PVCL2  H9B50876   2.040   1.195   3.952
  134PVCL2 CA1050877   2.247   1.252   3.917
  134PVCL2 H10A50878   2.251   1.324   4.002
  134PVCL2 H10B50879   2.308   1.295   3.835
  134PVCL2 CA1150880   2.302   1.117   3.954
  134PVCL2 H11A50881   2.287   1.040   3.877
  134PVCL2 CA1250882   2.368   1.084   4.068
  134PVCL2 H12A50883   2.403   0.980   4.079
  134PVCL2 CA1350884   2.401   1.175   4.183
  134PVCL2 H13A50885   2.383   1.282   4.160
  134PVCL2 H13B50886   2.509   1.166   4.205
  134PVCL2 CA1450887   2.324   1.141   4.312
  134PVCL2 H14A50888   2.367   1.206   4.392
  134PVCL2 H14B50889   2.342   1.036   4.342
  134PVCL2 CA1550890   2.173   1.167   4.307
  134PVCL2 H15A50891   2.122   1.079   4.263
  134PVCL2 H15B50892   2.154   1.253   4.240
  134PVCL2 CA1650893   2.113   1.202   4.444
  134PVCL2 H16A50894   2.004   1.223   4.434
  134PVCL2 H16B50895   2.161   1.296   4.479
  134PVCL2 CA1750896   2.133   1.096   4.554
  134PVCL2 H17A50897   2.109   1.142   4.651
  134PVCL2 H17B50898   2.240   1.067   4.558
  134PVCL2 CA1850899   2.047   0.971   4.536
  134PVCL2 H18A50900   1.939   0.999   4.542
  134PVCL2 H18B50901   2.067   0.898   4.618
  134PVCL2 H18C50902   2.067   0.922   4.439
  134PVCL2  CB350903   1.898   1.235   2.749
  134PVCL2  H3D50904   1.817   1.159   2.760
  134PVCL2  H3E50905   1.856   1.334   2.774
  134PVCL2  CB450906   2.004   1.196   2.852
  134PVCL2  H4D50907   2.079   1.277   2.865
  134PVCL2  H4E50908   2.060   1.108   2.815
  134PVCL2  CB550909   1.946   1.160   2.990
  134PVCL2  H5D50910   1.861   1.089   2.977
  134PVCL2  H5E50911   1.909   1.251   3.042
  134PVCL2  CB650912   2.053   1.090   3.075
  134PVCL2  H6D50913   2.138   1.161   3.091
  134PVCL2  H6E50914   2.095   1.005   3.018
  134PVCL2  CB750915   2.007   1.038   3.212
  134PVCL2  H7D50916   1.919   0.971   3.200
  134PVCL2  H7E50917   1.978   1.124   3.276
  134PVCL2  CB850918   2.122   0.960   3.278
  134PVCL2  H8D50919   2.215   1.021   3.267
  134PVCL2  H8E50920   2.140   0.865   3.224
  134PVCL2  CB950921   2.103   0.933   3.429
  134PVCL2  H9D50922   2.074   1.027   3.478
  134PVCL2  H9E50923   2.201   0.902   3.470
  134PVCL2 CB1050924   2.000   0.823   3.459
  134PVCL2 H10D50925   2.038   0.724   3.424
  134PVCL2 H10E50926   1.907   0.845   3.405
  134PVCL2 CB1150927   1.968   0.815   3.609
  134PVCL2 H11D50928   1.883   0.746   3.627
  134PVCL2 H11E50929   1.935   0.917   3.642
  134PVCL2 CB1250930   2.084   0.775   3.700
  134PVCL2 H12D50931   2.178   0.827   3.669
  134PVCL2 H12E50932   2.102   0.666   3.693
  134PVCL2 CB1350933   2.055   0.813   3.846
  134PVCL2 H13D50934   1.961   0.764   3.877
  134PVCL2 H13E50935   2.039   0.922   3.854
  134PVCL2 CB1450936   2.168   0.772   3.943
  134PVCL2 H14D50937   2.255   0.839   3.929
  134PVCL2 H14E50938   2.202   0.670   3.917
  134PVCL2 CB1550939   2.124   0.778   4.089
  134PVCL2 H15D50940   2.036   0.712   4.103
  134PVCL2 H15E50941   2.092   0.882   4.113
  134PVCL2 CB1650942   2.234   0.736   4.188
  134PVCL2 H16D50943   2.195   0.737   4.292
  134PVCL2 H16E50944   2.320   0.806   4.181
  134PVCL2 H16F50945   2.270   0.634   4.164
  134PVCL2  CC350946   2.853   1.010   3.040
  134PVCL2  H3R50947   2.945   1.067   3.066
  134PVCL2  H3S50948   2.884   0.919   2.984
  134PVCL2  CC450949   2.784   0.969   3.171
  134PVCL2  H4R50950   2.854   0.904   3.228
  134PVCL2  H4S50951   2.693   0.910   3.150
  134PVCL2  CC550952   2.747   1.089   3.261
  134PVCL2  H5R50953   2.657   1.140   3.219
  134PVCL2  H5S50954   2.830   1.162   3.259
  134PVCL2  CC650955   2.720   1.053   3.408
  134PVCL2  H6R50956   2.704   1.147   3.464
  134PVCL2  H6S50957   2.811   1.004   3.450
  134PVCL2  CC750958   2.598   0.962   3.431
  134PVCL2  H7R50959   2.617   0.861   3.389
  134PVCL2  H7S50960   2.512   1.006   3.375
  134PVCL2  CC850961   2.557   0.950   3.579
  134PVCL2  H8R50962   2.463   0.891   3.587
  134PVCL2  H8S50963   2.536   1.051   3.618
  134PVCL2  CC950964   2.665   0.884   3.668
  134PVCL2  H9R50965   2.760   0.939   3.653
  134PVCL2  H9S50966   2.681   0.779   3.637
  134PVCL2 CC1050967   2.634   0.892   3.819
  134PVCL2 H10R50968   2.601   0.996   3.842
  134PVCL2 H10S50969   2.730   0.878   3.872
  134PVCL2 CC1150970   2.530   0.796   3.870
  134PVCL2 H11R50971   2.435   0.796   3.813
  134PVCL2 CC1250972   2.543   0.711   3.973
  134PVCL2 H12R50973   2.459   0.646   4.002
  134PVCL2 CC1350974   2.667   0.696   4.061
  134PVCL2 H13R50975   2.755   0.681   3.995
  134PVCL2 H13S50976   2.659   0.605   4.122
  134PVCL2 CC1450977   2.702   0.816   4.151
  134PVCL2 H14R50978   2.683   0.912   4.099
  134PVCL2 H14S50979   2.811   0.810   4.171
  134PVCL2 CC1550980   2.631   0.816   4.287
  134PVCL2 H15R50981   2.643   0.716   4.334
  134PVCL2 H15S50982   2.523   0.835   4.275
  134PVCL2 CC1650983   2.692   0.921   4.382
  134PVCL2 H16R50984   2.667   1.023   4.346
  134PVCL2 H16S50985   2.803   0.911   4.378
  134PVCL2 CC1750986   2.650   0.905   4.530
  134PVCL2 H17R50987   2.714   0.972   4.591
  134PVCL2 H17S50988   2.671   0.801   4.561
  134PVCL2 CC1850989   2.504   0.939   4.557
  134PVCL2 H18R50990   2.483   1.045   4.530
  134PVCL2 H18S50991   2.481   0.926   4.665
  134PVCL2 H18T50992   2.436   0.873   4.498
  134PVCL2  CD350993   2.656   1.504   3.188
  134PVCL2  H3X50994   2.650   1.393   3.181
  134PVCL2  H3Y50995   2.552   1.541   3.183
  134PVCL2  CD450996   2.714   1.548   3.323
  134PVCL2  H4X50997   2.731   1.657   3.319
  134PVCL2  H4Y50998   2.811   1.498   3.341
  134PVCL2  CD550999   2.616   1.519   3.438
  134PVCL2  H5X51000   2.609   1.410   3.457
  134PVCL2  H5Y51001   2.515   1.553   3.405
  134PVCL2  CD651002   2.647   1.595   3.568
  134PVCL2  H6X51003   2.556   1.594   3.632
  134PVCL2  H6Y51004   2.668   1.702   3.544
  134PVCL2  CD751005   2.762   1.538   3.653
  134PVCL2  H7X51006   2.775   1.604   3.742
  134PVCL2  H7Y51007   2.857   1.541   3.596
  134PVCL2  CD851008   2.735   1.395   3.702
  134PVCL2  H8X51009   2.750   1.325   3.618
  134PVCL2  H8Y51010   2.629   1.388   3.734
  134PVCL2  CD951011   2.823   1.352   3.821
  134PVCL2  H9X51012   2.803   1.418   3.908
  134PVCL2  H9Y51013   2.930   1.363   3.794
  134PVCL2 CD1051014   2.794   1.206   3.859
  134PVCL2 H10X51015   2.812   1.145   3.768
  134PVCL2 H10Y51016   2.686   1.195   3.886
  134PVCL2 CD1151017   2.882   1.151   3.972
  134PVCL2 H11X51018   2.984   1.195   3.966
  134PVCL2 H11Y51019   2.892   1.042   3.953
  134PVCL2 CD1251020   2.823   1.163   4.115
  134PVCL2 H12X51021   2.844   1.068   4.168
  134PVCL2 H12Y51022   2.713   1.174   4.108
  134PVCL2 CD1351023   2.883   1.275   4.200
  134PVCL2 H13X51024   2.837   1.268   4.301
  134PVCL2 H13Y51025   2.856   1.375   4.160
  134PVCL2 CD1451026   3.036   1.266   4.217
  134PVCL2 H14X51027   3.084   1.337   4.145
  134PVCL2 H14Y51028   3.070   1.164   4.190
  134PVCL2 CD1551029   3.085   1.295   4.359
  134PVCL2 H15X51030   3.022   1.376   4.405
  134PVCL2 H15Y51031   3.189   1.333   4.355
  134PVCL2 CD1651032   3.083   1.171   4.450
  134PVCL2 H16X51033   3.111   1.198   4.554
  134PVCL2 H16Y51034   3.154   1.095   4.413
  134PVCL2 H16Z51035   2.981   1.126   4.452
  135PVCL2   C351036   1.987   0.444   2.715
  135PVCL2 HG3151037   2.006   0.505   2.806
  135PVCL2 HG3251038   1.877   0.433   2.706
  135PVCL2   P351039   2.167   0.286   2.817
  135PVCL2 OP3351040   2.116   0.261   2.953
  135PVCL2 OP3451041   2.263   0.396   2.791
  135PVCL2 OP3151042   2.044   0.313   2.722
  135PVCL2 OP3251043   2.227   0.152   2.755
  135PVCL2  C3151044   2.253   0.150   2.614
  135PVCL2 H31J51045   2.157   0.143   2.560
  135PVCL2 H31K51046   2.304   0.243   2.581
  135PVCL2   C251047   2.033   0.522   2.589
  135PVCL2 HG2251048   1.972   0.614   2.580
  135PVCL2 OG1251049   2.170   0.559   2.601
  135PVCL2 HO1251050   2.201   0.509   2.677
  135PVCL2   C151051   2.016   0.437   2.460
  135PVCL2 HG1151052   2.078   0.346   2.476
  135PVCL2 HG1251053   2.059   0.494   2.375
  135PVCL2   P151054   1.843   0.273   2.356
  135PVCL2 OP1351055   1.751   0.307   2.244
  135PVCL2 OP1451056   1.965   0.203   2.313
  135PVCL2 OP1151057   1.878   0.407   2.432
  135PVCL2 OP1251058   1.764   0.183   2.460
  135PVCL2  C1151059   1.665   0.244   2.543
  135PVCL2 H11J51060   1.570   0.251   2.484
  135PVCL2 H11K51061   1.693   0.346   2.574
  135PVCL2  C1251062   1.632   0.160   2.671
  135PVCL2 H12J51063   1.522   0.168   2.689
  135PVCL2  O1251064   1.703   0.205   2.787
  135PVCL2  CA151065   1.666   0.321   2.837
  135PVCL2  OA151066   1.580   0.395   2.789
  135PVCL2  CA251067   1.740   0.344   2.969
  135PVCL2  H2A51068   1.736   0.452   2.993
  135PVCL2  H2B51069   1.846   0.314   2.954
  135PVCL2  C1351070   1.666   0.010   2.654
  135PVCL2 H13J51071   1.777   0.003   2.663
  135PVCL2 H13K51072   1.637  -0.023   2.552
  135PVCL2  O1351073   1.594  -0.065   2.755
  135PVCL2  CB151074   1.660  -0.174   2.798
  135PVCL2  OB151075   1.752  -0.227   2.739
  135PVCL2  CB251076   1.593  -0.225   2.926
  135PVCL2  H2D51077   1.666  -0.294   2.976
  135PVCL2  H2E51078   1.505  -0.287   2.896
  135PVCL2  C3251079   2.342   0.028   2.572
  135PVCL2 H32J51080   2.319   0.006   2.465
  135PVCL2  O3251081   2.317  -0.087   2.654
  135PVCL2  CC151082   2.190  -0.122   2.660
  135PVCL2  OC151083   2.110  -0.110   2.567
  135PVCL2  CC251084   2.164  -0.197   2.789
  135PVCL2  H2R51085   2.259  -0.204   2.847
  135PVCL2  H2S51086   2.128  -0.299   2.763
  135PVCL2  C3351087   2.494   0.060   2.580
  135PVCL2 H33J51088   2.549  -0.025   2.536
  135PVCL2 H33K51089   2.515   0.148   2.515
  135PVCL2  O3351090   2.535   0.093   2.714
  135PVCL2  CD151091   2.600  -0.001   2.779
  135PVCL2  OD151092   2.645  -0.105   2.732
  135PVCL2  CD251093   2.616   0.039   2.925
  135PVCL2  H2X51094   2.654   0.143   2.932
  135PVCL2  H2Y51095   2.698  -0.024   2.967
  135PVCL2  CA351096   1.677   0.261   3.083
  135PVCL2  H3A51097   1.676   0.153   3.056
  135PVCL2  H3B51098   1.573   0.295   3.098
  135PVCL2  CA451099   1.752   0.276   3.216
  135PVCL2  H4A51100   1.783   0.382   3.229
  135PVCL2  H4B51101   1.844   0.215   3.214
  135PVCL2  CA551102   1.663   0.235   3.334
  135PVCL2  H5A51103   1.615   0.138   3.311
  135PVCL2  H5B51104   1.582   0.310   3.346
  135PVCL2  CA651105   1.738   0.218   3.469
  135PVCL2  H6A51106   1.810   0.135   3.458
  135PVCL2  H6B51107   1.665   0.188   3.546
  135PVCL2  CA751108   1.814   0.343   3.516
  135PVCL2  H7A51109   1.896   0.365   3.444
  135PVCL2  H7B51110   1.862   0.320   3.613
  135PVCL2  CA851111   1.728   0.469   3.533
  135PVCL2  H8A51112   1.693   0.501   3.433
  135PVCL2  H8B51113   1.793   0.550   3.573
  135PVCL2  CA951114   1.607   0.450   3.627
  135PVCL2  H9A51115   1.540   0.373   3.582
  135PVCL2  H9B51116   1.549   0.545   3.629
  135PVCL2 CA1051117   1.641   0.410   3.770
  135PVCL2 H10A51118   1.702   0.317   3.769
  135PVCL2 H10B51119   1.545   0.383   3.820
  135PVCL2 CA1151120   1.704   0.520   3.852
  135PVCL2 H11A51121   1.639   0.607   3.872
  135PVCL2 CA1251122   1.828   0.520   3.901
  135PVCL2 H12A51123   1.861   0.605   3.964
  135PVCL2 CA1351124   1.930   0.410   3.885
  135PVCL2 H13A51125   1.978   0.419   3.785
  135PVCL2 H13B51126   1.881   0.310   3.889
  135PVCL2 CA1451127   2.040   0.415   3.992
  135PVCL2 H14A51128   2.097   0.510   3.984
  135PVCL2 H14B51129   2.113   0.334   3.972
  135PVCL2 CA1551130   1.991   0.399   4.136
  135PVCL2 H15A51131   1.915   0.318   4.142
  135PVCL2 H15B51132   1.942   0.493   4.168
  135PVCL2 CA1651133   2.108   0.364   4.229
  135PVCL2 H16A51134   2.187   0.442   4.219
  135PVCL2 H16B51135   2.152   0.268   4.196
  135PVCL2 CA1751136   2.069   0.354   4.377
  135PVCL2 H17A51137   2.159   0.325   4.436
  135PVCL2 H17B51138   1.996   0.271   4.386
  135PVCL2 CA1851139   2.010   0.482   4.434
  135PVCL2 H18A51140   1.911   0.503   4.389
  135PVCL2 H18B51141   2.077   0.569   4.415
  135PVCL2 H18C51142   1.996   0.473   4.544
  135PVCL2  CB351143   1.543  -0.121   3.030
  135PVCL2  H3D51144   1.472  -0.047   2.985
  135PVCL2  H3E51145   1.630  -0.064   3.069
  135PVCL2  CB451146   1.474  -0.195   3.145
  135PVCL2  H4D51147   1.540  -0.281   3.168
  135PVCL2  H4E51148   1.377  -0.238   3.112
  135PVCL2  CB551149   1.457  -0.121   3.280
  135PVCL2  H5D51150   1.548  -0.061   3.301
  135PVCL2  H5E51151   1.450  -0.200   3.358
  135PVCL2  CB651152   1.335  -0.028   3.295
  135PVCL2  H6D51153   1.242  -0.088   3.283
  135PVCL2  H6E51154   1.337   0.049   3.216
  135PVCL2  CB751155   1.333   0.041   3.433
  135PVCL2  H7D51156   1.239   0.099   3.443
  135PVCL2  H7E51157   1.418   0.113   3.440
  135PVCL2  CB851158   1.344  -0.056   3.552
  135PVCL2  H8D51159   1.445  -0.102   3.552
  135PVCL2  H8E51160   1.269  -0.137   3.538
  135PVCL2  CB951161   1.319   0.001   3.693
  135PVCL2  H9D51162   1.349  -0.076   3.767
  135PVCL2  H9E51163   1.210   0.018   3.707
  135PVCL2 CB1051164   1.394   0.131   3.727
  135PVCL2 H10D51165   1.349   0.214   3.669
  135PVCL2 H10E51166   1.501   0.122   3.697
  135PVCL2 CB1151167   1.387   0.164   3.877
  135PVCL2 H11D51168   1.287   0.132   3.917
  135PVCL2 H11E51169   1.393   0.274   3.892
  135PVCL2 CB1251170   1.498   0.096   3.959
  135PVCL2 H12D51171   1.595   0.109   3.907
  135PVCL2 H12E51172   1.474  -0.012   3.964
  135PVCL2 CB1351173   1.513   0.144   4.104
  135PVCL2 H13D51174   1.589   0.078   4.153
  135PVCL2 H13E51175   1.418   0.129   4.160
  135PVCL2 CB1451176   1.562   0.288   4.120
  135PVCL2 H14D51177   1.478   0.358   4.095
  135PVCL2 H14E51178   1.643   0.306   4.046
  135PVCL2 CB1551179   1.616   0.320   4.259
  135PVCL2 H15D51180   1.648   0.427   4.261
  135PVCL2 H15E51181   1.707   0.259   4.278
  135PVCL2 CB1651182   1.517   0.296   4.373
  135PVCL2 H16D51183   1.423   0.354   4.358
  135PVCL2 H16E51184   1.561   0.329   4.470
  135PVCL2 H16F51185   1.491   0.189   4.382
  135PVCL2  CC351186   2.060  -0.126   2.875
  135PVCL2  H3R51187   1.967  -0.107   2.818
  135PVCL2  H3S51188   2.099  -0.028   2.910
  135PVCL2  CC451189   2.025  -0.210   2.999
  135PVCL2  H4R51190   2.118  -0.232   3.056
  135PVCL2  H4S51191   1.979  -0.306   2.969
  135PVCL2  CC551192   1.930  -0.131   3.089
  135PVCL2  H5R51193   1.838  -0.107   3.031
  135PVCL2  H5S51194   1.977  -0.034   3.113
  135PVCL2  CC651195   1.893  -0.204   3.217
  135PVCL2  H6R51196   1.985  -0.240   3.268
  135PVCL2  H6S51197   1.828  -0.291   3.195
  135PVCL2  CC751198   1.821  -0.105   3.308
  135PVCL2  H7R51199   1.739  -0.059   3.249
  135PVCL2  H7S51200   1.890  -0.021   3.333
  135PVCL2  CC851201   1.767  -0.165   3.438
  135PVCL2  H8R51202   1.728  -0.267   3.419
  135PVCL2  H8S51203   1.682  -0.101   3.469
  135PVCL2  CC951204   1.870  -0.165   3.551
  135PVCL2  H9R51205   1.891  -0.060   3.582
  135PVCL2  H9S51206   1.965  -0.209   3.514
  135PVCL2 CC1051207   1.823  -0.245   3.674
  135PVCL2 H10R51208   1.899  -0.236   3.754
  135PVCL2 H10S51209   1.826  -0.353   3.646
  135PVCL2 CC1151210   1.685  -0.205   3.719
  135PVCL2 H11R51211   1.610  -0.197   3.638
  135PVCL2 CC1251212   1.642  -0.189   3.844
  135PVCL2 H12R51213   1.534  -0.171   3.860
  135PVCL2 CC1351214   1.722  -0.208   3.969
  135PVCL2 H13R51215   1.706  -0.123   4.039
  135PVCL2 H13S51216   1.831  -0.211   3.947
  135PVCL2 CC1451217   1.685  -0.340   4.039
  135PVCL2 H14R51218   1.584  -0.329   4.084
  135PVCL2 H14S51219   1.757  -0.359   4.122
  135PVCL2 CC1551220   1.689  -0.458   3.940
  135PVCL2 H15R51221   1.793  -0.463   3.901
  135PVCL2 H15S51222   1.620  -0.439   3.855
  135PVCL2 CC1651223   1.649  -0.594   3.995
  135PVCL2 H16R51224   1.733  -0.634   4.056
  135PVCL2 H16S51225   1.638  -0.665   3.910
  135PVCL2 CC1751226   1.519  -0.597   4.075
  135PVCL2 H17R51227   1.454  -0.673   4.028
  135PVCL2 H17S51228   1.464  -0.500   4.070
  135PVCL2 CC1851229   1.543  -0.635   4.221
  135PVCL2 H18R51230   1.567  -0.546   4.285
  135PVCL2 H18S51231   1.630  -0.704   4.226
  135PVCL2 H18T51232   1.458  -0.690   4.266
  135PVCL2  CD351233   2.484   0.025   3.004
  135PVCL2  H3X51234   2.435  -0.072   2.979
  135PVCL2  H3Y51235   2.414   0.105   2.973
  135PVCL2  CD451236   2.504   0.029   3.156
  135PVCL2  H4X51237   2.522   0.134   3.188
  135PVCL2  H4Y51238   2.594  -0.029   3.184
  135PVCL2  CD551239   2.385  -0.029   3.234
  135PVCL2  H5X51240   2.408  -0.032   3.344
  135PVCL2  H5Y51241   2.370  -0.134   3.202
  135PVCL2  CD651242   2.254   0.048   3.212
  135PVCL2  H6X51243   2.171  -0.026   3.205
  135PVCL2  H6Y51244   2.255   0.103   3.115
  135PVCL2  CD751245   2.223   0.146   3.326
  135PVCL2  H7X51246   2.198   0.245   3.282
  135PVCL2  H7Y51247   2.315   0.158   3.387
  135PVCL2  CD851248   2.106   0.099   3.412
  135PVCL2  H8X51249   2.104  -0.013   3.415
  135PVCL2  H8Y51250   2.015   0.134   3.360
  135PVCL2  CD951251   2.102   0.151   3.556
  135PVCL2  H9X51252   1.995   0.155   3.587
  135PVCL2  H9Y51253   2.141   0.255   3.562
  135PVCL2 CD1051254   2.170   0.060   3.660
  135PVCL2 H10X51255   2.280   0.070   3.648
  135PVCL2 H10Y51256   2.143  -0.046   3.641
  135PVCL2 CD1151257   2.129   0.097   3.804
  135PVCL2 H11X51258   2.128   0.208   3.812
  135PVCL2 H11Y51259   2.204   0.059   3.877
  135PVCL2 CD1251260   1.993   0.039   3.845
  135PVCL2 H12X51261   1.991  -0.069   3.819
  135PVCL2 H12Y51262   1.913   0.090   3.788
  135PVCL2 CD1351263   1.963   0.051   3.997
  135PVCL2 H13X51264   1.853   0.045   4.010
  135PVCL2 H13Y51265   1.996   0.151   4.032
  135PVCL2 CD1451266   2.030  -0.057   4.082
  135PVCL2 H14X51267   2.140  -0.050   4.068
  135PVCL2 H14Y51268   2.000  -0.158   4.049
  135PVCL2 CD1551269   1.999  -0.045   4.233
  135PVCL2 H15X51270   2.044   0.050   4.270
  135PVCL2 H15Y51271   2.051  -0.129   4.285
  135PVCL2 CD1651272   1.852  -0.049   4.273
  135PVCL2 H16X51273   1.796   0.036   4.229
  135PVCL2 H16Y51274   1.842  -0.044   4.384
  135PVCL2 H16Z51275   1.805  -0.144   4.240
  136PVCL2   C351276   0.314   7.625   2.551
  136PVCL2 HG3151277   0.284   7.609   2.657
  136PVCL2 HG3251278   0.425   7.616   2.547
  136PVCL2   P351279   0.362   7.858   2.439
  136PVCL2 OP3351280   0.280   7.975   2.399
  136PVCL2 OP3451281   0.439   7.793   2.330
  136PVCL2 OP3151282   0.269   7.754   2.509
  136PVCL2 OP3251283   0.466   7.901   2.548
  136PVCL2  C3151284   0.431   7.976   2.665
  136PVCL2 H31J51285   0.466   8.080   2.653
  136PVCL2 H31K51286   0.322   7.978   2.685
  136PVCL2   C251287   0.250   7.513   2.466
  136PVCL2 HG2251288   0.244   7.548   2.360
  136PVCL2 OG1251289   0.331   7.396   2.472
  136PVCL2 HO1251290   0.296   7.350   2.549
  136PVCL2   C151291   0.108   7.471   2.514
  136PVCL2 HG1151292   0.117   7.425   2.614
  136PVCL2 HG1251293   0.071   7.391   2.446
  136PVCL2   P151294  -0.047   7.637   2.644
  136PVCL2 OP1351295   0.044   7.610   2.757
  136PVCL2 OP1451296  -0.091   7.776   2.616
  136PVCL2 OP1151297   0.015   7.579   2.510
  136PVCL2 OP1251298  -0.175   7.544   2.655
  136PVCL2  C1151299  -0.303   7.607   2.665
  136PVCL2 H11J51300  -0.324   7.663   2.572
  136PVCL2 H11K51301  -0.305   7.681   2.748
  136PVCL2  C1251302  -0.422   7.506   2.686
  136PVCL2 H12J51303  -0.510   7.549   2.634
  136PVCL2  O1251304  -0.450   7.486   2.824
  136PVCL2  CA151305  -0.512   7.587   2.884
  136PVCL2  OA151306  -0.549   7.690   2.828
  136PVCL2  CA251307  -0.530   7.555   3.030
  136PVCL2  H2A51308  -0.487   7.455   3.052
  136PVCL2  H2B51309  -0.639   7.551   3.051
  136PVCL2  C1351310  -0.396   7.365   2.623
  136PVCL2 H13J51311  -0.379   7.379   2.514
  136PVCL2 H13K51312  -0.490   7.308   2.634
  136PVCL2  O1351313  -0.292   7.290   2.688
  136PVCL2  CB151314  -0.187   7.256   2.616
  136PVCL2  OB151315  -0.173   7.274   2.496
  136PVCL2  CB251316  -0.085   7.187   2.705
  136PVCL2  H2D51317   0.012   7.184   2.650
  136PVCL2  H2E51318  -0.119   7.084   2.724
  136PVCL2  C3251319   0.502   7.915   2.788
  136PVCL2 H32J51320   0.602   7.881   2.755
  136PVCL2  O3251321   0.421   7.809   2.841
  136PVCL2  CC151322   0.478   7.695   2.866
  136PVCL2  OC151323   0.591   7.661   2.832
  136PVCL2  CC251324   0.382   7.603   2.940
  136PVCL2  H2R51325   0.338   7.534   2.865
  136PVCL2  H2S51326   0.299   7.663   2.983
  136PVCL2  C3351327   0.526   8.021   2.900
  136PVCL2 H33J51328   0.590   7.975   2.978
  136PVCL2 H33K51329   0.586   8.104   2.856
  136PVCL2  O3351330   0.404   8.076   2.953
  136PVCL2  CD151331   0.362   8.020   3.068
  136PVCL2  OD151332   0.414   7.925   3.122
  136PVCL2  CD251333   0.242   8.098   3.120
  136PVCL2  H2X51334   0.161   8.091   3.044
  136PVCL2  H2Y51335   0.274   8.204   3.129
  136PVCL2  CA351336  -0.459   7.662   3.115
  136PVCL2  H3A51337  -0.470   7.636   3.222
  136PVCL2  H3B51338  -0.506   7.761   3.098
  136PVCL2  CA451339  -0.310   7.669   3.082
  136PVCL2  H4A51340  -0.293   7.705   2.977
  136PVCL2  H4B51341  -0.272   7.565   3.087
  136PVCL2  CA551342  -0.229   7.759   3.175
  136PVCL2  H5A51343  -0.264   7.744   3.280
  136PVCL2  H5B51344  -0.246   7.866   3.149
  136PVCL2  CA651345  -0.078   7.729   3.170
  136PVCL2  H6A51346  -0.025   7.795   3.242
  136PVCL2  H6B51347  -0.040   7.755   3.068
  136PVCL2  CA751348  -0.042   7.583   3.200
  136PVCL2  H7A51349   0.068   7.576   3.208
  136PVCL2  H7B51350  -0.072   7.521   3.113
  136PVCL2  CA851351  -0.106   7.525   3.327
  136PVCL2  H8A51352  -0.078   7.418   3.337
  136PVCL2  H8B51353  -0.217   7.528   3.321
  136PVCL2  CA951354  -0.061   7.599   3.454
  136PVCL2  H9A51355  -0.106   7.700   3.452
  136PVCL2  H9B51356   0.050   7.612   3.448
  136PVCL2 CA1051357  -0.097   7.526   3.584
  136PVCL2 H10A51358  -0.058   7.422   3.578
  136PVCL2 H10B51359  -0.207   7.518   3.594
  136PVCL2 CA1151360  -0.039   7.601   3.702
  136PVCL2 H11A51361  -0.091   7.694   3.729
  136PVCL2 CA1251362   0.067   7.563   3.775
  136PVCL2 H12A51363   0.098   7.625   3.860
  136PVCL2 CA1351364   0.148   7.438   3.754
  136PVCL2 H13A51365   0.249   7.446   3.799
  136PVCL2 H13B51366   0.163   7.420   3.645
  136PVCL2 CA1451367   0.074   7.317   3.813
  136PVCL2 H14A51368   0.108   7.225   3.760
  136PVCL2 H14B51369  -0.035   7.325   3.794
  136PVCL2 CA1551370   0.097   7.293   3.964
  136PVCL2 H15A51371   0.198   7.248   3.974
  136PVCL2 H15B51372   0.022   7.218   3.998
  136PVCL2 CA1651373   0.093   7.414   4.057
  136PVCL2 H16A51374  -0.007   7.464   4.054
  136PVCL2 H16B51375   0.170   7.487   4.025
  136PVCL2 CA1751376   0.125   7.375   4.202
  136PVCL2 H17A51377   0.220   7.318   4.202
  136PVCL2 H17B51378   0.046   7.306   4.240
  136PVCL2 CA1851379   0.140   7.492   4.299
  136PVCL2 H18A51380   0.047   7.553   4.302
  136PVCL2 H18B51381   0.225   7.557   4.268
  136PVCL2 H18C51382   0.162   7.455   4.401
  136PVCL2  CB351383  -0.068   7.262   2.839
  136PVCL2  H3D51384  -0.163   7.259   2.896
  136PVCL2  H3E51385  -0.044   7.368   2.821
  136PVCL2  CB451386   0.042   7.201   2.926
  136PVCL2  H4D51387   0.138   7.198   2.870
  136PVCL2  H4E51388   0.014   7.097   2.954
  136PVCL2  CB551389   0.060   7.284   3.054
  136PVCL2  H5D51390  -0.036   7.281   3.109
  136PVCL2  H5E51391   0.081   7.390   3.028
  136PVCL2  CB651392   0.172   7.232   3.143
  136PVCL2  H6D51393   0.271   7.264   3.104
  136PVCL2  H6E51394   0.171   7.121   3.143
  136PVCL2  CB751395   0.151   7.281   3.286
  136PVCL2  H7D51396   0.049   7.250   3.319
  136PVCL2  H7E51397   0.152   7.392   3.290
  136PVCL2  CB851398   0.251   7.227   3.388
  136PVCL2  H8D51399   0.247   7.116   3.393
  136PVCL2  H8E51400   0.217   7.267   3.485
  136PVCL2  CB951401   0.396   7.265   3.361
  136PVCL2  H9D51402   0.405   7.376   3.360
  136PVCL2  H9E51403   0.428   7.227   3.262
  136PVCL2 CB1051404   0.490   7.208   3.469
  136PVCL2 H10D51405   0.593   7.245   3.451
  136PVCL2 H10E51406   0.490   7.098   3.458
  136PVCL2 CB1151407   0.447   7.244   3.611
  136PVCL2 H11D51408   0.342   7.212   3.629
  136PVCL2 H11E51409   0.452   7.354   3.627
  136PVCL2 CB1251410   0.529   7.170   3.716
  136PVCL2 H12D51411   0.634   7.207   3.716
  136PVCL2 H12E51412   0.529   7.062   3.690
  136PVCL2 CB1351413   0.466   7.187   3.854
  136PVCL2 H13D51414   0.356   7.187   3.845
  136PVCL2 H13E51415   0.496   7.286   3.895
  136PVCL2 CB1451416   0.505   7.075   3.950
  136PVCL2 H14D51417   0.586   7.012   3.908
  136PVCL2 H14E51418   0.418   7.008   3.967
  136PVCL2 CB1551419   0.549   7.132   4.084
  136PVCL2 H15D51420   0.477   7.211   4.115
  136PVCL2 H15E51421   0.649   7.179   4.070
  136PVCL2 CB1651422   0.557   7.029   4.196
  136PVCL2 H16D51423   0.491   6.943   4.175
  136PVCL2 H16E51424   0.527   7.074   4.293
  136PVCL2 H16F51425   0.661   6.992   4.207
  136PVCL2  CC351426   0.455   7.524   3.050
  136PVCL2  H3R51427   0.553   7.487   3.014
  136PVCL2  H3S51428   0.394   7.434   3.076
  136PVCL2  CC451429   0.473   7.605   3.181
  136PVCL2  H4R51430   0.521   7.703   3.160
  136PVCL2  H4S51431   0.541   7.549   3.248
  136PVCL2  CC551432   0.340   7.624   3.253
  136PVCL2  H5R51433   0.280   7.533   3.235
  136PVCL2  H5S51434   0.284   7.710   3.212
  136PVCL2  CC651435   0.355   7.639   3.405
  136PVCL2  H6R51436   0.438   7.575   3.443
  136PVCL2  H6S51437   0.262   7.604   3.454
  136PVCL2  CC751438   0.379   7.784   3.448
  136PVCL2  H7R51439   0.298   7.847   3.405
  136PVCL2  H7S51440   0.476   7.820   3.406
  136PVCL2  CC851441   0.376   7.802   3.601
  136PVCL2  H8R51442   0.278   7.767   3.637
  136PVCL2  H8S51443   0.386   7.910   3.623
  136PVCL2  CC951444   0.487   7.724   3.672
  136PVCL2  H9R51445   0.582   7.744   3.618
  136PVCL2  H9S51446   0.467   7.615   3.667
  136PVCL2 CC1051447   0.506   7.764   3.819
  136PVCL2 H10R51448   0.539   7.870   3.822
  136PVCL2 H10S51449   0.589   7.704   3.862
  136PVCL2 CC1151450   0.379   7.751   3.899
  136PVCL2 H11R51451   0.291   7.798   3.853
  136PVCL2 CC1251452   0.362   7.689   4.017
  136PVCL2 H12R51453   0.263   7.692   4.064
  136PVCL2 CC1351454   0.467   7.618   4.098
  136PVCL2 H13R51455   0.544   7.574   4.031
  136PVCL2 H13S51456   0.420   7.534   4.153
  136PVCL2 CC1451457   0.538   7.708   4.200
  136PVCL2 H14R51458   0.577   7.644   4.282
  136PVCL2 H14S51459   0.468   7.780   4.248
  136PVCL2 CC1551460   0.656   7.788   4.142
  136PVCL2 H15R51461   0.621   7.856   4.062
  136PVCL2 H15S51462   0.729   7.718   4.097
  136PVCL2 CC1651463   0.726   7.870   4.252
  136PVCL2 H16R51464   0.835   7.871   4.233
  136PVCL2 H16S51465   0.711   7.820   4.349
  136PVCL2 CC1751466   0.676   8.015   4.259
  136PVCL2 H17R51467   0.717   8.071   4.172
  136PVCL2 H17S51468   0.565   8.014   4.249
  136PVCL2 CC1851469   0.713   8.086   4.389
  136PVCL2 H18R51470   0.665   8.036   4.476
  136PVCL2 H18S51471   0.679   8.192   4.387
  136PVCL2 H18T51472   0.823   8.085   4.405
  136PVCL2  CD351473   0.190   8.049   3.256
  136PVCL2  H3X51474   0.271   8.059   3.332
  136PVCL2  H3Y51475   0.163   7.942   3.250
  136PVCL2  CD451476   0.068   8.130   3.302
  136PVCL2  H4X51477  -0.016   8.114   3.231
  136PVCL2  H4Y51478   0.094   8.238   3.299
  136PVCL2  CD551479   0.021   8.099   3.445
  136PVCL2  H5X51480  -0.055   8.176   3.472
  136PVCL2  H5Y51481   0.106   8.111   3.516
  136PVCL2  CD651482  -0.047   7.963   3.462
  136PVCL2  H6X51483   0.031   7.884   3.457
  136PVCL2  H6Y51484  -0.116   7.948   3.377
  136PVCL2  CD751485  -0.130   7.947   3.591
  136PVCL2  H7X51486  -0.166   7.842   3.597
  136PVCL2  H7Y51487  -0.220   8.011   3.582
  136PVCL2  CD851488  -0.060   7.985   3.723
  136PVCL2  H8X51489  -0.119   7.947   3.809
  136PVCL2  H8Y51490  -0.063   8.095   3.729
  136PVCL2  CD951491   0.086   7.941   3.738
  136PVCL2  H9X51492   0.136   7.940   3.638
  136PVCL2  H9Y51493   0.092   7.838   3.778
  136PVCL2 CD1051494   0.169   8.037   3.825
  136PVCL2 H10X51495   0.147   8.142   3.799
  136PVCL2 H10Y51496   0.277   8.019   3.804
  136PVCL2 CD1151497   0.148   8.015   3.976
  136PVCL2 H11X51498   0.168   7.908   3.998
  136PVCL2 H11Y51499   0.042   8.034   4.004
  136PVCL2 CD1251500   0.242   8.102   4.061
  136PVCL2 H12X51501   0.191   8.195   4.090
  136PVCL2 H12Y51502   0.330   8.130   3.998
  136PVCL2 CD1351503   0.297   8.029   4.183
  136PVCL2 H13X51504   0.365   8.096   4.240
  136PVCL2 H13Y51505   0.357   7.943   4.146
  136PVCL2 CD1451506   0.190   7.975   4.280
  136PVCL2 H14X51507   0.102   7.936   4.224
  136PVCL2 H14Y51508   0.154   8.057   4.345
  136PVCL2 CD1551509   0.247   7.860   4.363
  136PVCL2 H15X51510   0.342   7.892   4.410
  136PVCL2 H15Y51511   0.268   7.775   4.296
  136PVCL2 CD1651512   0.152   7.812   4.472
  136PVCL2 H16X51513   0.134   7.894   4.545
  136PVCL2 H16Y51514   0.197   7.726   4.526
  136PVCL2 H16Z51515   0.055   7.780   4.429
21208PMB     O151516   7.439  -0.449   9.653
21208PMB     O251517   7.660  -0.433  10.112
21208PMB     O351518   7.679   0.194   9.908
21208PMB     O451519   7.535   0.033  10.306
21208PMB     O551520   7.482   0.039   9.472
21208PMB     O651521   8.226   0.348   9.425
21208PMB     O751522   8.162   0.106  10.229
21208PMB     O851523   7.764   0.684  10.042
21208PMB     O951524   7.899   0.263   9.632
21208PMB    O1051525   8.182  -0.088   9.558
21208PMB    O1151526   7.938   0.478  10.391
21208PMB    O1251527   7.775   0.514  10.630
21208PMB    O1351528   7.558   0.490  10.108
21208PMB     N151529   7.486  -0.386   9.985
21208PMB     N251530   7.529  -0.246   9.704
21208PMB     N351531   7.509  -0.181  10.275
21208PMB     N451532   7.697   0.073  10.096
21208PMB     N551533   7.976   0.141  10.116
21208PMB     N651534   7.682   0.022   9.561
21208PMB     N751535   8.094   0.421  10.249
21208PMB     N851536   7.982   0.146   9.462
21208PMB     N951537   8.132   0.033   9.733
21208PMB    N1051538   7.756   0.414  10.160
21208PMB    N1151539   7.657   0.494  10.443
21208PMB    N1251540   7.125  -0.157   9.589
21208PMB    N1351541   7.249  -0.044  10.087
21208PMB    N1451542   8.519   0.429  10.101
21208PMB    N1551543   7.649   0.530   9.499
21208PMB    N1651544   7.196   0.361  10.292
21208PMB     C151545   7.546  -0.449   9.867
21208PMB     C251546   7.536  -0.609   9.865
21208PMB     C351547   7.621  -0.687   9.972
21208PMB     C451548   7.892   0.060  10.601
21208PMB     C551549   7.827   0.195  10.642
21208PMB     C651550   7.491  -0.320  10.233
21208PMB     C751551   7.511  -0.181   9.571
21208PMB     C851552   7.903   0.183   9.999
21208PMB     C951553   7.501  -0.380   9.733
21208PMB    C1051554   7.680   0.185  10.686
21208PMB    C1151555   7.598  -0.036  10.089
21208PMB    C1251556   7.962   0.103   9.882
21208PMB    C1351557   7.551  -0.381  10.104
21208PMB    C1451558   7.625   0.310  10.757
21208PMB    C1551559   8.000   0.075  10.488
21208PMB    C1651560   7.555  -0.399  10.351
21208PMB    C1751561   7.605  -0.840   9.991
21208PMB    C1851562   7.772  -0.672   9.952
21208PMB    C1951563   7.361  -0.189   9.525
21208PMB    C2051564   8.144   0.331  10.148
21208PMB    C2151565   7.733   0.149   9.499
21208PMB    C2251566   7.481  -0.029   9.984
21208PMB    C2351567   7.750   0.150   9.998
21208PMB    C2451568   7.546  -0.061  10.228
21208PMB    C2551569   8.096   0.140   9.823
21208PMB    C2651570   7.560  -0.033   9.535
21208PMB    C2751571   8.124   0.135   9.499
21208PMB    C2851572   7.790  -0.051  10.573
21208PMB    C2951573   7.567   0.416  10.662
21208PMB    C3051574   7.871   0.504  10.161
21208PMB    C3151575   8.093   0.186  10.167
21208PMB    C3251576   7.579   0.419  10.342
21208PMB    C3351577   8.300   0.322  10.158
21208PMB    C3451578   7.648   0.279   9.530
21208PMB    C3551579   7.879   0.188   9.537
21208PMB    C3651580   8.210   0.258   9.533
21208PMB    C3751581   7.263  -0.111   9.615
21208PMB    C3851582   7.527  -0.546  10.351
21208PMB    C3951583   8.148   0.023   9.599
21208PMB    C4051584   7.969   0.467  10.273
21208PMB    C4151585   7.831   0.652  10.162
21208PMB    C4251586   8.142   0.022  10.512
21208PMB    C4351587   7.354   0.046  10.028
21208PMB    C4451588   7.672   0.476  10.576
21208PMB    C4551589   7.424   0.435  10.362
21208PMB    C4651590   7.630   0.446  10.197
21208PMB    C4751591   8.374   0.454  10.130
21208PMB    C4851592   7.692   0.398   9.443
21208PMB    C4951593   8.353   0.217   9.573
21208PMB    C5051594   7.331   0.402  10.245
21208PMB    C5151595   7.949   0.746  10.167
21208PMB    C5251596   7.631  -0.640  10.337
21208PMB    C5351597   7.396  -0.588  10.370
21208PMB    C5451598   7.602  -0.776  10.346
21208PMB    C5551599   7.367  -0.724  10.377
21208PMB    C5651600   7.471  -0.817  10.370
21208PMB     H151601   7.657  -0.440   9.870
21208PMB     H251602   7.574  -0.640   9.766
21208PMB     H351603   7.429  -0.637   9.872
21208PMB     H451604   7.592  -0.647  10.072
21208PMB     H551605   7.945   0.020  10.690
21208PMB     H651606   7.838   0.269  10.561
21208PMB     H751607   7.883   0.236  10.729
21208PMB     H851608   7.382  -0.340  10.230
21208PMB     H951609   7.565  -0.247   9.500
21208PMB    H1051610   7.916   0.291   9.978
21208PMB    H1151611   7.392  -0.354   9.976
21208PMB    H1251612   7.672   0.103  10.759
21208PMB    H1351613   7.614   0.160  10.599
21208PMB    H1451614   7.658  -0.125  10.061
21208PMB    H1551615   7.893   0.107   9.795
21208PMB    H1651616   7.972  -0.003   9.917
21208PMB    H1751617   7.585  -0.193   9.768
21208PMB    H1851618   7.540   0.276  10.820
21208PMB    H1951619   7.700   0.352  10.826
21208PMB    H2051620   8.009   0.183  10.464
21208PMB    H2151621   7.962   0.023  10.398
21208PMB    H2251622   7.519  -0.358  10.447
21208PMB    H2351623   7.665  -0.386  10.351
21208PMB    H2451624   7.631  -0.897   9.900
21208PMB    H2551625   7.504  -0.870  10.028
21208PMB    H2651626   7.676  -0.874  10.069
21208PMB    H2751627   7.800  -0.566   9.938
21208PMB    H2851628   7.804  -0.729   9.862
21208PMB    H2951629   7.828  -0.712  10.039
21208PMB    H3051630   8.117   0.367  10.046
21208PMB    H3151631   7.331  -0.296   9.523
21208PMB    H3251632   7.350  -0.155   9.420
21208PMB    H3351633   7.731   0.134   9.389
21208PMB    H3451634   7.485  -0.170  10.372
21208PMB    H3551635   7.453  -0.132   9.953
21208PMB    H3651636   7.521   0.019   9.892
21208PMB    H3751637   8.088   0.240   9.776
21208PMB    H3851638   8.173   0.147   9.903
21208PMB    H3951639   7.745   0.079  10.184
21208PMB    H4051640   7.964   0.043  10.135
21208PMB    H4151641   8.170   0.095   9.406
21208PMB    H4251642   7.733  -0.035  10.479
21208PMB    H4351643   7.718  -0.066  10.657
21208PMB    H4451644   7.846  -0.147  10.568
21208PMB    H4551645   7.525   0.498  10.723
21208PMB    H4651646   7.484   0.368  10.606
21208PMB    H4751647   7.926   0.488  10.066
21208PMB    H4851648   7.754  -0.041   9.590
21208PMB    H4951649   7.596   0.311  10.360
21208PMB    H5051650   8.336   0.246  10.085
21208PMB    H5151651   8.330   0.287  10.260
21208PMB    H5251652   7.656   0.302   9.639
21208PMB    H5351653   7.541   0.263   9.507
21208PMB    H5451654   8.151   0.422  10.332
21208PMB    H5551655   8.161   0.317   9.615
21208PMB    H5651656   7.960   0.090   9.382
21208PMB    H5751657   8.154  -0.053   9.778
21208PMB    H5851658   7.284  -0.125   9.722
21208PMB    H5951659   7.267  -0.003   9.595
21208PMB    H6051660   7.764   0.673  10.248
21208PMB    H6151661   8.164   0.000  10.620
21208PMB    H6251662   8.218   0.094  10.476
21208PMB    H6351663   8.159  -0.070  10.452
21208PMB    H6451664   7.375   0.126  10.101
21208PMB    H6551665   7.308   0.092   9.940
21208PMB    H6651666   7.400   0.536  10.403
21208PMB    H6751667   7.397   0.360  10.439
21208PMB    H6851668   7.746   0.393  10.062
21208PMB    H6951669   7.732   0.548  10.406
21208PMB    H7051670   8.331   0.503  10.042
21208PMB    H7151671   8.368   0.524  10.215
21208PMB    H7251672   7.801   0.405   9.429
21208PMB    H7351673   7.649   0.389   9.341
21208PMB    H7451674   8.414   0.307   9.595
21208PMB    H7551675   8.402   0.160   9.491
21208PMB    H7651676   8.356   0.155   9.665
21208PMB    H7751677   7.318   0.487  10.176
21208PMB    H7851678   7.372   0.318  10.186
21208PMB    H7951679   7.909   0.849  10.181
21208PMB    H8051680   8.006   0.744  10.071
21208PMB    H8151681   8.017   0.724  10.252
21208PMB    H8251682   7.733  -0.608  10.321
21208PMB    H8351683   7.318  -0.514  10.377
21208PMB    H8451684   7.105  -0.243   9.643
21208PMB    H8551685   7.116  -0.186   9.488
21208PMB    H8651686   7.267  -0.072  10.186
21208PMB    H8751687   7.240  -0.131  10.030
21208PMB    H8851688   8.287   0.305   9.365
21208PMB    H8951689   7.710   0.762  10.058
21208PMB    H9051690   7.682  -0.849  10.339
21208PMB    H9151691   7.265  -0.756  10.393
21208PMB    H9251692   8.532   0.375  10.013
21208PMB    H9351693   8.563   0.376  10.179
21208PMB    H9451694   7.694   0.551   9.590
21208PMB    H9551695   7.545   0.536   9.509
21208PMB    H9651696   7.449  -0.921  10.391
21208PMB    H9751697   7.146   0.439  10.339
21208PMB    H9851698   7.207   0.284  10.361
21208PMB    H9951699   7.054  -0.084   9.606
21208PMB   H10051700   7.157   0.003  10.083
21208PMB   H10151701   8.574   0.516  10.089
21208PMB   H10251702   7.678   0.602   9.431
21208PMB   H10351703   7.138   0.328  10.212
   8.14401   8.14401  19.47255
