;;
;; Generated by CHARMM-GUI (http://www.charmm-gui.org) v1.7
;;
;; psf2itp_mol.py
;;
;; Correspondance:
;; jul316@lehigh.edu or wonpil@lehigh.edu
;;
;; GROMACS topology file for PMB
;;


[ moleculetype ]
; name	nrexcl
PMB	     3

[ atoms ]
; nr	type	resnr	residu	atom	cgnr	charge	mass
     1      OG2D1      1      PMB     O1      1     -0.509    15.9994   ; qtot -0.509
     2      OG2D1      1      PMB     O2      2     -0.509    15.9994   ; qtot -1.018
     3      OG2D1      1      PMB     O3      3     -0.509    15.9994   ; qtot -1.527
     4      OG2D1      1      PMB     O4      4     -0.509    15.9994   ; qtot -2.036
     5      OG2D1      1      PMB     O5      5     -0.509    15.9994   ; qtot -2.545
     6      OG311      1      PMB     O6      6     -0.651    15.9994   ; qtot -3.196
     7      OG2D1      1      PMB     O7      7     -0.509    15.9994   ; qtot -3.705
     8      OG311      1      PMB     O8      8     -0.651    15.9994   ; qtot -4.356
     9      OG2D1      1      PMB     O9      9     -0.509    15.9994   ; qtot -4.865
    10      OG2D1      1      PMB    O10     10     -0.514    15.9994   ; qtot -5.379
    11      OG2D1      1      PMB    O11     11     -0.510    15.9994   ; qtot -5.889
    12      OG2D1      1      PMB    O12     12     -0.517    15.9994   ; qtot -6.406
    13      OG2D1      1      PMB    O13     13     -0.509    15.9994   ; qtot -6.915
    14      NG2S1      1      PMB     N1     14     -0.469    14.0070   ; qtot -7.384
    15      NG2S1      1      PMB     N2     15     -0.457    14.0070   ; qtot -7.841
    16      NG2S1      1      PMB     N3     16     -0.467    14.0070   ; qtot -8.308
    17      NG2S1      1      PMB     N4     17     -0.457    14.0070   ; qtot -8.765
    18      NG2S1      1      PMB     N5     18     -0.461    14.0070   ; qtot -9.226
    19      NG2S1      1      PMB     N6     19     -0.457    14.0070   ; qtot -9.683
    20      NG2S1      1      PMB     N7     20     -0.466    14.0070   ; qtot -10.149
    21      NG2S1      1      PMB     N8     21     -0.441    14.0070   ; qtot -10.590
    22      NG2S1      1      PMB     N9     22     -0.451    14.0070   ; qtot -11.041
    23      NG2S1      1      PMB    N10     23     -0.441    14.0070   ; qtot -11.482
    24      NG2S1      1      PMB    N11     24     -0.445    14.0070   ; qtot -11.927
    25      NG3P3      1      PMB    N12     25     -0.304    14.0070   ; qtot -12.231
    26      NG3P3      1      PMB    N13     26     -0.304    14.0070   ; qtot -12.535
    27      NG3P3      1      PMB    N14     27     -0.304    14.0070   ; qtot -12.839
    28      NG3P3      1      PMB    N15     28     -0.304    14.0070   ; qtot -13.143
    29      NG3P3      1      PMB    N16     29     -0.304    14.0070   ; qtot -13.447
    30      CG311      1      PMB     C1     30      0.063    12.0110   ; qtot -13.384
    31      CG321      1      PMB     C2     31     -0.178    12.0110   ; qtot -13.562
    32      CG311      1      PMB     C3     32     -0.099    12.0110   ; qtot -13.661
    33      CG311      1      PMB     C4     33     -0.107    12.0110   ; qtot -13.768
    34      CG321      1      PMB     C5     34     -0.175    12.0110   ; qtot -13.943
    35      CG311      1      PMB     C6     35      0.066    12.0110   ; qtot -13.877
    36      CG311      1      PMB     C7     36      0.095    12.0110   ; qtot -13.782
    37      CG311      1      PMB     C8     37      0.078    12.0110   ; qtot -13.704
    38      CG2O1      1      PMB     C9     38      0.512    12.0110   ; qtot -13.192
    39      CG321      1      PMB    C10     39     -0.157    12.0110   ; qtot -13.349
    40      CG311      1      PMB    C11     40      0.095    12.0110   ; qtot -13.254
    41      CG321      1      PMB    C12     41     -0.185    12.0110   ; qtot -13.439
    42      CG2O1      1      PMB    C13     42      0.513    12.0110   ; qtot -12.926
    43      CG321      1      PMB    C14     43     -0.153    12.0110   ; qtot -13.079
    44      CG321      1      PMB    C15     44     -0.171    12.0110   ; qtot -13.250
    45      CG321      1      PMB    C16     45     -0.180    12.0110   ; qtot -13.430
    46      CG331      1      PMB    C17     46     -0.268    12.0110   ; qtot -13.698
    47      CG331      1      PMB    C18     47     -0.268    12.0110   ; qtot -13.966
    48      CG321      1      PMB    C19     48     -0.226    12.0110   ; qtot -14.192
    49      CG311      1      PMB    C20     49      0.095    12.0110   ; qtot -14.097
    50      CG311      1      PMB    C21     50      0.095    12.0110   ; qtot -14.002
    51      CG321      1      PMB    C22     51     -0.226    12.0110   ; qtot -14.228
    52      CG2O1      1      PMB    C23     52      0.512    12.0110   ; qtot -13.716
    53      CG2O1      1      PMB    C24     53      0.549    12.0110   ; qtot -13.167
    54      CG321      1      PMB    C25     54     -0.082    12.0110   ; qtot -13.249
    55      CG2O1      1      PMB    C26     55      0.549    12.0110   ; qtot -12.700
    56      CG311      1      PMB    C27     56      0.071    12.0110   ; qtot -12.629
    57      CG331      1      PMB    C28     57     -0.270    12.0110   ; qtot -12.899
    58      CG321      1      PMB    C29     58     -0.204    12.0110   ; qtot -13.103
    59      CG311      1      PMB    C30     59      0.072    12.0110   ; qtot -13.031
    60      CG2O1      1      PMB    C31     60      0.549    12.0110   ; qtot -12.482
    61      CG311      1      PMB    C32     61      0.094    12.0110   ; qtot -12.388
    62      CG321      1      PMB    C33     62     -0.226    12.0110   ; qtot -12.614
    63      CG321      1      PMB    C34     63     -0.226    12.0110   ; qtot -12.840
    64      CG2O1      1      PMB    C35     64      0.532    12.0110   ; qtot -12.308
    65      CG311      1      PMB    C36     65      0.150    12.0110   ; qtot -12.158
    66      CG324      1      PMB    C37     66      0.102    12.0110   ; qtot -12.056
    67     CG2R61      1      PMB    C38     67     -0.003    12.0110   ; qtot -12.059
    68      CG2O1      1      PMB    C39     68      0.532    12.0110   ; qtot -11.527
    69      CG2O1      1      PMB    C40     69      0.540    12.0110   ; qtot -10.987
    70      CG311      1      PMB    C41     70      0.150    12.0110   ; qtot -10.837
    71      CG331      1      PMB    C42     71     -0.267    12.0110   ; qtot -11.104
    72      CG324      1      PMB    C43     72      0.102    12.0110   ; qtot -11.002
    73      CG2O1      1      PMB    C44     73      0.499    12.0110   ; qtot -10.503
    74      CG321      1      PMB    C45     74     -0.226    12.0110   ; qtot -10.729
    75      CG2O1      1      PMB    C46     75      0.532    12.0110   ; qtot -10.197
    76      CG324      1      PMB    C47     76      0.102    12.0110   ; qtot -10.095
    77      CG324      1      PMB    C48     77      0.102    12.0110   ; qtot -9.993
    78      CG331      1      PMB    C49     78     -0.271    12.0110   ; qtot -10.264
    79      CG324      1      PMB    C50     79      0.102    12.0110   ; qtot -10.162
    80      CG331      1      PMB    C51     80     -0.271    12.0110   ; qtot -10.433
    81     CG2R61      1      PMB    C52     81     -0.123    12.0110   ; qtot -10.556
    82     CG2R61      1      PMB    C53     82     -0.123    12.0110   ; qtot -10.679
    83     CG2R61      1      PMB    C54     83     -0.112    12.0110   ; qtot -10.791
    84     CG2R61      1      PMB    C55     84     -0.112    12.0110   ; qtot -10.903
    85     CG2R61      1      PMB    C56     85     -0.116    12.0110   ; qtot -11.019
    86       HGA1      1      PMB     H1     86      0.090     1.0080   ; qtot -10.929
    87       HGA2      1      PMB     H2     87      0.090     1.0080   ; qtot -10.839
    88       HGA2      1      PMB     H3     88      0.090     1.0080   ; qtot -10.749
    89       HGA1      1      PMB     H4     89      0.090     1.0080   ; qtot -10.659
    90       HGA1      1      PMB     H5     90      0.090     1.0080   ; qtot -10.569
    91       HGA2      1      PMB     H6     91      0.090     1.0080   ; qtot -10.479
    92       HGA2      1      PMB     H7     92      0.090     1.0080   ; qtot -10.389
    93       HGA1      1      PMB     H8     93      0.090     1.0080   ; qtot -10.299
    94       HGA1      1      PMB     H9     94      0.090     1.0080   ; qtot -10.209
    95       HGA1      1      PMB    H10     95      0.090     1.0080   ; qtot -10.119
    96       HGP1      1      PMB    H11     96      0.316     1.0080   ; qtot -9.803
    97       HGA2      1      PMB    H12     97      0.090     1.0080   ; qtot -9.713
    98       HGA2      1      PMB    H13     98      0.090     1.0080   ; qtot -9.623
    99       HGA1      1      PMB    H14     99      0.090     1.0080   ; qtot -9.533
   100       HGA2      1      PMB    H15    100      0.090     1.0080   ; qtot -9.443
   101       HGA2      1      PMB    H16    101      0.090     1.0080   ; qtot -9.353
   102       HGP1      1      PMB    H17    102      0.316     1.0080   ; qtot -9.037
   103       HGA2      1      PMB    H18    103      0.090     1.0080   ; qtot -8.947
   104       HGA2      1      PMB    H19    104      0.090     1.0080   ; qtot -8.857
   105       HGA2      1      PMB    H20    105      0.090     1.0080   ; qtot -8.767
   106       HGA2      1      PMB    H21    106      0.090     1.0080   ; qtot -8.677
   107       HGA2      1      PMB    H22    107      0.090     1.0080   ; qtot -8.587
   108       HGA2      1      PMB    H23    108      0.090     1.0080   ; qtot -8.497
   109       HGA3      1      PMB    H24    109      0.090     1.0080   ; qtot -8.407
   110       HGA3      1      PMB    H25    110      0.090     1.0080   ; qtot -8.317
   111       HGA3      1      PMB    H26    111      0.090     1.0080   ; qtot -8.227
   112       HGA3      1      PMB    H27    112      0.090     1.0080   ; qtot -8.137
   113       HGA3      1      PMB    H28    113      0.090     1.0080   ; qtot -8.047
   114       HGA3      1      PMB    H29    114      0.090     1.0080   ; qtot -7.957
   115       HGA1      1      PMB    H30    115      0.090     1.0080   ; qtot -7.867
   116       HGA2      1      PMB    H31    116      0.090     1.0080   ; qtot -7.777
   117       HGA2      1      PMB    H32    117      0.090     1.0080   ; qtot -7.687
   118       HGA1      1      PMB    H33    118      0.090     1.0080   ; qtot -7.597
   119       HGP1      1      PMB    H34    119      0.316     1.0080   ; qtot -7.281
   120       HGA2      1      PMB    H35    120      0.090     1.0080   ; qtot -7.191
   121       HGA2      1      PMB    H36    121      0.090     1.0080   ; qtot -7.101
   122       HGA2      1      PMB    H37    122      0.090     1.0080   ; qtot -7.011
   123       HGA2      1      PMB    H38    123      0.090     1.0080   ; qtot -6.921
   124       HGP1      1      PMB    H39    124      0.316     1.0080   ; qtot -6.605
   125       HGP1      1      PMB    H40    125      0.316     1.0080   ; qtot -6.289
   126       HGA1      1      PMB    H41    126      0.090     1.0080   ; qtot -6.199
   127       HGA3      1      PMB    H42    127      0.090     1.0080   ; qtot -6.109
   128       HGA3      1      PMB    H43    128      0.090     1.0080   ; qtot -6.019
   129       HGA3      1      PMB    H44    129      0.090     1.0080   ; qtot -5.929
   130       HGA2      1      PMB    H45    130      0.090     1.0080   ; qtot -5.839
   131       HGA2      1      PMB    H46    131      0.090     1.0080   ; qtot -5.749
   132       HGA1      1      PMB    H47    132      0.090     1.0080   ; qtot -5.659
   133       HGP1      1      PMB    H48    133      0.316     1.0080   ; qtot -5.343
   134       HGA1      1      PMB    H49    134      0.090     1.0080   ; qtot -5.253
   135       HGA2      1      PMB    H50    135      0.090     1.0080   ; qtot -5.163
   136       HGA2      1      PMB    H51    136      0.090     1.0080   ; qtot -5.073
   137       HGA2      1      PMB    H52    137      0.090     1.0080   ; qtot -4.983
   138       HGA2      1      PMB    H53    138      0.090     1.0080   ; qtot -4.893
   139       HGP1      1      PMB    H54    139      0.316     1.0080   ; qtot -4.577
   140       HGA1      1      PMB    H55    140      0.090     1.0080   ; qtot -4.487
   141       HGP1      1      PMB    H56    141      0.269     1.0080   ; qtot -4.218
   142       HGP1      1      PMB    H57    142      0.305     1.0080   ; qtot -3.913
   143       HGA2      1      PMB    H58    143      0.090     1.0080   ; qtot -3.823
   144       HGA2      1      PMB    H59    144      0.090     1.0080   ; qtot -3.733
   145       HGA1      1      PMB    H60    145      0.090     1.0080   ; qtot -3.643
   146       HGA3      1      PMB    H61    146      0.090     1.0080   ; qtot -3.553
   147       HGA3      1      PMB    H62    147      0.090     1.0080   ; qtot -3.463
   148       HGA3      1      PMB    H63    148      0.090     1.0080   ; qtot -3.373
   149       HGA2      1      PMB    H64    149      0.090     1.0080   ; qtot -3.283
   150       HGA2      1      PMB    H65    150      0.090     1.0080   ; qtot -3.193
   151       HGA2      1      PMB    H66    151      0.090     1.0080   ; qtot -3.103
   152       HGA2      1      PMB    H67    152      0.090     1.0080   ; qtot -3.013
   153       HGP1      1      PMB    H68    153      0.269     1.0080   ; qtot -2.744
   154       HGP1      1      PMB    H69    154      0.328     1.0080   ; qtot -2.416
   155       HGA2      1      PMB    H70    155      0.090     1.0080   ; qtot -2.326
   156       HGA2      1      PMB    H71    156      0.090     1.0080   ; qtot -2.236
   157       HGA2      1      PMB    H72    157      0.090     1.0080   ; qtot -2.146
   158       HGA2      1      PMB    H73    158      0.090     1.0080   ; qtot -2.056
   159       HGA3      1      PMB    H74    159      0.090     1.0080   ; qtot -1.966
   160       HGA3      1      PMB    H75    160      0.090     1.0080   ; qtot -1.876
   161       HGA3      1      PMB    H76    161      0.090     1.0080   ; qtot -1.786
   162       HGA2      1      PMB    H77    162      0.090     1.0080   ; qtot -1.696
   163       HGA2      1      PMB    H78    163      0.090     1.0080   ; qtot -1.606
   164       HGA3      1      PMB    H79    164      0.090     1.0080   ; qtot -1.516
   165       HGA3      1      PMB    H80    165      0.090     1.0080   ; qtot -1.426
   166       HGA3      1      PMB    H81    166      0.090     1.0080   ; qtot -1.336
   167      HGR61      1      PMB    H82    167      0.116     1.0080   ; qtot -1.220
   168      HGR61      1      PMB    H83    168      0.116     1.0080   ; qtot -1.104
   169       HGP2      1      PMB    H84    169      0.328     1.0080   ; qtot -0.776
   170       HGP2      1      PMB    H85    170      0.328     1.0080   ; qtot -0.448
   171       HGP2      1      PMB    H86    171      0.328     1.0080   ; qtot -0.120
   172       HGP2      1      PMB    H87    172      0.328     1.0080   ; qtot  0.208
   173       HGP1      1      PMB    H88    173      0.418     1.0080   ; qtot  0.626
   174       HGP1      1      PMB    H89    174      0.418     1.0080   ; qtot  1.044
   175      HGR61      1      PMB    H90    175      0.116     1.0080   ; qtot  1.160
   176      HGR61      1      PMB    H91    176      0.116     1.0080   ; qtot  1.276
   177       HGP2      1      PMB    H92    177      0.328     1.0080   ; qtot  1.604
   178       HGP2      1      PMB    H93    178      0.328     1.0080   ; qtot  1.932
   179       HGP2      1      PMB    H94    179      0.328     1.0080   ; qtot  2.260
   180       HGP2      1      PMB    H95    180      0.328     1.0080   ; qtot  2.588
   181      HGR61      1      PMB    H96    181      0.116     1.0080   ; qtot  2.704
   182       HGP2      1      PMB    H97    182      0.328     1.0080   ; qtot  3.032
   183       HGP2      1      PMB    H98    183      0.328     1.0080   ; qtot  3.360
   184       HGP2      1      PMB    H99    184      0.328     1.0080   ; qtot  3.688
   185       HGP2      1      PMB   H100    185      0.328     1.0080   ; qtot  4.016
   186       HGP2      1      PMB   H101    186      0.328     1.0080   ; qtot  4.344
   187       HGP2      1      PMB   H102    187      0.328     1.0080   ; qtot  4.672
   188       HGP2      1      PMB   H103    188      0.328     1.0080   ; qtot  5.000

[ bonds ]
; ai	aj	funct	b0	Kb
    1    38     1
    2    42     1
    3    52     1
    4    53     1
    5    55     1
    6    65     1
    6   173     1
    7    60     1
    8    70     1
    8   174     1
    9    64     1
   10    68     1
   11    69     1
   12    73     1
   13    75     1
   14    30     1
   14    42     1
   14    96     1
   15    36     1
   15    38     1
   15   102     1
   16    35     1
   16    53     1
   16   119     1
   17    40     1
   17    52     1
   17   124     1
   18    37     1
   18    60     1
   18   125     1
   19    50     1
   19    55     1
   19   133     1
   20    49     1
   20    69     1
   20   139     1
   21    56     1
   21    64     1
   21   141     1
   22    54     1
   22    68     1
   22   142     1
   23    59     1
   23    75     1
   23   153     1
   24    61     1
   24    73     1
   24   154     1
   25    66     1
   25   169     1
   25   170     1
   25   184     1
   26    72     1
   26   171     1
   26   172     1
   26   185     1
   27    76     1
   27   177     1
   27   178     1
   27   186     1
   28    77     1
   28   179     1
   28   180     1
   28   187     1
   29    79     1
   29   182     1
   29   183     1
   29   188     1
   30    31     1
   30    38     1
   30    86     1
   31    32     1
   31    87     1
   31    88     1
   32    46     1
   32    47     1
   32    89     1
   33    34     1
   33    44     1
   33    57     1
   33    90     1
   34    39     1
   34    91     1
   34    92     1
   35    42     1
   35    45     1
   35    93     1
   36    48     1
   36    55     1
   36    94     1
   37    41     1
   37    52     1
   37    95     1
   39    43     1
   39    97     1
   39    98     1
   40    51     1
   40    53     1
   40    99     1
   41    54     1
   41   100     1
   41   101     1
   43    58     1
   43   103     1
   43   104     1
   44    71     1
   44   105     1
   44   106     1
   45    67     1
   45   107     1
   45   108     1
   46   109     1
   46   110     1
   46   111     1
   47   112     1
   47   113     1
   47   114     1
   48    66     1
   48   116     1
   48   117     1
   49    60     1
   49    62     1
   49   115     1
   50    63     1
   50    64     1
   50   118     1
   51    72     1
   51   120     1
   51   121     1
   54   122     1
   54   123     1
   56    65     1
   56    68     1
   56   126     1
   57   127     1
   57   128     1
   57   129     1
   58    73     1
   58   130     1
   58   131     1
   59    69     1
   59    70     1
   59   132     1
   61    74     1
   61    75     1
   61   134     1
   62    76     1
   62   135     1
   62   136     1
   63    77     1
   63   137     1
   63   138     1
   65    78     1
   65   140     1
   66   143     1
   66   144     1
   67    81     1
   67    82     1
   70    80     1
   70   145     1
   71   146     1
   71   147     1
   71   148     1
   72   149     1
   72   150     1
   74    79     1
   74   151     1
   74   152     1
   76   155     1
   76   156     1
   77   157     1
   77   158     1
   78   159     1
   78   160     1
   78   161     1
   79   162     1
   79   163     1
   80   164     1
   80   165     1
   80   166     1
   81    83     1
   81   167     1
   82    84     1
   82   168     1
   83    85     1
   83   175     1
   84    85     1
   84   176     1
   85   181     1

[ pairs ]
; ai	aj	funct	c6	c12
    1    14     1 
    1    31     1 
    1    36     1 
    1    86     1 
    1   102     1 
    2    16     1 
    2    30     1 
    2    45     1 
    2    93     1 
    2    96     1 
    3    18     1 
    3    40     1 
    3    41     1 
    3    95     1 
    3   124     1 
    4    17     1 
    4    35     1 
    4    51     1 
    4    99     1 
    4   119     1 
    5    15     1 
    5    48     1 
    5    50     1 
    5    94     1 
    5   133     1 
    6    21     1 
    6    68     1 
    6   126     1 
    6   159     1 
    6   160     1 
    6   161     1 
    7    20     1 
    7    37     1 
    7    62     1 
    7   115     1 
    7   125     1 
    8    23     1 
    8    69     1 
    8   132     1 
    8   164     1 
    8   165     1 
    8   166     1 
    9    19     1 
    9    56     1 
    9    63     1 
    9   118     1 
    9   141     1 
   10    21     1 
   10    54     1 
   10    65     1 
   10   126     1 
   10   142     1 
   11    23     1 
   11    49     1 
   11    70     1 
   11   132     1 
   11   139     1 
   12    43     1 
   12    61     1 
   12   130     1 
   12   131     1 
   12   154     1 
   13    24     1 
   13    59     1 
   13    74     1 
   13   134     1 
   13   153     1 
   14    15     1 
   14    16     1 
   14    32     1 
   14    45     1 
   14    87     1 
   14    88     1 
   14    93     1 
   15    19     1 
   15    31     1 
   15    66     1 
   15    86     1 
   15   116     1 
   15   117     1 
   16    17     1 
   16    51     1 
   16    67     1 
   16    99     1 
   16   107     1 
   16   108     1 
   17    18     1 
   17    41     1 
   17    72     1 
   17    95     1 
   17   120     1 
   17   121     1 
   18    20     1 
   18    54     1 
   18    62     1 
   18   100     1 
   18   101     1 
   18   115     1 
   19    21     1 
   19    48     1 
   19    77     1 
   19    94     1 
   19   137     1 
   19   138     1 
   20    23     1 
   20    70     1 
   20    76     1 
   20   132     1 
   20   135     1 
   20   136     1 
   21    22     1 
   21    63     1 
   21    78     1 
   21   118     1 
   21   140     1 
   22    37     1 
   22    65     1 
   22   100     1 
   22   101     1 
   22   126     1 
   23    24     1 
   23    74     1 
   23    80     1 
   23   134     1 
   23   145     1 
   24    43     1 
   24    79     1 
   24   130     1 
   24   131     1 
   24   151     1 
   24   152     1 
   25    36     1 
   25   116     1 
   25   117     1 
   26    40     1 
   26   120     1 
   26   121     1 
   27    49     1 
   27   135     1 
   27   136     1 
   28    50     1 
   28   137     1 
   28   138     1 
   29    61     1 
   29   151     1 
   29   152     1 
   30    35     1 
   30    36     1 
   30    46     1 
   30    47     1 
   30    89     1 
   30   102     1 
   31    42     1 
   31    96     1 
   31   109     1 
   31   110     1 
   31   111     1 
   31   112     1 
   31   113     1 
   31   114     1 
   32    38     1 
   32    86     1 
   33    43     1 
   33    97     1 
   33    98     1 
   33   146     1 
   33   147     1 
   33   148     1 
   34    58     1 
   34    71     1 
   34   103     1 
   34   104     1 
   34   105     1 
   34   106     1 
   34   127     1 
   34   128     1 
   34   129     1 
   35    40     1 
   35    81     1 
   35    82     1 
   35    96     1 
   36    50     1 
   36   133     1 
   36   143     1 
   36   144     1 
   37    40     1 
   37    49     1 
   37   122     1 
   37   123     1 
   37   124     1 
   38    42     1 
   38    48     1 
   38    55     1 
   38    87     1 
   38    88     1 
   38    94     1 
   38    96     1 
   39    44     1 
   39    57     1 
   39    73     1 
   39    90     1 
   39   130     1 
   39   131     1 
   40   119     1 
   40   149     1 
   40   150     1 
   41    60     1 
   41    68     1 
   41   125     1 
   41   142     1 
   42    53     1 
   42    67     1 
   42    86     1 
   42   107     1 
   42   108     1 
   42   119     1 
   43    91     1 
   43    92     1 
   44    91     1 
   44    92     1 
   44   127     1 
   44   128     1 
   44   129     1 
   45    53     1 
   45    83     1 
   45    84     1 
   45   119     1 
   45   167     1 
   45   168     1 
   46    87     1 
   46    88     1 
   46   112     1 
   46   113     1 
   46   114     1 
   47    87     1 
   47    88     1 
   47   109     1 
   47   110     1 
   47   111     1 
   48   102     1 
   48   169     1 
   48   170     1 
   48   184     1 
   49    59     1 
   49   125     1 
   49   155     1 
   49   156     1 
   50    56     1 
   50   141     1 
   50   157     1 
   50   158     1 
   51    52     1 
   51   124     1 
   51   171     1 
   51   172     1 
   51   185     1 
   52    53     1 
   52    54     1 
   52    60     1 
   52    99     1 
   52   100     1 
   52   101     1 
   52   125     1 
   53    72     1 
   53    93     1 
   53   120     1 
   53   121     1 
   53   124     1 
   54    56     1 
   54    95     1 
   55    63     1 
   55    64     1 
   55    66     1 
   55   102     1 
   55   116     1 
   55   117     1 
   55   118     1 
   56   142     1 
   56   159     1 
   56   160     1 
   56   161     1 
   56   173     1 
   57    71     1 
   57    91     1 
   57    92     1 
   57   105     1 
   57   106     1 
   58    61     1 
   58    97     1 
   58    98     1 
   58   154     1 
   59    61     1 
   59   139     1 
   59   164     1 
   59   165     1 
   59   166     1 
   59   174     1 
   60    69     1 
   60    76     1 
   60    95     1 
   60   135     1 
   60   136     1 
   60   139     1 
   61   153     1 
   61   162     1 
   61   163     1 
   62    69     1 
   62   139     1 
   62   177     1 
   62   178     1 
   62   186     1 
   63   133     1 
   63   179     1 
   63   180     1 
   63   187     1 
   64    65     1 
   64    68     1 
   64    77     1 
   64   126     1 
   64   133     1 
   64   137     1 
   64   138     1 
   65   141     1 
   66    94     1 
   67    85     1 
   67    93     1 
   67   175     1 
   67   176     1 
   68    78     1 
   68   122     1 
   68   123     1 
   68   140     1 
   68   141     1 
   69    75     1 
   69    80     1 
   69   115     1 
   69   145     1 
   69   153     1 
   70    75     1 
   70   153     1 
   71    90     1 
   72    99     1 
   73    74     1 
   73    75     1 
   73   103     1 
   73   104     1 
   73   134     1 
   74   154     1 
   74   182     1 
   74   183     1 
   74   188     1 
   75    79     1 
   75   132     1 
   75   151     1 
   75   152     1 
   75   154     1 
   76   115     1 
   77   118     1 
   78   126     1 
   78   173     1 
   79   134     1 
   80   132     1 
   80   174     1 
   81    84     1 
   81   107     1 
   81   108     1 
   81   168     1 
   81   181     1 
   82    83     1 
   82   107     1 
   82   108     1 
   82   167     1 
   82   181     1 
   83   176     1 
   84   175     1 
   85   167     1 
   85   168     1 
   86    87     1 
   86    88     1 
   86    96     1 
   87    89     1 
   88    89     1 
   89   109     1 
   89   110     1 
   89   111     1 
   89   112     1 
   89   113     1 
   89   114     1 
   90    91     1 
   90    92     1 
   90   105     1 
   90   106     1 
   90   127     1 
   90   128     1 
   90   129     1 
   91    97     1 
   91    98     1 
   92    97     1 
   92    98     1 
   93   107     1 
   93   108     1 
   93   119     1 
   94   102     1 
   94   116     1 
   94   117     1 
   95   100     1 
   95   101     1 
   95   125     1 
   97   103     1 
   97   104     1 
   98   103     1 
   98   104     1 
   99   120     1 
   99   121     1 
   99   124     1 
  100   122     1 
  100   123     1 
  101   122     1 
  101   123     1 
  103   130     1 
  103   131     1 
  104   130     1 
  104   131     1 
  105   146     1 
  105   147     1 
  105   148     1 
  106   146     1 
  106   147     1 
  106   148     1 
  115   135     1 
  115   136     1 
  115   139     1 
  116   143     1 
  116   144     1 
  117   143     1 
  117   144     1 
  118   133     1 
  118   137     1 
  118   138     1 
  120   149     1 
  120   150     1 
  121   149     1 
  121   150     1 
  122   142     1 
  123   142     1 
  126   140     1 
  126   141     1 
  132   145     1 
  132   153     1 
  134   151     1 
  134   152     1 
  134   154     1 
  135   155     1 
  135   156     1 
  136   155     1 
  136   156     1 
  137   157     1 
  137   158     1 
  138   157     1 
  138   158     1 
  140   159     1 
  140   160     1 
  140   161     1 
  140   173     1 
  143   169     1 
  143   170     1 
  143   184     1 
  144   169     1 
  144   170     1 
  144   184     1 
  145   164     1 
  145   165     1 
  145   166     1 
  145   174     1 
  149   171     1 
  149   172     1 
  149   185     1 
  150   171     1 
  150   172     1 
  150   185     1 
  151   162     1 
  151   163     1 
  152   162     1 
  152   163     1 
  155   177     1 
  155   178     1 
  155   186     1 
  156   177     1 
  156   178     1 
  156   186     1 
  157   179     1 
  157   180     1 
  157   187     1 
  158   179     1 
  158   180     1 
  158   187     1 
  162   182     1 
  162   183     1 
  162   188     1 
  163   182     1 
  163   183     1 
  163   188     1 
  167   175     1 
  168   176     1 
  175   181     1 
  176   181     1 

[ angles ] 
; ai	aj	ak	funct	th0	cth	S0	Kub
   65     6   173     5
   70     8   174     5
   30    14    42     5
   30    14    96     5
   42    14    96     5
   36    15    38     5
   36    15   102     5
   38    15   102     5
   35    16    53     5
   35    16   119     5
   53    16   119     5
   40    17    52     5
   40    17   124     5
   52    17   124     5
   37    18    60     5
   37    18   125     5
   60    18   125     5
   50    19    55     5
   50    19   133     5
   55    19   133     5
   49    20    69     5
   49    20   139     5
   69    20   139     5
   56    21    64     5
   56    21   141     5
   64    21   141     5
   54    22    68     5
   54    22   142     5
   68    22   142     5
   59    23    75     5
   59    23   153     5
   75    23   153     5
   61    24    73     5
   61    24   154     5
   73    24   154     5
   66    25   169     5
   66    25   170     5
   66    25   184     5
  169    25   170     5
  169    25   184     5
  170    25   184     5
   72    26   171     5
   72    26   172     5
   72    26   185     5
  171    26   172     5
  171    26   185     5
  172    26   185     5
   76    27   177     5
   76    27   178     5
   76    27   186     5
  177    27   178     5
  177    27   186     5
  178    27   186     5
   77    28   179     5
   77    28   180     5
   77    28   187     5
  179    28   180     5
  179    28   187     5
  180    28   187     5
   79    29   182     5
   79    29   183     5
   79    29   188     5
  182    29   183     5
  182    29   188     5
  183    29   188     5
   14    30    31     5
   14    30    38     5
   14    30    86     5
   31    30    38     5
   31    30    86     5
   38    30    86     5
   30    31    32     5
   30    31    87     5
   30    31    88     5
   32    31    87     5
   32    31    88     5
   87    31    88     5
   31    32    46     5
   31    32    47     5
   31    32    89     5
   46    32    47     5
   46    32    89     5
   47    32    89     5
   34    33    44     5
   34    33    57     5
   34    33    90     5
   44    33    57     5
   44    33    90     5
   57    33    90     5
   33    34    39     5
   33    34    91     5
   33    34    92     5
   39    34    91     5
   39    34    92     5
   91    34    92     5
   16    35    42     5
   16    35    45     5
   16    35    93     5
   42    35    45     5
   42    35    93     5
   45    35    93     5
   15    36    48     5
   15    36    55     5
   15    36    94     5
   48    36    55     5
   48    36    94     5
   55    36    94     5
   18    37    41     5
   18    37    52     5
   18    37    95     5
   41    37    52     5
   41    37    95     5
   52    37    95     5
    1    38    15     5
    1    38    30     5
   15    38    30     5
   34    39    43     5
   34    39    97     5
   34    39    98     5
   43    39    97     5
   43    39    98     5
   97    39    98     5
   17    40    51     5
   17    40    53     5
   17    40    99     5
   51    40    53     5
   51    40    99     5
   53    40    99     5
   37    41    54     5
   37    41   100     5
   37    41   101     5
   54    41   100     5
   54    41   101     5
  100    41   101     5
    2    42    14     5
    2    42    35     5
   14    42    35     5
   39    43    58     5
   39    43   103     5
   39    43   104     5
   58    43   103     5
   58    43   104     5
  103    43   104     5
   33    44    71     5
   33    44   105     5
   33    44   106     5
   71    44   105     5
   71    44   106     5
  105    44   106     5
   35    45    67     5
   35    45   107     5
   35    45   108     5
   67    45   107     5
   67    45   108     5
  107    45   108     5
   32    46   109     5
   32    46   110     5
   32    46   111     5
  109    46   110     5
  109    46   111     5
  110    46   111     5
   32    47   112     5
   32    47   113     5
   32    47   114     5
  112    47   113     5
  112    47   114     5
  113    47   114     5
   36    48    66     5
   36    48   116     5
   36    48   117     5
   66    48   116     5
   66    48   117     5
  116    48   117     5
   20    49    60     5
   20    49    62     5
   20    49   115     5
   60    49    62     5
   60    49   115     5
   62    49   115     5
   19    50    63     5
   19    50    64     5
   19    50   118     5
   63    50    64     5
   63    50   118     5
   64    50   118     5
   40    51    72     5
   40    51   120     5
   40    51   121     5
   72    51   120     5
   72    51   121     5
  120    51   121     5
    3    52    17     5
    3    52    37     5
   17    52    37     5
    4    53    16     5
    4    53    40     5
   16    53    40     5
   22    54    41     5
   22    54   122     5
   22    54   123     5
   41    54   122     5
   41    54   123     5
  122    54   123     5
    5    55    19     5
    5    55    36     5
   19    55    36     5
   21    56    65     5
   21    56    68     5
   21    56   126     5
   65    56    68     5
   65    56   126     5
   68    56   126     5
   33    57   127     5
   33    57   128     5
   33    57   129     5
  127    57   128     5
  127    57   129     5
  128    57   129     5
   43    58    73     5
   43    58   130     5
   43    58   131     5
   73    58   130     5
   73    58   131     5
  130    58   131     5
   23    59    69     5
   23    59    70     5
   23    59   132     5
   69    59    70     5
   69    59   132     5
   70    59   132     5
    7    60    18     5
    7    60    49     5
   18    60    49     5
   24    61    74     5
   24    61    75     5
   24    61   134     5
   74    61    75     5
   74    61   134     5
   75    61   134     5
   49    62    76     5
   49    62   135     5
   49    62   136     5
   76    62   135     5
   76    62   136     5
  135    62   136     5
   50    63    77     5
   50    63   137     5
   50    63   138     5
   77    63   137     5
   77    63   138     5
  137    63   138     5
    9    64    21     5
    9    64    50     5
   21    64    50     5
    6    65    56     5
    6    65    78     5
    6    65   140     5
   56    65    78     5
   56    65   140     5
   78    65   140     5
   25    66    48     5
   25    66   143     5
   25    66   144     5
   48    66   143     5
   48    66   144     5
  143    66   144     5
   45    67    81     5
   45    67    82     5
   81    67    82     5
   10    68    22     5
   10    68    56     5
   22    68    56     5
   11    69    20     5
   11    69    59     5
   20    69    59     5
    8    70    59     5
    8    70    80     5
    8    70   145     5
   59    70    80     5
   59    70   145     5
   80    70   145     5
   44    71   146     5
   44    71   147     5
   44    71   148     5
  146    71   147     5
  146    71   148     5
  147    71   148     5
   26    72    51     5
   26    72   149     5
   26    72   150     5
   51    72   149     5
   51    72   150     5
  149    72   150     5
   12    73    24     5
   12    73    58     5
   24    73    58     5
   61    74    79     5
   61    74   151     5
   61    74   152     5
   79    74   151     5
   79    74   152     5
  151    74   152     5
   13    75    23     5
   13    75    61     5
   23    75    61     5
   27    76    62     5
   27    76   155     5
   27    76   156     5
   62    76   155     5
   62    76   156     5
  155    76   156     5
   28    77    63     5
   28    77   157     5
   28    77   158     5
   63    77   157     5
   63    77   158     5
  157    77   158     5
   65    78   159     5
   65    78   160     5
   65    78   161     5
  159    78   160     5
  159    78   161     5
  160    78   161     5
   29    79    74     5
   29    79   162     5
   29    79   163     5
   74    79   162     5
   74    79   163     5
  162    79   163     5
   70    80   164     5
   70    80   165     5
   70    80   166     5
  164    80   165     5
  164    80   166     5
  165    80   166     5
   67    81    83     5
   67    81   167     5
   83    81   167     5
   67    82    84     5
   67    82   168     5
   84    82   168     5
   81    83    85     5
   81    83   175     5
   85    83   175     5
   82    84    85     5
   82    84   176     5
   85    84   176     5
   83    85    84     5
   83    85   181     5
   84    85   181     5

[ dihedrals ]
; ai	aj	ak	al	funct	phi0	cp	mult
   42    14    30    86     9
   30    14    42    35     9
   38    15    36    48     9
   38    15    36    55     9
   38    15    36    94     9
   53    16    35    93     9
   35    16    53    40     9
   52    17    40    53     9
   52    17    40    99     9
   60    18    37    95     9
   37    18    60    49     9
   55    19    50    63     9
   55    19    50    64     9
   55    19    50   118     9
   69    20    49   115     9
   49    20    69    59     9
   64    21    56    65     9
   64    21    56    68     9
   64    21    56   126     9
   68    22    54   122     9
   68    22    54   123     9
   54    22    68    56     9
   75    23    59   132     9
   59    23    75    61     9
   73    24    61    74     9
   73    24    61    75     9
   73    24    61   134     9
   31    30    14    42     9
   31    30    14    96     9
   38    30    14    42     9
   38    30    14    96     9
   86    30    14    96     9
   14    30    31    32     9
   14    30    31    87     9
   14    30    31    88     9
   38    30    31    87     9
   38    30    31    88     9
   86    30    31    87     9
   86    30    31    88     9
   14    30    38    15     9
   32    31    30    38     9
   32    31    30    86     9
   30    31    32    46     9
   30    31    32    47     9
   30    31    32    89     9
   87    31    32    89     9
   88    31    32    89     9
   46    32    31    87     9
   46    32    31    88     9
   47    32    31    87     9
   47    32    31    88     9
   31    32    46   109     9
   31    32    46   110     9
   31    32    46   111     9
   47    32    46   109     9
   47    32    46   110     9
   47    32    46   111     9
   89    32    46   109     9
   89    32    46   110     9
   89    32    46   111     9
   31    32    47   112     9
   31    32    47   113     9
   31    32    47   114     9
   46    32    47   112     9
   46    32    47   113     9
   46    32    47   114     9
   89    32    47   112     9
   89    32    47   113     9
   89    32    47   114     9
   44    33    34    91     9
   44    33    34    92     9
   57    33    34    91     9
   57    33    34    92     9
   90    33    34    91     9
   90    33    34    92     9
   34    33    44    71     9
   34    33    44   105     9
   34    33    44   106     9
   57    33    44    71     9
   57    33    44   105     9
   57    33    44   106     9
   90    33    44   105     9
   90    33    44   106     9
   34    33    57   127     9
   34    33    57   128     9
   34    33    57   129     9
   44    33    57   127     9
   44    33    57   128     9
   44    33    57   129     9
   90    33    57   127     9
   90    33    57   128     9
   90    33    57   129     9
   39    34    33    44     9
   39    34    33    57     9
   39    34    33    90     9
   33    34    39    43     9
   33    34    39    97     9
   33    34    39    98     9
   91    34    39    97     9
   91    34    39    98     9
   92    34    39    97     9
   92    34    39    98     9
   42    35    16    53     9
   42    35    16   119     9
   45    35    16    53     9
   45    35    16   119     9
   93    35    16   119     9
   16    35    45    67     9
   16    35    45   107     9
   16    35    45   108     9
   42    35    45    67     9
   42    35    45   107     9
   42    35    45   108     9
   93    35    45   107     9
   93    35    45   108     9
   48    36    15   102     9
   55    36    15   102     9
   94    36    15   102     9
   15    36    48    66     9
   15    36    48   116     9
   15    36    48   117     9
   55    36    48    66     9
   55    36    48   116     9
   55    36    48   117     9
   94    36    48   116     9
   94    36    48   117     9
   15    36    55    19     9
   41    37    18    60     9
   41    37    18   125     9
   52    37    18    60     9
   52    37    18   125     9
   95    37    18   125     9
   18    37    41    54     9
   18    37    41   100     9
   18    37    41   101     9
   52    37    41    54     9
   52    37    41   100     9
   52    37    41   101     9
   95    37    41   100     9
   95    37    41   101     9
    1    38    15    36     9
    1    38    15   102     9
   30    38    15    36     9
   30    38    15   102     9
    1    38    30    14     9
    1    38    30    31     9
    1    38    30    86     9
   15    38    30    31     9
   15    38    30    86     9
   43    39    34    91     9
   43    39    34    92     9
   34    39    43    58     9
   34    39    43   103     9
   34    39    43   104     9
   97    39    43   103     9
   97    39    43   104     9
   98    39    43   103     9
   98    39    43   104     9
   51    40    17    52     9
   51    40    17   124     9
   53    40    17   124     9
   99    40    17   124     9
   17    40    51    72     9
   17    40    51   120     9
   17    40    51   121     9
   53    40    51    72     9
   53    40    51   120     9
   53    40    51   121     9
   99    40    51   120     9
   99    40    51   121     9
   54    41    37    95     9
   37    41    54   122     9
   37    41    54   123     9
  100    41    54   122     9
  100    41    54   123     9
  101    41    54   122     9
  101    41    54   123     9
    2    42    14    30     9
    2    42    14    96     9
   35    42    14    96     9
    2    42    35    16     9
    2    42    35    45     9
    2    42    35    93     9
   14    42    35    16     9
   14    42    35    45     9
   14    42    35    93     9
   58    43    39    97     9
   58    43    39    98     9
   39    43    58    73     9
   39    43    58   130     9
   39    43    58   131     9
  103    43    58   130     9
  103    43    58   131     9
  104    43    58   130     9
  104    43    58   131     9
   71    44    33    90     9
   33    44    71   146     9
   33    44    71   147     9
   33    44    71   148     9
  105    44    71   146     9
  105    44    71   147     9
  105    44    71   148     9
  106    44    71   146     9
  106    44    71   147     9
  106    44    71   148     9
   67    45    35    93     9
   35    45    67    81     9
   35    45    67    82     9
   66    48    36    94     9
   36    48    66   143     9
   36    48    66   144     9
  116    48    66   143     9
  116    48    66   144     9
  117    48    66   143     9
  117    48    66   144     9
   60    49    20    69     9
   60    49    20   139     9
   62    49    20    69     9
   62    49    20   139     9
  115    49    20   139     9
   20    49    62    76     9
   20    49    62   135     9
   20    49    62   136     9
   60    49    62    76     9
   60    49    62   135     9
   60    49    62   136     9
  115    49    62   135     9
  115    49    62   136     9
   63    50    19   133     9
   64    50    19   133     9
  118    50    19   133     9
   19    50    63    77     9
   19    50    63   137     9
   19    50    63   138     9
   64    50    63    77     9
   64    50    63   137     9
   64    50    63   138     9
  118    50    63   137     9
  118    50    63   138     9
   19    50    64    21     9
   72    51    40    99     9
   40    51    72   149     9
   40    51    72   150     9
  120    51    72   149     9
  120    51    72   150     9
  121    51    72   149     9
  121    51    72   150     9
    3    52    17    40     9
    3    52    17   124     9
   37    52    17    40     9
   37    52    17   124     9
    3    52    37    18     9
    3    52    37    41     9
    3    52    37    95     9
   17    52    37    18     9
   17    52    37    41     9
   17    52    37    95     9
    4    53    16    35     9
    4    53    16   119     9
   40    53    16   119     9
    4    53    40    17     9
    4    53    40    51     9
    4    53    40    99     9
   16    53    40    17     9
   16    53    40    51     9
   16    53    40    99     9
   41    54    22    68     9
   41    54    22   142     9
  122    54    22   142     9
  123    54    22   142     9
   22    54    41    37     9
   22    54    41   100     9
   22    54    41   101     9
    5    55    19    50     9
    5    55    19   133     9
   36    55    19    50     9
   36    55    19   133     9
    5    55    36    15     9
    5    55    36    48     9
    5    55    36    94     9
   19    55    36    48     9
   19    55    36    94     9
   65    56    21   141     9
   68    56    21   141     9
  126    56    21   141     9
   21    56    65    78     9
   21    56    65   140     9
   68    56    65    78     9
   68    56    65   140     9
  126    56    65   140     9
   21    56    68    22     9
   73    58    43   103     9
   73    58    43   104     9
   69    59    23    75     9
   69    59    23   153     9
   70    59    23    75     9
   70    59    23   153     9
  132    59    23   153     9
   23    59    70    80     9
   23    59    70   145     9
   69    59    70    80     9
   69    59    70   145     9
  132    59    70   145     9
    7    60    18    37     9
    7    60    18   125     9
   49    60    18   125     9
    7    60    49    20     9
    7    60    49    62     9
    7    60    49   115     9
   18    60    49    20     9
   18    60    49    62     9
   18    60    49   115     9
   74    61    24   154     9
   75    61    24   154     9
  134    61    24   154     9
   24    61    74    79     9
   24    61    74   151     9
   24    61    74   152     9
   75    61    74    79     9
   75    61    74   151     9
   75    61    74   152     9
  134    61    74   151     9
  134    61    74   152     9
   76    62    49   115     9
   49    62    76   155     9
   49    62    76   156     9
  135    62    76   155     9
  135    62    76   156     9
  136    62    76   155     9
  136    62    76   156     9
   77    63    50   118     9
   50    63    77   157     9
   50    63    77   158     9
  137    63    77   157     9
  137    63    77   158     9
  138    63    77   157     9
  138    63    77   158     9
    9    64    21    56     9
    9    64    21   141     9
   50    64    21    56     9
   50    64    21   141     9
    9    64    50    19     9
    9    64    50    63     9
    9    64    50   118     9
   21    64    50    63     9
   21    64    50   118     9
   56    65     6   173     9
   78    65     6   173     9
  140    65     6   173     9
    6    65    56    21     9
    6    65    56    68     9
    6    65    56   126     9
   78    65    56   126     9
    6    65    78   159     9
    6    65    78   160     9
    6    65    78   161     9
   56    65    78   159     9
   56    65    78   160     9
   56    65    78   161     9
  140    65    78   159     9
  140    65    78   160     9
  140    65    78   161     9
   48    66    25   169     9
   48    66    25   170     9
   48    66    25   184     9
  143    66    25   169     9
  143    66    25   170     9
  143    66    25   184     9
  144    66    25   169     9
  144    66    25   170     9
  144    66    25   184     9
   25    66    48    36     9
   25    66    48   116     9
   25    66    48   117     9
   81    67    45   107     9
   81    67    45   108     9
   82    67    45   107     9
   82    67    45   108     9
   45    67    81    83     9
   45    67    81   167     9
   82    67    81    83     9
   82    67    81   167     9
   45    67    82    84     9
   45    67    82   168     9
   81    67    82    84     9
   81    67    82   168     9
   10    68    22    54     9
   10    68    22   142     9
   56    68    22   142     9
   10    68    56    21     9
   10    68    56    65     9
   10    68    56   126     9
   22    68    56    65     9
   22    68    56   126     9
   11    69    20    49     9
   11    69    20   139     9
   59    69    20   139     9
   11    69    59    23     9
   11    69    59    70     9
   11    69    59   132     9
   20    69    59    23     9
   20    69    59    70     9
   20    69    59   132     9
   59    70     8   174     9
   80    70     8   174     9
  145    70     8   174     9
    8    70    59    23     9
    8    70    59    69     9
    8    70    59   132     9
   80    70    59   132     9
    8    70    80   164     9
    8    70    80   165     9
    8    70    80   166     9
   59    70    80   164     9
   59    70    80   165     9
   59    70    80   166     9
  145    70    80   164     9
  145    70    80   165     9
  145    70    80   166     9
   51    72    26   171     9
   51    72    26   172     9
   51    72    26   185     9
  149    72    26   171     9
  149    72    26   172     9
  149    72    26   185     9
  150    72    26   171     9
  150    72    26   172     9
  150    72    26   185     9
   26    72    51    40     9
   26    72    51   120     9
   26    72    51   121     9
   12    73    24    61     9
   12    73    24   154     9
   58    73    24    61     9
   58    73    24   154     9
   12    73    58    43     9
   12    73    58   130     9
   12    73    58   131     9
   24    73    58    43     9
   24    73    58   130     9
   24    73    58   131     9
   79    74    61   134     9
   61    74    79   162     9
   61    74    79   163     9
  151    74    79   162     9
  151    74    79   163     9
  152    74    79   162     9
  152    74    79   163     9
   13    75    23    59     9
   13    75    23   153     9
   61    75    23   153     9
   13    75    61    24     9
   13    75    61    74     9
   13    75    61   134     9
   23    75    61    24     9
   23    75    61    74     9
   23    75    61   134     9
   62    76    27   177     9
   62    76    27   178     9
   62    76    27   186     9
  155    76    27   177     9
  155    76    27   178     9
  155    76    27   186     9
  156    76    27   177     9
  156    76    27   178     9
  156    76    27   186     9
   27    76    62    49     9
   27    76    62   135     9
   27    76    62   136     9
   63    77    28   179     9
   63    77    28   180     9
   63    77    28   187     9
  157    77    28   179     9
  157    77    28   180     9
  157    77    28   187     9
  158    77    28   179     9
  158    77    28   180     9
  158    77    28   187     9
   28    77    63    50     9
   28    77    63   137     9
   28    77    63   138     9
   74    79    29   182     9
   74    79    29   183     9
   74    79    29   188     9
  162    79    29   182     9
  162    79    29   183     9
  162    79    29   188     9
  163    79    29   182     9
  163    79    29   183     9
  163    79    29   188     9
   29    79    74    61     9
   29    79    74   151     9
   29    79    74   152     9
   67    81    83    85     9
   67    81    83   175     9
  167    81    83   175     9
   67    82    84    85     9
   67    82    84   176     9
  168    82    84   176     9
   85    83    81   167     9
   81    83    85    84     9
   81    83    85   181     9
  175    83    85   181     9
   85    84    82   168     9
   82    84    85    83     9
   82    84    85   181     9
  176    84    85   181     9
   84    85    83   175     9
   83    85    84   176     9

[ dihedrals ]
; ai	aj	ak	al	funct	q0	cq
   38    30    15     1     2
   42    35    14     2     2
   52    37    17     3     2
   53    40    16     4     2
   55    36    19     5     2
   60    49    18     7     2
   64    50    21     9     2
   68    56    22    10     2
   69    59    20    11     2
   73    58    24    12     2
   75    61    23    13     2
