Gyas ROwers Mature At Cryogenic Speed
  188
    1PMB     O1    1  -0.688  -0.304  14.787
    1PMB     O2    2  -0.426  -0.247  15.231
    1PMB     O3    3  -0.557   0.276  15.042
    1PMB     O4    4  -0.663   0.108  15.470
    1PMB     O5    5  -0.731   0.185  14.665
    1PMB     O6    6   0.052   0.372  14.713
    1PMB     O7    7  -0.166   0.189  15.421
    1PMB     O8    8  -0.441   0.807  15.118
    1PMB     O9    9  -0.299   0.347  14.844
    1PMB    O10   10  -0.174  -0.018  14.592
    1PMB    O11   11  -0.269   0.648  15.473
    1PMB    O12   12  -0.532   0.700  15.678
    1PMB    O13   13  -0.650   0.526  15.163
    1PMB     N1   14  -0.624  -0.278  15.131
    1PMB     N2   15  -0.624  -0.103  14.859
    1PMB     N3   16  -0.610  -0.108  15.442
    1PMB     N4   17  -0.552   0.179  15.239
    1PMB     N5   18  -0.276   0.158  15.235
    1PMB     N6   19  -0.517   0.164  14.726
    1PMB     N7   20  -0.189   0.470  15.375
    1PMB     N8   21  -0.229   0.288  14.639
    1PMB     N9   22  -0.218   0.005  14.805
    1PMB    N10   23  -0.433   0.531  15.198
    1PMB    N11   24  -0.552   0.593  15.487
    1PMB    N12   25  -1.062  -0.036  14.795
    1PMB    N13   26  -0.929   0.046  15.311
    1PMB    N14   27   0.228   0.492  15.264
    1PMB    N15   28  -0.625   0.653  14.754
    1PMB    N16   29  -0.951   0.344  15.409
    1PMB     C1   30  -0.575  -0.316  14.998
    1PMB     C2   31  -0.617  -0.465  14.982
    1PMB     C3   32  -0.553  -0.564  15.083
    1PMB     C4   33  -0.294   0.033  15.823
    1PMB     C5   34  -0.287   0.175  15.764
    1PMB     C6   35  -0.618  -0.240  15.378
    1PMB     C7   36  -0.673  -0.038  14.734
    1PMB     C8   37  -0.344   0.183  15.108
    1PMB     C9   38  -0.632  -0.239  14.876
    1PMB    C10   39  -0.421   0.249  15.758
    1PMB    C11   40  -0.608   0.047  15.249
    1PMB    C12   41  -0.337   0.060  15.015
    1PMB    C13   42  -0.548  -0.259  15.242
    1PMB    C14   43  -0.404   0.391  15.702
    1PMB    C15   44  -0.152  -0.028  15.837
    1PMB    C16   45  -0.564  -0.340  15.485
    1PMB    C17   46  -0.614  -0.704  15.068
    1PMB    C18   47  -0.400  -0.570  15.066
    1PMB    C19   48  -0.828  -0.059  14.710
    1PMB    C20   49  -0.145   0.375  15.273
    1PMB    C21   50  -0.474   0.300  14.686
    1PMB    C22   51  -0.733   0.016  15.158
    1PMB    C23   52  -0.491   0.217  15.128
    1PMB    C24   53  -0.627   0.016  15.394
    1PMB    C25   54  -0.202   0.047  14.942
    1PMB    C26   55  -0.641   0.112  14.707
    1PMB    C27   56  -0.116   0.199  14.671
    1PMB    C28   57  -0.385  -0.060  15.741
    1PMB    C29   58  -0.539   0.464  15.701
    1PMB    C30   59  -0.332   0.628  15.242
    1PMB    C31   60  -0.198   0.236  15.312
    1PMB    C32   61  -0.588   0.487  15.396
    1PMB    C33   62   0.012   0.369  15.277
    1PMB    C34   63  -0.560   0.416  14.747
    1PMB    C35   64  -0.327   0.316  14.728
    1PMB    C36   65  -0.007   0.254  14.766
    1PMB    C37   66  -0.918  -0.005  14.823
    1PMB    C38   67  -0.631  -0.475  15.485
    1PMB    C39   68  -0.168   0.056  14.691
    1PMB    C40   69  -0.261   0.583  15.368
    1PMB    C41   70  -0.389   0.772  15.246
    1PMB    C42   71  -0.056   0.054  15.925
    1PMB    C43   72  -0.871   0.081  15.178
    1PMB    C44   73  -0.540   0.591  15.620
    1PMB    C45   74  -0.737   0.456  15.432
    1PMB    C46   75  -0.559   0.520  15.247
    1PMB    C47   76   0.079   0.505  15.252
    1PMB    C48   77  -0.533   0.555  14.688
    1PMB    C49   78   0.109   0.155  14.789
    1PMB    C50   79  -0.825   0.380  15.336
    1PMB    C51   80  -0.289   0.883  15.283
    1PMB    C52   81  -0.560  -0.588  15.441
    1PMB    C53   82  -0.759  -0.492  15.541
    1PMB    C54   83  -0.617  -0.715  15.448
    1PMB    C55   84  -0.816  -0.620  15.550
    1PMB    C56   85  -0.745  -0.731  15.503
    1PMB     H1   86  -0.464  -0.307  14.993
    1PMB     H2   87  -0.592  -0.503  14.881
    1PMB     H3   88  -0.727  -0.473  14.995
    1PMB     H4   89  -0.575  -0.530  15.186
    1PMB     H5   90  -0.337   0.041  15.926
    1PMB     H6   91  -0.244   0.169  15.661
    1PMB     H7   92  -0.219   0.238  15.825
    1PMB     H8   93  -0.727  -0.261  15.364
    1PMB     H9   94  -0.623  -0.091  14.650
    1PMB    H10   95  -0.298   0.270  15.059
    1PMB    H11   96  -0.722  -0.295  15.141
    1PMB    H12   97  -0.464   0.254  15.860
    1PMB    H13   98  -0.492   0.193  15.694
    1PMB    H14   99  -0.525  -0.018  15.216
    1PMB    H15  100  -0.414   0.069  14.936
    1PMB    H16  101  -0.358  -0.034  15.071
    1PMB    H17  102  -0.573  -0.048  14.924
    1PMB    H18  103  -0.360   0.383  15.600
    1PMB    H19  104  -0.332   0.448  15.766
    1PMB    H20  105  -0.108  -0.038  15.735
    1PMB    H21  106  -0.161  -0.130  15.879
    1PMB    H22  107  -0.580  -0.299  15.587
    1PMB    H23  108  -0.454  -0.353  15.474
    1PMB    H24  109  -0.599  -0.743  14.965
    1PMB    H25  110  -0.723  -0.702  15.090
    1PMB    H26  111  -0.566  -0.775  15.139
    1PMB    H27  112  -0.354  -0.472  15.086
    1PMB    H28  113  -0.374  -0.602  14.963
    1PMB    H29  114  -0.356  -0.643  15.137
    1PMB    H30  115  -0.179   0.404  15.172
    1PMB    H31  116  -0.849  -0.168  14.700
    1PMB    H32  117  -0.858  -0.015  14.613
    1PMB    H33  118  -0.479   0.306  14.575
    1PMB    H34  119  -0.600  -0.114  15.542
    1PMB    H35  120  -0.758  -0.091  15.166
    1PMB    H36  121  -0.702   0.037  15.054
    1PMB    H37  122  -0.150   0.143  14.951
    1PMB    H38  123  -0.140  -0.029  14.996
    1PMB    H39  124  -0.599   0.250  15.291
    1PMB    H40  125  -0.291   0.068  15.274
    1PMB    H41  126  -0.062   0.190  14.573
    1PMB    H42  127  -0.346  -0.069  15.637
    1PMB    H43  128  -0.488  -0.022  15.738
    1PMB    H44  129  -0.387  -0.162  15.786
    1PMB    H45  130  -0.565   0.491  15.806
    1PMB    H46  131  -0.615   0.392  15.669
    1PMB    H47  132  -0.254   0.630  15.163
    1PMB    H48  133  -0.443   0.105  14.757
    1PMB    H49  134  -0.524   0.398  15.420
    1PMB    H50  135   0.047   0.294  15.202
    1PMB    H51  136   0.043   0.333  15.378
    1PMB    H52  137  -0.543   0.420  14.857
    1PMB    H53  138  -0.667   0.394  14.731
    1PMB    H54  139  -0.160   0.448  15.467
    1PMB    H55  140  -0.050   0.286  14.862
    1PMB    H56  141  -0.248   0.293  14.541
    1PMB    H57  142  -0.252  -0.088  14.792
    1PMB    H58  143  -0.891  -0.053  14.918
    1PMB    H59  144  -0.908   0.105  14.833
    1PMB    H60  145  -0.473   0.778  15.319
    1PMB    H61  146  -0.104   0.076  16.024
    1PMB    H62  147  -0.030   0.150  15.877
    1PMB    H63  148   0.038  -0.002  15.943
    1PMB    H64  149  -0.870   0.188  15.160
    1PMB    H65  150  -0.942   0.041  15.103
    1PMB    H66  151  -0.787   0.553  15.457
    1PMB    H67  152  -0.735   0.394  15.524
    1PMB    H68  153  -0.433   0.527  15.098
    1PMB    H69  154  -0.548   0.686  15.452
    1PMB    H70  155   0.057   0.543  15.151
    1PMB    H71  156   0.047   0.581  15.325
    1PMB    H72  157  -0.429   0.589  14.706
    1PMB    H73  158  -0.553   0.558  14.579
    1PMB    H74  159   0.184   0.199  14.858
    1PMB    H75  160   0.161   0.130  14.694
    1PMB    H76  161   0.073   0.060  14.835
    1PMB    H77  162  -0.853   0.436  15.245
    1PMB    H78  163  -0.772   0.289  15.308
    1PMB    H79  164  -0.341   0.981  15.286
    1PMB    H80  165  -0.206   0.890  15.209
    1PMB    H81  166  -0.245   0.867  15.384
    1PMB    H82  167  -0.460  -0.576  15.400
    1PMB    H83  168  -0.813  -0.407  15.580
    1PMB    H84  169  -1.075  -0.139  14.788
    1PMB    H85  170  -1.089   0.006  14.703
    1PMB    H86  171  -0.865   0.077  15.388
    1PMB    H87  172  -0.938  -0.058  15.320
    1PMB    H88  173   0.106   0.345  14.638
    1PMB    H89  174  -0.470   0.898  15.126
    1PMB    H90  175  -0.562  -0.801  15.413
    1PMB    H91  176  -0.913  -0.633  15.595
    1PMB    H92  177   0.264   0.423  15.196
    1PMB    H93  178   0.254   0.460  15.360
    1PMB    H94  179  -0.609   0.654  14.856
    1PMB    H95  180  -0.724   0.624  14.736
    1PMB    H96  181  -0.788  -0.830  15.511
    1PMB    H97  182  -0.988   0.431  15.455
    1PMB    H98  183  -0.929   0.277  15.486
    1PMB    H99  184  -1.125   0.002  14.868
    1PMB   H100  185  -1.025   0.085  15.322
    1PMB   H101  186   0.275   0.584  15.247
    1PMB   H102  187  -0.611   0.749  14.716
    1PMB   H103  188  -1.025   0.309  15.345
   0.00000   0.00000   0.00000
